
     Program PWSCF v.7.2 starts on 15Dec2023 at 12:21:35 

     This program is part of the open-source Quantum ESPRESSO suite
     for quantum simulation of materials; please cite
         "P. Giannozzi et al., J. Phys.:Condens. Matter 21 395502 (2009);
         "P. Giannozzi et al., J. Phys.:Condens. Matter 29 465901 (2017);
         "P. Giannozzi et al., J. Chem. Phys. 152 154105 (2020);
          URL http://www.quantum-espresso.org", 
     in publications or presentations arising from this work. More details at
     http://www.quantum-espresso.org/quote

     Parallel version (MPI), running on    36 processors

     MPI processes distributed on     1 nodes
     768950 MiB available memory on the printing compute node when the environment starts
 
     Waiting for input...
     Reading input from standard input
Warning: card &CELL ignored
Warning: card / ignored

     Current dimensions of program PWSCF are:
     Max number of different atomic species (ntypx) = 10
     Max number of k-points (npk) =  40000
     Max angular momentum in pseudopotentials (lmaxx) =  4
     file Mo.pbe-spn-kjpaw_psl.1.0.0.UPF: wavefunction(s)  4S 4D renormalized
     file S.pbe-n-kjpaw_psl.1.0.0.UPF: wavefunction(s)  3S 3P renormalized
     file Pt.pbe-spfn-kjpaw_psl.1.0.0.UPF: wavefunction(s)  5P 4F renormalized
 
     R & G space division:  proc/nbgrp/npool/nimage =      36
     Subspace diagonalization in iterative solution of the eigenvalue problem:
     one sub-group per band group will be used
     custom distributed-memory algorithm (size of sub-group:  6*  6 procs)

 
     Parallelization info
     --------------------
     sticks:   dense  smooth     PW     G-vecs:    dense   smooth      PW
     Min         585     334     89               198743    85850   11735
     Max         586     335     90               198750    85861   11748
     Sum       21073   12049   3205              7154885  3090769  422587
 
     Using Slab Decomposition
 


     bravais-lattice index     =            0
     lattice parameter (alat)  =      23.8199  a.u.
     unit-cell volume          =   33861.0370 (a.u.)^3
     number of atoms/cell      =          193
     number of atomic types    =            3
     number of electrons       =      1696.00
     number of Kohn-Sham states=         1018
     kinetic-energy cutoff     =      77.0000  Ry
     charge density cutoff     =     539.0000  Ry
     scf convergence threshold =      1.0E-06
     mixing beta               =       0.2000
     number of iterations used =            8  plain     mixing
     energy convergence thresh.=      1.0E-04
     force convergence thresh. =      1.0E-03
     Exchange-correlation= SLA  PW   PBX  PBC
                           (   1   4   3   4   0   0   0)
     nstep                     =         1000


     Effective Screening Medium Method
     =================================
     Boundary Conditions: Vacuum-Slab-Vacuum
     total charge in unit cell        =   0.0000
     grid points for fit at edges     =        4 
 

     celldm(1)=  23.819920  celldm(2)=   0.000000  celldm(3)=   0.000000
     celldm(4)=   0.000000  celldm(5)=   0.000000  celldm(6)=   0.000000

     crystal axes: (cart. coord. in units of alat)
               a(1) = (   1.000000   0.000000   0.000000 )  
               a(2) = (  -0.499999   0.866026   0.000000 )  
               a(3) = (   0.000000   0.000000   2.893000 )  

     reciprocal axes: (cart. coord. in units 2 pi/alat)
               b(1) = (  1.000000  0.577349  0.000000 )  
               b(2) = (  0.000000  1.154700  0.000000 )  
               b(3) = (  0.000000  0.000000  0.345662 )  


     PseudoPot. # 1 for Mo read from file:
     ./pseudo/Mo.pbe-spn-kjpaw_psl.1.0.0.UPF
     MD5 check sum: 317bf72632116215fd98f72de1686f13
     Pseudo is Projector augmented-wave + core cor, Zval = 14.0
     Generated using 'atomic' code by A. Dal Corso  v.7.2
     Shape of augmentation charge: PSQ
     Using radial grid of 1229 points,  6 beta functions with: 
                l(1) =   0
                l(2) =   0
                l(3) =   1
                l(4) =   1
                l(5) =   2
                l(6) =   2
     Q(r) pseudized with 0 coefficients 


     PseudoPot. # 2 for S  read from file:
     ./pseudo/S.pbe-n-kjpaw_psl.1.0.0.UPF
     MD5 check sum: 8b7b5302570d38d5e87fed6a1065abda
     Pseudo is Projector augmented-wave + core cor, Zval =  6.0
     Generated using 'atomic' code by A. Dal Corso  v.7.2
     Shape of augmentation charge: PSQ
     Using radial grid of 1151 points,  6 beta functions with: 
                l(1) =   0
                l(2) =   0
                l(3) =   1
                l(4) =   1
                l(5) =   2
                l(6) =   2
     Q(r) pseudized with 0 coefficients 


     PseudoPot. # 3 for Pt read from file:
     ./pseudo/Pt.pbe-spfn-kjpaw_psl.1.0.0.UPF
     MD5 check sum: 620096ebf4e6ebacc94de60fd67efcb5
     Pseudo is Projector augmented-wave + core cor, Zval = 32.0
     Generated using 'atomic' code by A. Dal Corso  v.7.2
     Shape of augmentation charge: PSQ
     Using radial grid of 1277 points,  8 beta functions with: 
                l(1) =   0
                l(2) =   0
                l(3) =   1
                l(4) =   1
                l(5) =   2
                l(6) =   2
                l(7) =   3
                l(8) =   3
     Q(r) pseudized with 0 coefficients 


     atomic species   valence    mass     pseudopotential
        Mo            14.00    95.95000     Mo( 1.00)
        S              6.00    32.06000     S ( 1.00)
        Pt            32.00   195.08400     Pt( 1.00)

     No symmetry found



   Cartesian axes

     site n.     atom                  positions (alat units)
         1           Mo  tau(   1) = (   0.0000010   0.1443372  -0.7272732  )
         2           Mo  tau(   2) = (   0.1249995   0.0721706  -0.2424038  )
         3           S   tau(   3) = (   0.0000015   0.1443386  -0.3667807  )
         4           S   tau(   4) = (   0.1250010   0.0721682  -0.6030489  )
         5           S   tau(   5) = (   0.1250010   0.0721683  -0.8514963  )
         6           S   tau(   6) = (   0.0000015   0.1443389  -0.1180260  )
         7           Mo  tau(   7) = (   0.0000041   0.1443345   0.2424023  )
         8           Mo  tau(   8) = (   0.1250030   0.0721700   0.7272501  )
         9           S   tau(   9) = (   0.0000038   0.1443392   0.6028599  )
        10           S   tau(  10) = (   0.1250037   0.0721683   0.3667755  )
        11           S   tau(  11) = (   0.1250033   0.0721688   0.1180247  )
        12           S   tau(  12) = (   0.0000038   0.1443391   0.8517304  )
        13           Mo  tau(  13) = (  -0.1249989   0.3608437  -0.7272732  )
        14           Mo  tau(  14) = (   0.0000030   0.2886752  -0.2424042  )
        15           S   tau(  15) = (  -0.1249977   0.3608450  -0.3667802  )
        16           S   tau(  16) = (   0.0000012   0.2886747  -0.6030489  )
        17           S   tau(  17) = (   0.0000012   0.2886748  -0.8514963  )
        18           S   tau(  18) = (  -0.1249977   0.3608454  -0.1180274  )
        19           Mo  tau(  19) = (  -0.1249981   0.3608444   0.2424011  )
        20           Mo  tau(  20) = (   0.0000038   0.2886765   0.7272499  )
        21           S   tau(  21) = (  -0.1249961   0.3608457   0.6028596  )
        22           S   tau(  22) = (   0.0000037   0.2886752   0.3667739  )
        23           S   tau(  23) = (   0.0000035   0.2886747   0.1180263  )
        24           S   tau(  24) = (  -0.1249962   0.3608459   0.8517305  )
        25           Mo  tau(  25) = (  -0.2499987   0.5773502  -0.7272732  )
        26           Mo  tau(  26) = (  -0.1249977   0.5051839  -0.2424055  )
        27           S   tau(  27) = (  -0.2499981   0.5773518  -0.3667809  )
        28           S   tau(  28) = (  -0.1249986   0.5051812  -0.6030489  )
        29           S   tau(  29) = (  -0.1249986   0.5051813  -0.8514963  )
        30           S   tau(  30) = (  -0.2499979   0.5773512  -0.1180266  )
        31           Mo  tau(  31) = (  -0.2499983   0.5773503   0.2424020  )
        32           Mo  tau(  32) = (  -0.1249962   0.5051830   0.7272501  )
        33           S   tau(  33) = (  -0.2499958   0.5773522   0.6028593  )
        34           S   tau(  34) = (  -0.1249963   0.5051821   0.3667746  )
        35           S   tau(  35) = (  -0.1249968   0.5051820   0.1180254  )
        36           S   tau(  36) = (  -0.2499959   0.5773522   0.8517307  )
        37           Mo  tau(  37) = (  -0.3749985   0.7938567  -0.7272732  )
        38           Mo  tau(  38) = (  -0.2500001   0.7216874  -0.2424031  )
        39           S   tau(  39) = (  -0.3749980   0.7938584  -0.3667800  )
        40           S   tau(  40) = (  -0.2499984   0.7216877  -0.6030489  )
        41           S   tau(  41) = (  -0.2499984   0.7216878  -0.8514963  )
        42           S   tau(  42) = (  -0.3749982   0.7938585  -0.1180264  )
        43           Mo  tau(  43) = (  -0.3749976   0.7938584   0.2424002  )
        44           Mo  tau(  44) = (  -0.2499965   0.7216896   0.7272502  )
        45           S   tau(  45) = (  -0.3749954   0.7938586   0.6028596  )
        46           S   tau(  46) = (  -0.2499962   0.7216890   0.3667741  )
        47           S   tau(  47) = (  -0.2499961   0.7216884   0.1180258  )
        48           S   tau(  48) = (  -0.3749955   0.7938585   0.8517305  )
        49           Mo  tau(  49) = (   0.2500010   0.1443372  -0.7272732  )
        50           Mo  tau(  50) = (   0.3750034   0.0721723  -0.2424032  )
        51           S   tau(  51) = (   0.2500017   0.1443391  -0.3667788  )
        52           S   tau(  52) = (   0.3750010   0.0721682  -0.6030489  )
        53           S   tau(  53) = (   0.3750010   0.0721683  -0.8514963  )
        54           S   tau(  54) = (   0.2500016   0.1443391  -0.1180271  )
        55           Mo  tau(  55) = (   0.2500037   0.1443371   0.2424008  )
        56           Mo  tau(  56) = (   0.3750049   0.0721708   0.7272499  )
        57           S   tau(  57) = (   0.2500041   0.1443391   0.6028593  )
        58           S   tau(  58) = (   0.3750026   0.0721682   0.3667763  )
        59           S   tau(  59) = (   0.3750033   0.0721687   0.1180242  )
        60           S   tau(  60) = (   0.2500040   0.1443392   0.8517310  )
        61           Mo  tau(  61) = (   0.1250012   0.3608437  -0.7272732  )
        62           Mo  tau(  62) = (   0.2500029   0.2886782  -0.2424031  )
        63           S   tau(  63) = (   0.1250024   0.3608455  -0.3667794  )
        64           S   tau(  64) = (   0.2500012   0.2886747  -0.6030489  )
        65           S   tau(  65) = (   0.2500012   0.2886748  -0.8514963  )
        66           S   tau(  66) = (   0.1250021   0.3608455  -0.1180270  )
        67           Mo  tau(  67) = (   0.1250055   0.3608449   0.2424003  )
        68           Mo  tau(  68) = (   0.2500045   0.2886775   0.7272501  )
        69           S   tau(  69) = (   0.1250040   0.3608458   0.6028596  )
        70           S   tau(  70) = (   0.2500032   0.2886750   0.3667755  )
        71           S   tau(  71) = (   0.2500033   0.2886748   0.1180238  )
        72           S   tau(  72) = (   0.1250043   0.3608459   0.8517305  )
        73           Mo  tau(  73) = (   0.0000014   0.5773502  -0.7272732  )
        74           Mo  tau(  74) = (   0.1250045   0.5051840  -0.2424036  )
        75           S   tau(  75) = (   0.0000030   0.5773520  -0.3667799  )
        76           S   tau(  76) = (   0.1250014   0.5051812  -0.6030489  )
        77           S   tau(  77) = (   0.1250014   0.5051813  -0.8514963  )
        78           S   tau(  78) = (   0.0000026   0.5773517  -0.1180274  )
        79           Mo  tau(  79) = (   0.0000039   0.5773528   0.2424003  )
        80           Mo  tau(  80) = (   0.1250050   0.5051837   0.7272501  )
        81           S   tau(  81) = (   0.0000041   0.5773523   0.6028593  )
        82           S   tau(  82) = (   0.1250034   0.5051819   0.3667749  )
        83           S   tau(  83) = (   0.1250033   0.5051818   0.1180238  )
        84           S   tau(  84) = (   0.0000042   0.5773523   0.8517309  )
        85           Mo  tau(  85) = (  -0.1249984   0.7938567  -0.7272732  )
        86           Mo  tau(  86) = (   0.0000069   0.7216896  -0.2424039  )
        87           S   tau(  87) = (  -0.1249975   0.7938582  -0.3667782  )
        88           S   tau(  88) = (   0.0000016   0.7216877  -0.6030489  )
        89           S   tau(  89) = (   0.0000016   0.7216878  -0.8514963  )
        90           S   tau(  90) = (  -0.1249973   0.7938582  -0.1180279  )
        91           Mo  tau(  91) = (  -0.1249936   0.7938581   0.2424006  )
        92           Mo  tau(  92) = (   0.0000056   0.7216904   0.7272501  )
        93           S   tau(  93) = (  -0.1249955   0.7938586   0.6028591  )
        94           S   tau(  94) = (   0.0000039   0.7216883   0.3667759  )
        95           S   tau(  95) = (   0.0000039   0.7216885   0.1180233  )
        96           S   tau(  96) = (  -0.1249955   0.7938586   0.8517313  )
        97           Mo  tau(  97) = (   0.5000010   0.1443372  -0.7272732  )
        98           Mo  tau(  98) = (   0.6250001   0.0721662  -0.2424040  )
        99           S   tau(  99) = (   0.5000017   0.1443386  -0.3667801  )
       100           S   tau( 100) = (   0.6250010   0.0721682  -0.6030489  )
       101           S   tau( 101) = (   0.6250010   0.0721683  -0.8514963  )
       102           S   tau( 102) = (   0.5000020   0.1443388  -0.1180261  )
       103           Mo  tau( 103) = (   0.5000005   0.1443344   0.2424031  )
       104           Mo  tau( 104) = (   0.6250028   0.0721696   0.7272500  )
       105           S   tau( 105) = (   0.5000038   0.1443392   0.6028599  )
       106           S   tau( 106) = (   0.6250032   0.0721682   0.3667750  )
       107           S   tau( 107) = (   0.6250029   0.0721690   0.1180259  )
       108           S   tau( 108) = (   0.5000038   0.1443393   0.8517304  )
       109           Mo  tau( 109) = (   0.3750012   0.3608437  -0.7272732  )
       110           Mo  tau( 110) = (   0.4999991   0.2886761  -0.2424038  )
       111           S   tau( 111) = (   0.3750012   0.3608452  -0.3667804  )
       112           S   tau( 112) = (   0.5000012   0.2886747  -0.6030489  )
       113           S   tau( 113) = (   0.5000012   0.2886748  -0.8514963  )
       114           S   tau( 114) = (   0.3750014   0.3608455  -0.1180261  )
       115           Mo  tau( 115) = (   0.3750003   0.3608415   0.2424003  )
       116           Mo  tau( 116) = (   0.5000036   0.2886765   0.7272501  )
       117           S   tau( 117) = (   0.3750041   0.3608456   0.6028595  )
       118           S   tau( 118) = (   0.5000032   0.2886753   0.3667740  )
       119           S   tau( 119) = (   0.5000035   0.2886745   0.1180267  )
       120           S   tau( 120) = (   0.3750041   0.3608457   0.8517303  )
       121           Mo  tau( 121) = (   0.2500014   0.5773502  -0.7272732  )
       122           Mo  tau( 122) = (   0.3749983   0.5051825  -0.2424043  )
       123           S   tau( 123) = (   0.2500017   0.5773519  -0.3667810  )
       124           S   tau( 124) = (   0.3750014   0.5051812  -0.6030489  )
       125           S   tau( 125) = (   0.3750014   0.5051813  -0.8514963  )
       126           S   tau( 126) = (   0.2500018   0.5773519  -0.1180256  )
       127           Mo  tau( 127) = (   0.2500009   0.5773497   0.2423999  )
       128           Mo  tau( 128) = (   0.3750037   0.5051832   0.7272500  )
       129           S   tau( 129) = (   0.2500042   0.5773522   0.6028596  )
       130           S   tau( 130) = (   0.3750035   0.5051817   0.3667733  )
       131           S   tau( 131) = (   0.3750039   0.5051817   0.1180258  )
       132           S   tau( 132) = (   0.2500043   0.5773521   0.8517304  )
       133           Mo  tau( 133) = (   0.1250016   0.7938567  -0.7272732  )
       134           Mo  tau( 134) = (   0.2499995   0.7216883  -0.2424036  )
       135           S   tau( 135) = (   0.1250024   0.7938578  -0.3667813  )
       136           S   tau( 136) = (   0.2500016   0.7216877  -0.6030489  )
       137           S   tau( 137) = (   0.2500016   0.7216878  -0.8514963  )
       138           S   tau( 138) = (   0.1250024   0.7938579  -0.1180253  )
       139           Mo  tau( 139) = (   0.1250007   0.7938566   0.2424003  )
       140           Mo  tau( 140) = (   0.2500037   0.7216894   0.7272501  )
       141           S   tau( 141) = (   0.1250043   0.7938588   0.6028599  )
       142           S   tau( 142) = (   0.2500035   0.7216882   0.3667737  )
       143           S   tau( 143) = (   0.2500038   0.7216886   0.1180257  )
       144           S   tau( 144) = (   0.1250043   0.7938587   0.8517303  )
       145           Mo  tau( 145) = (   0.7500010   0.1443372  -0.7272732  )
       146           Mo  tau( 146) = (   0.8750038   0.0721696  -0.2424038  )
       147           S   tau( 147) = (   0.7500016   0.1443382  -0.3667789  )
       148           S   tau( 148) = (   0.8750010   0.0721682  -0.6030489  )
       149           S   tau( 149) = (   0.8750010   0.0721683  -0.8514963  )
       150           S   tau( 150) = (   0.7500016   0.1443384  -0.1180279  )
       151           Mo  tau( 151) = (   0.7500051   0.1443370   0.2424017  )
       152           Mo  tau( 152) = (   0.8750049   0.0721705   0.7272500  )
       153           S   tau( 153) = (   0.7500039   0.1443393   0.6028592  )
       154           S   tau( 154) = (   0.8750038   0.0721685   0.3667764  )
       155           S   tau( 155) = (   0.8750039   0.0721688   0.1180247  )
       156           S   tau( 156) = (   0.7500041   0.1443394   0.8517311  )
       157           Mo  tau( 157) = (   0.6250012   0.3608437  -0.7272732  )
       158           Mo  tau( 158) = (   0.7500028   0.2886769  -0.2424041  )
       159           S   tau( 159) = (   0.6250015   0.3608451  -0.3667792  )
       160           S   tau( 160) = (   0.7500012   0.2886747  -0.6030489  )
       161           S   tau( 161) = (   0.7500012   0.2886748  -0.8514963  )
       162           S   tau( 162) = (   0.6250016   0.3608454  -0.1180280  )
       163           Mo  tau( 163) = (   0.6250051   0.3608469   0.2424010  )
       164           Mo  tau( 164) = (   0.7500045   0.2886776   0.7272501  )
       165           S   tau( 165) = (   0.6250042   0.3608457   0.6028594  )
       166           S   tau( 166) = (   0.7500035   0.2886754   0.3667754  )
       167           S   tau( 167) = (   0.7500035   0.2886751   0.1180251  )
       168           S   tau( 168) = (   0.6250042   0.3608459   0.8517307  )
       169           Mo  tau( 169) = (   0.5000014   0.5773502  -0.7272732  )
       170           Mo  tau( 170) = (   0.6250029   0.5051841  -0.2424047  )
       171           S   tau( 171) = (   0.5000014   0.5773518  -0.3667794  )
       172           S   tau( 172) = (   0.6250014   0.5051812  -0.6030489  )
       173           S   tau( 173) = (   0.6250014   0.5051813  -0.8514963  )
       174           S   tau( 174) = (   0.5000016   0.5773516  -0.1180277  )
       175           Mo  tau( 175) = (   0.5000072   0.5773526   0.2424011  )
       176           Mo  tau( 176) = (   0.6250047   0.5051838   0.7272501  )
       177           S   tau( 177) = (   0.5000044   0.5773522   0.6028593  )
       178           S   tau( 178) = (   0.6250038   0.5051821   0.3667764  )
       179           S   tau( 179) = (   0.6250040   0.5051821   0.1180241  )
       180           S   tau( 180) = (   0.5000045   0.5773523   0.8517308  )
       181           Mo  tau( 181) = (   0.3750016   0.7938567  -0.7272732  )
       182           Mo  tau( 182) = (   0.5000025   0.7216901  -0.2424039  )
       183           S   tau( 183) = (   0.3750019   0.7938578  -0.3667793  )
       184           S   tau( 184) = (   0.5000016   0.7216877  -0.6030489  )
       185           S   tau( 185) = (   0.5000016   0.7216878  -0.8514963  )
       186           S   tau( 186) = (   0.3750020   0.7938579  -0.1180272  )
       187           Mo  tau( 187) = (   0.3750057   0.7938586   0.2424015  )
       188           Mo  tau( 188) = (   0.5000052   0.7216902   0.7272503  )
       189           S   tau( 189) = (   0.3750045   0.7938588   0.6028592  )
       190           S   tau( 190) = (   0.5000042   0.7216887   0.3667757  )
       191           S   tau( 191) = (   0.5000039   0.7216887   0.1180242  )
       192           S   tau( 192) = (   0.3750047   0.7938587   0.8517308  )
       193           Pt  tau( 193) = (   0.2500074   0.4330042   0.9786625  )

     --------------------------------------------
     DFT-D3 Dispersion Correction (3-body terms):
     --------------------------------------------
       Reference C6 values for interpolation: 

         atom   Coordination number   C6
         S          0.000           268.01
         S          0.995           261.99
         S          1.990           251.62
         Mo         0.000          1691.79
         Mo         1.942          1004.01
         Mo        11.056           674.22
         Pt         0.000           782.29
         Pt         1.919           692.72
         Pt         6.667           673.75

       Values used:

         atom   Coordination number  R0_AB[au]  C6      C8
         Mo        10.208            3.547    674.21  77634.20
         Mo        10.221            3.547    674.22  77634.20
         S          3.858            3.128    251.62  12327.25
         S          3.859            3.128    251.62  12327.25
         S          3.758            3.128    251.62  12327.25
         S          3.859            3.128    251.62  12327.25
         Mo        10.221            3.547    674.22  77634.20
         Mo        10.207            3.547    674.22  77634.20
         S          3.856            3.128    251.62  12327.25
         S          3.859            3.128    251.62  12327.25
         S          3.859            3.128    251.62  12327.25
         S          3.756            3.128    251.62  12327.25
         Mo        10.208            3.547    674.21  77634.20
         Mo        10.221            3.547    674.22  77634.20
         S          3.858            3.128    251.62  12327.25
         S          3.859            3.128    251.62  12327.25
         S          3.758            3.128    251.62  12327.25
         S          3.859            3.128    251.62  12327.25
         Mo        10.221            3.547    674.22  77634.20
         Mo        10.210            3.547    674.22  77634.20
         S          3.856            3.128    251.62  12327.25
         S          3.859            3.128    251.62  12327.25
         S          3.859            3.128    251.62  12327.25
         S          3.756            3.128    251.62  12327.25
         Mo        10.208            3.547    674.22  77634.20
         Mo        10.221            3.547    674.22  77634.20
         S          3.858            3.128    251.62  12327.25
         S          3.859            3.128    251.62  12327.25
         S          3.758            3.128    251.62  12327.25
         S          3.859            3.128    251.62  12327.25
         Mo        10.221            3.547    674.22  77634.20
         Mo        10.207            3.547    674.22  77634.20
         S          3.856            3.128    251.62  12327.25
         S          3.859            3.128    251.62  12327.25
         S          3.859            3.128    251.62  12327.25
         S          3.755            3.128    251.62  12327.25
         Mo        10.208            3.547    674.22  77634.20
         Mo        10.221            3.547    674.22  77634.20
         S          3.858            3.128    251.62  12327.25
         S          3.859            3.128    251.62  12327.25
         S          3.758            3.128    251.62  12327.25
         S          3.859            3.128    251.62  12327.25
         Mo        10.221            3.547    674.22  77634.20
         Mo        10.206            3.547    674.22  77634.20
         S          3.856            3.128    251.62  12327.25
         S          3.859            3.128    251.62  12327.25
         S          3.859            3.128    251.62  12327.25
         S          3.755            3.128    251.62  12327.25
         Mo        10.208            3.547    674.22  77634.20
         Mo        10.221            3.547    674.22  77634.20
         S          3.858            3.128    251.62  12327.25
         S          3.859            3.128    251.62  12327.25
         S          3.758            3.128    251.62  12327.25
         S          3.859            3.128    251.62  12327.25
         Mo        10.221            3.547    674.22  77634.20
         Mo        10.207            3.547    674.21  77634.20
         S          3.857            3.128    251.62  12327.25
         S          3.859            3.128    251.62  12327.25
         S          3.859            3.128    251.62  12327.25
         S          3.765            3.128    251.62  12327.25
         Mo        10.208            3.547    674.22  77634.20
         Mo        10.221            3.547    674.22  77634.20
         S          3.858            3.128    251.62  12327.25
         S          3.859            3.128    251.62  12327.25
         S          3.758            3.128    251.62  12327.25
         S          3.859            3.128    251.62  12327.25
         Mo        10.221            3.547    674.22  77634.20
         Mo        10.304            3.547    674.22  77634.20
         S          3.857            3.128    251.62  12327.25
         S          3.859            3.128    251.62  12327.25
         S          3.859            3.128    251.62  12327.25
         S          4.700            3.128    251.62  12327.25
         Mo        10.208            3.547    674.22  77634.20
         Mo        10.221            3.547    674.22  77634.20
         S          3.858            3.128    251.62  12327.25
         S          3.859            3.128    251.62  12327.25
         S          3.758            3.128    251.62  12327.25
         S          3.859            3.128    251.62  12327.25
         Mo        10.221            3.547    674.22  77634.20
         Mo        10.304            3.547    674.22  77634.20
         S          3.857            3.128    251.62  12327.25
         S          3.859            3.128    251.62  12327.25
         S          3.859            3.128    251.62  12327.25
         S          3.765            3.128    251.62  12327.25
         Mo        10.208            3.547    674.22  77634.20
         Mo        10.221            3.547    674.22  77634.20
         S          3.858            3.128    251.62  12327.25
         S          3.859            3.128    251.62  12327.25
         S          3.758            3.128    251.62  12327.25
         S          3.859            3.128    251.62  12327.25
         Mo        10.221            3.547    674.22  77634.20
         Mo        10.207            3.547    674.22  77634.20
         S          3.856            3.128    251.62  12327.25
         S          3.859            3.128    251.62  12327.25
         S          3.859            3.128    251.62  12327.25
         S          3.755            3.128    251.62  12327.25
         Mo        10.208            3.547    674.22  77634.20
         Mo        10.221            3.547    674.22  77634.20
         S          3.858            3.128    251.62  12327.25
         S          3.859            3.128    251.62  12327.25
         S          3.758            3.128    251.62  12327.25
         S          3.859            3.128    251.62  12327.25
         Mo        10.221            3.547    674.22  77634.20
         Mo        10.206            3.547    674.21  77634.20
         S          3.856            3.128    251.62  12327.25
         S          3.859            3.128    251.62  12327.25
         S          3.859            3.128    251.62  12327.25
         S          3.756            3.128    251.62  12327.25
         Mo        10.208            3.547    674.22  77634.20
         Mo        10.221            3.547    674.22  77634.20
         S          3.858            3.128    251.62  12327.25
         S          3.859            3.128    251.62  12327.25
         S          3.758            3.128    251.62  12327.25
         S          3.859            3.128    251.62  12327.25
         Mo        10.221            3.547    674.22  77634.20
         Mo        10.210            3.547    674.22  77634.20
         S          3.857            3.128    251.62  12327.25
         S          3.859            3.128    251.62  12327.25
         S          3.859            3.128    251.62  12327.25
         S          4.700            3.128    251.62  12327.25
         Mo        10.208            3.547    674.21  77634.20
         Mo        10.221            3.547    674.22  77634.20
         S          3.858            3.128    251.62  12327.25
         S          3.859            3.128    251.62  12327.25
         S          3.758            3.128    251.62  12327.25
         S          3.859            3.128    251.62  12327.25
         Mo        10.221            3.547    674.22  77634.20
         Mo        10.304            3.547    674.22  77634.20
         S          3.857            3.128    251.62  12327.25
         S          3.859            3.128    251.62  12327.25
         S          3.859            3.128    251.62  12327.25
         S          4.700            3.128    251.62  12327.25
         Mo        10.208            3.547    674.22  77634.20
         Mo        10.221            3.547    674.22  77634.20
         S          3.858            3.128    251.62  12327.25
         S          3.859            3.128    251.62  12327.25
         S          3.758            3.128    251.62  12327.25
         S          3.859            3.128    251.62  12327.25
         Mo        10.221            3.547    674.22  77634.20
         Mo        10.210            3.547    674.22  77634.20
         S          3.856            3.128    251.62  12327.25
         S          3.859            3.128    251.62  12327.25
         S          3.859            3.128    251.62  12327.25
         S          3.756            3.128    251.62  12327.25
         Mo        10.208            3.547    674.22  77634.20
         Mo        10.221            3.547    674.22  77634.20
         S          3.858            3.128    251.62  12327.25
         S          3.859            3.128    251.62  12327.25
         S          3.758            3.128    251.62  12327.25
         S          3.859            3.128    251.62  12327.25
         Mo        10.221            3.547    674.22  77634.20
         Mo        10.206            3.547    674.22  77634.20
         S          3.856            3.128    251.62  12327.25
         S          3.859            3.128    251.62  12327.25
         S          3.859            3.128    251.62  12327.25
         S          3.755            3.128    251.62  12327.25
         Mo        10.208            3.547    674.22  77634.20
         Mo        10.220            3.547    674.22  77634.20
         S          3.858            3.128    251.62  12327.25
         S          3.859            3.128    251.62  12327.25
         S          3.758            3.128    251.62  12327.25
         S          3.859            3.128    251.62  12327.25
         Mo        10.221            3.547    674.22  77634.20
         Mo        10.206            3.547    674.22  77634.20
         S          3.856            3.128    251.62  12327.25
         S          3.859            3.128    251.62  12327.25
         S          3.859            3.128    251.62  12327.25
         S          3.756            3.128    251.62  12327.25
         Mo        10.208            3.547    674.22  77634.20
         Mo        10.221            3.547    674.22  77634.20
         S          3.858            3.128    251.62  12327.25
         S          3.859            3.128    251.62  12327.25
         S          3.758            3.128    251.62  12327.25
         S          3.859            3.128    251.62  12327.25
         Mo        10.221            3.547    674.22  77634.20
         Mo        10.207            3.547    674.22  77634.20
         S          3.857            3.128    251.62  12327.25
         S          3.859            3.128    251.62  12327.25
         S          3.859            3.128    251.62  12327.25
         S          3.765            3.128    251.62  12327.25
         Mo        10.208            3.547    674.22  77634.20
         Mo        10.221            3.547    674.22  77634.20
         S          3.858            3.128    251.62  12327.25
         S          3.859            3.128    251.62  12327.25
         S          3.758            3.128    251.62  12327.25
         S          3.859            3.128    251.62  12327.25
         Mo        10.221            3.547    674.22  77634.20
         Mo        10.207            3.547    674.22  77634.20
         S          3.856            3.128    251.62  12327.25
         S          3.859            3.128    251.62  12327.25
         S          3.859            3.128    251.62  12327.25
         S          3.756            3.128    251.62  12327.25
         Pt         3.192            3.168    692.72  72035.25

         Molecular C6 ( Ry / a.u.^6 ) =  13808292.11


     number of k points=     4  Gaussian smearing, width (Ry)=  0.0100
                       cart. coord. in units 2pi/alat
        k(    1) = (   0.0000000   0.0000000   0.0000000), wk =   0.5000000
        k(    2) = (   0.0000000  -0.5773499   0.0000000), wk =   0.5000000
        k(    3) = (  -0.5000000  -0.2886744   0.0000000), wk =   0.5000000
        k(    4) = (  -0.5000000  -0.8660242   0.0000000), wk =   0.5000000

     Dense  grid:  7154885 G-vectors     FFT dimensions: ( 180, 180, 512)

     Smooth grid:  3090769 G-vectors     FFT dimensions: ( 135, 135, 400)

     Estimated max dynamical RAM per process >       4.29 GB

     Estimated total dynamical RAM >     154.34 GB

     Initial potential from superposition of free atoms

     starting charge    1695.9393, renormalised to    1696.0000

     negative rho (up, down):  6.976E-04 0.000E+00
     Starting wfcs are 1169 randomized atomic wfcs
     Checking if some PAW data can be deallocated... 

     total cpu time spent up to now is      198.0 secs

     Self-consistent Calculation

     iteration #  1     ecut=    77.00 Ry     beta= 0.20
     Davidson diagonalization with overlap
     ethr =  1.00E-02,  avg # of iterations =  2.0

     Threshold (ethr) on eigenvalues was too large:
     Diagonalizing with lowered threshold

     Davidson diagonalization with overlap
     c_bands:  2 eigenvalues not converged
     ethr =  1.31E-04,  avg # of iterations = 19.8

     negative rho (up, down):  1.459E-04 0.000E+00

     total cpu time spent up to now is     2686.4 secs

     total energy              =  -33468.31119101 Ry
     estimated scf accuracy    <       6.71905343 Ry

     iteration #  2     ecut=    77.00 Ry     beta= 0.20
     Davidson diagonalization with overlap
     ethr =  3.96E-04,  avg # of iterations =  1.0

     negative rho (up, down):  1.118E-05 0.000E+00

     total cpu time spent up to now is     3087.2 secs

     total energy              =  -33466.80031328 Ry
     estimated scf accuracy    <       3.55209457 Ry

     iteration #  3     ecut=    77.00 Ry     beta= 0.20
     Davidson diagonalization with overlap
     ethr =  2.09E-04,  avg # of iterations = 11.0

     negative rho (up, down):  8.713E-06 0.000E+00

     total cpu time spent up to now is     3677.0 secs

     total energy              =  -33467.35292360 Ry
     estimated scf accuracy    <       0.56690522 Ry

     iteration #  4     ecut=    77.00 Ry     beta= 0.20
     Davidson diagonalization with overlap
     c_bands:  1 eigenvalues not converged
     c_bands:  1 eigenvalues not converged
     c_bands:  1 eigenvalues not converged
     c_bands:  2 eigenvalues not converged
     ethr =  3.34E-05,  avg # of iterations = 20.0

     negative rho (up, down):  1.318E-05 0.000E+00

     total cpu time spent up to now is     5399.4 secs

     total energy              =  -33468.23592166 Ry
     estimated scf accuracy    <       0.62020459 Ry

     iteration #  5     ecut=    77.00 Ry     beta= 0.20
     Davidson diagonalization with overlap
     ethr =  3.34E-05,  avg # of iterations =  2.0

     negative rho (up, down):  3.446E-05 0.000E+00

     total cpu time spent up to now is     5837.6 secs

     total energy              =  -33468.15199943 Ry
     estimated scf accuracy    <       0.33584453 Ry

     iteration #  6     ecut=    77.00 Ry     beta= 0.20
     Davidson diagonalization with overlap
     ethr =  1.98E-05,  avg # of iterations =  7.0

     negative rho (up, down):  3.400E-04 0.000E+00

     total cpu time spent up to now is     6302.7 secs

     total energy              =  -33468.12986973 Ry
     estimated scf accuracy    <       0.16199799 Ry

     iteration #  7     ecut=    77.00 Ry     beta= 0.20
     Davidson diagonalization with overlap
     c_bands:  1 eigenvalues not converged
     ethr =  9.55E-06,  avg # of iterations = 19.5

     negative rho (up, down):  2.168E-04 0.000E+00

     total cpu time spent up to now is     7769.6 secs

     total energy              =  -33468.21089951 Ry
     estimated scf accuracy    <       0.83064753 Ry

     iteration #  8     ecut=    77.00 Ry     beta= 0.20
     Davidson diagonalization with overlap
     ethr =  9.55E-06,  avg # of iterations =  8.5

     negative rho (up, down):  1.554E-04 0.000E+00

     total cpu time spent up to now is     8360.7 secs

     total energy              =  -33468.16112989 Ry
     estimated scf accuracy    <       0.21350769 Ry

     iteration #  9     ecut=    77.00 Ry     beta= 0.20
     Davidson diagonalization with overlap
     ethr =  9.55E-06,  avg # of iterations =  8.8

     negative rho (up, down):  1.850E-04 0.000E+00

     total cpu time spent up to now is     9086.8 secs

     total energy              =  -33468.24149621 Ry
     estimated scf accuracy    <       0.00496297 Ry

     iteration # 10     ecut=    77.00 Ry     beta= 0.20
     Davidson diagonalization with overlap
     c_bands:  5 eigenvalues not converged
     c_bands:  4 eigenvalues not converged
     c_bands: 12 eigenvalues not converged
     ethr =  2.93E-07,  avg # of iterations = 93.0

     negative rho (up, down):  2.321E-04 0.000E+00

     total cpu time spent up to now is    15210.8 secs

     total energy              =  -33468.29122627 Ry
     estimated scf accuracy    <       0.08170923 Ry

     iteration # 11     ecut=    77.00 Ry     beta= 0.20
     Davidson diagonalization with overlap
     c_bands:  4 eigenvalues not converged
     ethr =  2.93E-07,  avg # of iterations =  9.2

     negative rho (up, down):  3.402E-04 0.000E+00

     total cpu time spent up to now is    15905.0 secs

     total energy              =  -33468.27980447 Ry
     estimated scf accuracy    <       0.03583059 Ry

     iteration # 12     ecut=    77.00 Ry     beta= 0.20
     Davidson diagonalization with overlap
     c_bands:  2 eigenvalues not converged
     ethr =  2.93E-07,  avg # of iterations = 14.5

     negative rho (up, down):  8.074E-04 0.000E+00

     total cpu time spent up to now is    16881.7 secs

     total energy              =  -33468.28244989 Ry
     estimated scf accuracy    <       0.00520573 Ry

     iteration # 13     ecut=    77.00 Ry     beta= 0.20
     Davidson diagonalization with overlap
     c_bands:  1 eigenvalues not converged
     ethr =  2.93E-07,  avg # of iterations = 18.5

     negative rho (up, down):  8.795E-04 0.000E+00

     total cpu time spent up to now is    18753.4 secs

     total energy              =  -33468.29149522 Ry
     estimated scf accuracy    <       0.06145231 Ry

     iteration # 14     ecut=    77.00 Ry     beta= 0.20
     Davidson diagonalization with overlap
     ethr =  2.93E-07,  avg # of iterations =  5.5

     negative rho (up, down):  8.344E-04 0.000E+00

     total cpu time spent up to now is    19402.9 secs

     total energy              =  -33468.28564541 Ry
     estimated scf accuracy    <       0.03007657 Ry

     iteration # 15     ecut=    77.00 Ry     beta= 0.20
     Davidson diagonalization with overlap
     ethr =  2.93E-07,  avg # of iterations =  7.0

     negative rho (up, down):  7.660E-04 0.000E+00

     total cpu time spent up to now is    20044.6 secs

     total energy              =  -33468.28210790 Ry
     estimated scf accuracy    <       0.01246307 Ry

     iteration # 16     ecut=    77.00 Ry     beta= 0.20
     Davidson diagonalization with overlap
     ethr =  2.93E-07,  avg # of iterations =  8.0

     negative rho (up, down):  7.849E-04 0.000E+00

     total cpu time spent up to now is    20738.8 secs

     total energy              =  -33468.28500620 Ry
     estimated scf accuracy    <       0.00090704 Ry

     iteration # 17     ecut=    77.00 Ry     beta= 0.20
     Davidson diagonalization with overlap
     ethr =  5.35E-08,  avg # of iterations = 15.8

     negative rho (up, down):  7.801E-04 0.000E+00

     total cpu time spent up to now is    21645.3 secs

     total energy              =  -33468.28618785 Ry
     estimated scf accuracy    <       0.00003765 Ry

     iteration # 18     ecut=    77.00 Ry     beta= 0.20
     Davidson diagonalization with overlap
     c_bands:  3 eigenvalues not converged
     c_bands:  1 eigenvalues not converged
     c_bands:  3 eigenvalues not converged
     ethr =  2.22E-09,  avg # of iterations = 20.5

     negative rho (up, down):  7.756E-04 0.000E+00

     total cpu time spent up to now is    24227.9 secs

     total energy              =  -33468.28643650 Ry
     estimated scf accuracy    <       0.00004085 Ry

     iteration # 19     ecut=    77.00 Ry     beta= 0.20
     Davidson diagonalization with overlap
     ethr =  2.22E-09,  avg # of iterations =  4.5

     negative rho (up, down):  7.880E-04 0.000E+00

     total cpu time spent up to now is    24678.5 secs

     total energy              =  -33468.28644430 Ry
     estimated scf accuracy    <       0.00005165 Ry

     iteration # 20     ecut=    77.00 Ry     beta= 0.20
     Davidson diagonalization with overlap
     ethr =  2.22E-09,  avg # of iterations =  8.0

     negative rho (up, down):  8.016E-04 0.000E+00

     total cpu time spent up to now is    25151.3 secs

     total energy              =  -33468.28641552 Ry
     estimated scf accuracy    <       0.00006766 Ry

     iteration # 21     ecut=    77.00 Ry     beta= 0.20
     Davidson diagonalization with overlap
     ethr =  2.22E-09,  avg # of iterations =  1.0

     negative rho (up, down):  8.114E-04 0.000E+00

     total cpu time spent up to now is    25552.5 secs

     total energy              =  -33468.28639804 Ry
     estimated scf accuracy    <       0.00002624 Ry

     iteration # 22     ecut=    77.00 Ry     beta= 0.20
     Davidson diagonalization with overlap
     ethr =  1.55E-09,  avg # of iterations =  8.0

     negative rho (up, down):  8.411E-04 0.000E+00

     total cpu time spent up to now is    26179.9 secs

     End of self-consistent calculation

          k = 0.0000 0.0000 0.0000 (386245 PWs)   bands (ev):

  -101.7785 -70.1072 -70.1072 -70.1060 -70.0950 -70.0950 -70.0522 -70.0468
   -66.6984 -66.6982 -66.6970 -66.6885 -66.6771 -66.6771 -66.6771 -66.6770
   -66.6770 -66.6770 -66.6770 -66.6770 -66.6769 -66.6769 -66.6769 -66.6769
   -66.6757 -66.6757 -66.6757 -66.6757 -66.6756 -66.6756 -66.6739 -66.6739
   -66.6662 -66.6640 -66.6640 -66.6557 -66.6557 -66.6557 -66.6557 -66.6557
   -66.6556 -66.6556 -66.6556 -66.6556 -66.6556 -66.6556 -66.6555 -66.6555
   -66.6555 -66.6555 -66.6555 -66.6554 -66.6554 -66.6550 -66.6543 -66.6543
   -66.6543 -66.6543 -66.6543 -66.6542 -66.6542 -66.6542 -66.6542 -66.6522
   -66.6478 -66.6478 -66.6443 -66.6294 -66.6294 -66.6177 -66.6176 -66.6154
   -56.0668 -56.0017 -56.0016 -41.0258 -41.0258 -41.0257 -41.0257 -41.0257
   -41.0256 -41.0250 -41.0250 -41.0250 -41.0146 -41.0085 -41.0084 -40.9505
   -40.9504 -40.9504 -40.9504 -40.9504 -40.9504 -40.9504 -40.9504 -40.9503
   -40.9503 -40.9503 -40.9503 -40.9497 -40.9497 -40.9496 -40.9496 -40.9496
   -40.9496 -40.9422 -40.9422 -40.9346 -40.9285 -40.9285 -40.9284 -40.8580
   -40.8579 -40.8573 -40.8473 -40.8241 -40.8241 -40.8241 -40.8241 -40.8241
   -40.8241 -40.8240 -40.8240 -40.8240 -40.8240 -40.8240 -40.8239 -40.8232
   -40.8232 -40.8232 -40.8232 -40.8232 -40.8232 -40.8177 -40.8163 -40.8163
   -40.8163 -40.8163 -40.8163 -40.8163 -40.8162 -40.8162 -40.8162 -40.8161
   -40.8161 -40.8161 -40.8156 -40.8156 -40.8156 -40.8156 -40.8155 -40.8155
   -40.8139 -40.8138 -40.8122 -40.8122 -40.8072 -40.8065 -40.8065 -40.8005
   -40.8004 -40.8004 -40.7929 -40.7891 -40.7891 -40.7891 -40.7891 -40.7891
   -40.7891 -40.7890 -40.7890 -40.7890 -40.7890 -40.7889 -40.7889 -40.7881
   -40.7881 -40.7881 -40.7881 -40.7881 -40.7881 -40.7802 -40.7802 -40.7767
   -40.7744 -40.7744 -40.7744 -40.7743 -40.7743 -40.7743 -40.7743 -40.7743
   -40.7743 -40.7743 -40.7743 -40.7742 -40.7742 -40.7742 -40.7742 -40.7742
   -40.7741 -40.7741 -40.7736 -40.7736 -40.7736 -40.7736 -40.7735 -40.7735
   -40.7735 -40.7735 -40.7735 -40.7730 -40.7690 -40.7690 -40.7684 -40.7684
   -40.7670 -40.7584 -40.7584 -40.7533 -40.7477 -40.7477 -40.7408 -40.7107
   -40.7107 -40.7107 -40.7106 -40.7106 -40.7106 -40.7097 -40.7097 -40.7097
   -40.7018 -40.6903 -40.6903 -40.6636 -40.6636 -40.6636 -40.6636 -40.6636
   -40.6636 -40.6635 -40.6635 -40.6635 -40.6635 -40.6635 -40.6634 -40.6625
   -40.6625 -40.6625 -40.6625 -40.6625 -40.6625 -40.6582 -40.6474 -40.6474
   -40.6403 -40.6403 -40.6392 -40.6160 -40.6160 -40.6159 -40.6159 -40.6149
   -40.6149 -40.5954 -40.5954 -20.1994 -20.1384 -20.0459 -19.9546 -19.4198
   -19.3283 -19.3283 -19.3200 -19.3200 -19.3199 -19.3067 -19.2770 -19.2769
   -19.2540 -19.2540 -19.2539 -19.2166 -19.1940 -19.1939 -19.1665 -19.1665
   -19.1663 -19.1151 -19.1067 -19.1067 -19.0938 -19.0938 -19.0936 -18.9615
   -18.8368 -18.6952 -18.5988 -18.5852 -18.5851 -18.5537 -18.5383 -18.5382
   -18.5380 -18.4853 -18.4853 -18.4805 -18.4276 -18.4276 -18.4273 -18.3664
   -18.3664 -18.3526 -18.3193 -18.3193 -18.3191 -18.2754 -18.2754 -18.2567
   -18.2463 -18.2463 -18.2462 -18.2303 -18.2303 -18.1958 -18.1954 -18.1954
   -18.1950 -18.1922 -18.1922 -18.1651 -18.1626 -18.1626 -18.1613 -18.1547
   -18.1547 -18.1517 -18.1495 -18.1495 -18.1270 -18.1223 -18.1223 -18.1202
   -18.1149 -18.1149 -18.1132 -18.0995 -18.0995 -18.0880 -18.0790 -18.0790
   -18.0737 -18.0666 -18.0666 -18.0656 -18.0519 -18.0519 -18.0484 -18.0165
   -18.0165 -17.9972 -17.9852 -17.9852 -17.9850 -17.9821 -17.9821 -17.9817
   -17.9613 -17.9613 -17.9557 -17.9421 -17.9421 -17.9382 -17.9302 -17.9302
   -17.9293 -17.9252 -17.9251 -17.9250 -17.9131 -17.9130 -17.9126 -17.8963
   -17.8963 -17.8936 -17.8898 -17.8898 -17.8884 -17.8692 -17.8692 -17.8681
   -17.8665 -17.8664 -17.8655 -12.0867 -12.0003 -11.8915 -11.8915 -11.8728
   -11.8091 -11.8091 -11.8056 -11.7431 -11.7037 -11.7037 -11.6319 -11.6161
   -11.6161 -11.5141 -11.3831 -11.3196 -11.3196 -11.3090 -11.3090 -11.3087
   -11.2875 -11.2361 -11.2361 -11.2077 -11.2077 -11.2070 -11.2028 -11.1851
   -11.1850 -11.1595 -11.1381 -11.1381 -11.1350 -11.1339 -11.1300 -11.1300
   -11.1234 -11.1234 -11.1224 -11.1023 -11.0842 -11.0842 -11.0483 -11.0483
   -11.0480 -11.0204 -11.0026 -11.0025 -10.9838 -10.9820 -10.9820 -10.9549
   -10.9355 -10.9355 -10.9236 -10.9231 -10.9215 -10.9215 -10.9179 -10.9179
   -10.9158 -10.9046 -10.9046 -10.8951 -10.8829 -10.8798 -10.8797 -10.8760
   -10.8760 -10.8735 -10.8718 -10.8718 -10.8684 -10.8684 -10.8684 -10.8464
   -10.8413 -10.8402 -10.8402 -10.8327 -10.8327 -10.8148 -10.8148 -10.8112
   -10.8083 -10.8053 -10.8052 -10.8011 -10.8010 -10.7916 -10.7276 -10.7275
   -10.7134 -10.6762 -10.6545 -10.6545 -10.6467 -10.6467 -10.6443 -10.3914
   -10.3913 -10.2580 -10.1878 -10.1878 -10.0512  -9.9830  -9.9830  -9.9083
    -9.8840  -9.8840  -9.8729  -9.8729  -9.8718  -9.8697  -9.8431  -9.8425
    -9.8425  -9.8396  -9.8396  -9.8385  -9.8262  -9.8262  -9.8254  -9.8215
    -9.8191  -9.8191  -9.7979  -9.7979  -9.7906  -9.7117  -9.7116  -9.6995
    -9.6983  -9.6983  -9.6935  -9.6922  -9.6922  -9.6917  -9.6880  -9.6875
    -9.6875  -9.6842  -9.6739  -9.6739  -9.6330  -9.6306  -9.6306  -9.6151
    -9.6151  -9.6150  -9.6136  -9.6136  -9.6135  -9.5952  -9.5952  -9.5830
    -9.5830  -9.5802  -9.5782  -9.5573  -9.5573  -9.5201  -9.5162  -9.5161
    -9.5123  -9.4259  -9.4259  -9.4204  -9.3992  -9.3992  -9.3951  -9.3951
    -9.3923  -9.3806  -9.3729  -9.3729  -9.3719  -9.3014  -9.3013  -9.3013
    -9.2944  -9.2944  -9.2852  -9.2554  -9.2554  -9.2528  -9.2521  -9.2521
    -9.2475  -9.2143  -9.2143  -9.1797  -9.1797  -9.1779  -9.1651  -9.0910
    -9.0910  -9.0609  -9.0551  -9.0551  -9.0417  -9.0279  -9.0279  -9.0143
    -9.0016  -9.0015  -8.9938  -8.9926  -8.9926  -8.9906  -8.9860  -8.9854
    -8.9854  -8.9435  -8.9435  -8.9289  -8.9113  -8.9013  -8.9013  -8.8947
    -8.8938  -8.8938  -8.8938  -8.8919  -8.8918  -8.8151  -8.8055  -8.8055
    -8.8007  -8.7967  -8.7967  -8.7326  -8.7216  -8.7216  -8.7178  -8.7125
    -8.7125  -8.6638  -8.6608  -8.6608  -8.6594  -8.6572  -8.6572  -8.5982
    -8.4710  -8.4710  -8.4403  -8.4403  -8.4352  -8.4352  -8.4288  -8.4288
    -8.3745  -8.3745  -8.3544  -8.3544  -8.3538  -8.3519  -8.3481  -8.3481
    -8.3374  -8.3374  -8.3358  -8.3298  -8.3212  -8.3211  -8.3135  -8.3134
    -8.3121  -8.3037  -8.2941  -8.2941  -8.2916  -8.2915  -8.2911  -8.2860
    -8.1700  -8.1544  -8.1544  -7.9576  -7.9305  -7.9304  -7.9070  -7.8413
    -7.8412  -7.8194  -7.7520  -7.7520  -7.7402  -7.7182  -7.7181  -7.7074
    -7.7027  -7.7026  -7.6948  -7.6736  -7.6735  -7.6731  -7.6514  -7.6514
    -7.6140  -7.6140  -7.6138  -7.6111  -7.6108  -7.6108  -7.6085  -7.5996
    -7.5996  -7.5926  -7.5910  -7.5910  -7.5886  -7.5861  -7.5774  -7.5774
    -7.5700  -7.5700  -7.5699  -7.5644  -7.5554  -7.5554  -7.5531  -7.5531
    -7.5524  -7.5487  -7.5258  -7.5258  -7.4976  -7.4976  -7.4803  -7.4745
    -7.4734  -7.4725  -7.4725  -7.4721  -7.4721  -7.4618  -7.3979  -7.3901
    -7.3901  -7.3710  -7.3709  -7.3591  -7.3587  -7.3571  -7.3511  -7.3511
    -7.3433  -7.3433  -7.3269  -7.3269  -7.3137  -7.3137  -7.2982  -7.2982
    -7.2852  -7.2852  -7.2126  -7.1695  -7.1695  -7.1512  -7.1374  -7.1374
    -6.9655  -6.9440  -6.9439  -6.9179  -6.9171  -6.9171  -6.8835  -6.8835
    -6.8692  -6.8355  -6.8355  -6.8178  -6.8139  -6.7588  -6.7588  -6.7438
    -6.7373  -6.7373  -6.6966  -6.6922  -6.6921  -6.6868  -6.6790  -6.6741
    -6.6741  -6.6414  -6.6414  -6.6204  -6.6083  -6.6083  -6.6080  -6.5923
    -6.5923  -6.5869  -6.5813  -6.5812  -6.5812  -6.5781  -6.5781  -6.5765
    -6.5709  -6.5708  -6.5705  -6.5703  -6.5703  -6.5696  -6.5502  -6.5502
    -6.5441  -6.5113  -6.5113  -6.5070  -6.4820  -6.4820  -6.4820  -6.4580
    -6.4116  -6.4103  -6.4102  -6.4099  -6.4099  -6.4026  -6.3827  -6.3804
    -6.3804  -6.3788  -6.3788  -6.3619  -6.3485  -6.3480  -6.3480  -6.3453
    -6.3453  -6.3262  -6.3224  -6.3223  -6.3220  -6.3211  -6.3211  -6.2781
    -5.9860  -5.9860  -5.9685  -5.7380  -5.4189  -5.3902  -5.3902  -5.2323
    -4.4897  -3.9256  -3.9256  -3.9174  -3.9162  -3.9161  -3.9002  -3.8961
    -3.8960  -3.8940  -3.8923  -3.8922  -3.8785  -3.7746  -3.7745  -3.7480
    -3.7479  -3.7472  -3.7464  -3.7460  -3.7415  -3.7415  -3.7396  -3.7395
    -3.6589  -3.5757  -3.5756  -3.5621  -3.5579  -3.5578  -3.5541  -3.5469
    -3.5447  -3.5443  -3.5442  -3.5422  -3.5422  -3.5265  -3.5265  -3.5163
    -3.5161  -3.5160  -3.5159  -3.5143  -3.5143  -3.5029  -3.5005  -3.5005
    -3.4911  -3.4853  -3.4836  -3.4836  -3.4831  -3.4825  -3.4824  -3.4753
    -3.4752  -3.4751  -3.4622  -3.4620  -3.4259  -3.4169  -3.4128  -3.4128
    -3.4099  -3.4098  -3.4089  -3.4082  -3.4043  -3.4042  -3.3900  -3.3899
    -3.3684  -3.3564  -3.3532  -3.3529  -3.3527  -3.3400  -3.3399  -3.2854
    -3.2853  -3.2740  -3.2679  -3.2678  -3.1705  -3.1337  -3.1311  -3.1310
    -3.1310  -3.1309  -3.1230  -3.1126  -3.1124  -3.1066  -3.0469  -3.0447
    -3.0445  -3.0443  -3.0442  -3.0399  -3.0362  -3.0361  -3.0321  -3.0321
    -3.0314  -3.0277  -3.0277  -3.0261  -3.0260  -3.0167  -3.0152  -3.0151
    -3.0078  -3.0077  -3.0025  -3.0014  -3.0011  -3.0002  -2.9972  -2.9968
    -2.9939  -2.9937  -2.9687  -2.9409  -2.9409  -2.9316  -2.9044  -2.8872
    -2.8869  -2.8784  -2.8778  -2.8777  -2.8763  -2.8760  -2.8740  -2.8735
    -2.8735  -2.8734  -2.8675  -2.8672  -2.8556  -2.8555  -2.8377  -2.8156
    -2.8154  -2.8105  -2.8076  -2.8076  -2.7977  -2.7975  -2.7435  -2.7434
    -2.7086  -2.7085  -2.7023  -2.6965  -2.6913  -2.6903  -2.6877  -2.6873
    -2.6534  -2.6233  -2.6232  -2.6197  -2.6170  -2.6168  -2.5042  -2.4828
    -2.4819  -2.4799

          k = 0.0000-0.5773 0.0000 (386352 PWs)   bands (ev):

  -101.7785 -70.1072 -70.1072 -70.1060 -70.0950 -70.0950 -70.0521 -70.0468
   -66.6921 -66.6921 -66.6920 -66.6920 -66.6908 -66.6907 -66.6859 -66.6815
   -66.6815 -66.6813 -66.6813 -66.6801 -66.6801 -66.6793 -66.6746 -66.6671
   -66.6664 -66.6664 -66.6664 -66.6664 -66.6663 -66.6662 -66.6662 -66.6662
   -66.6650 -66.6650 -66.6650 -66.6650 -66.6619 -66.6619 -66.6619 -66.6618
   -66.6618 -66.6605 -66.6605 -66.6587 -66.6561 -66.6557 -66.6557 -66.6556
   -66.6556 -66.6556 -66.6556 -66.6555 -66.6554 -66.6543 -66.6543 -66.6542
   -66.6542 -66.6534 -66.6512 -66.6512 -66.6511 -66.6511 -66.6498 -66.6498
   -66.6480 -66.6472 -66.6450 -66.6297 -66.6297 -66.6174 -66.6167 -66.6162
   -56.0668 -56.0017 -56.0016 -40.9941 -40.9941 -40.9941 -40.9941 -40.9941
   -40.9941 -40.9940 -40.9940 -40.9934 -40.9934 -40.9934 -40.9934 -40.9852
   -40.9827 -40.9784 -40.9683 -40.9673 -40.9673 -40.9673 -40.9672 -40.9666
   -40.9665 -40.9583 -40.9553 -40.9553 -40.9552 -40.9551 -40.9545 -40.9545
   -40.9489 -40.9407 -40.9340 -40.9046 -40.9046 -40.9046 -40.9046 -40.9045
   -40.9045 -40.9045 -40.9044 -40.9037 -40.9037 -40.9037 -40.9037 -40.8903
   -40.8897 -40.8878 -40.8839 -40.8458 -40.8458 -40.8457 -40.8457 -40.8451
   -40.8451 -40.8385 -40.8363 -40.8363 -40.8362 -40.8362 -40.8353 -40.8353
   -40.8324 -40.8250 -40.8250 -40.8248 -40.8248 -40.8242 -40.8242 -40.8219
   -40.8182 -40.8161 -40.8100 -40.7954 -40.7954 -40.7953 -40.7953 -40.7952
   -40.7952 -40.7952 -40.7952 -40.7946 -40.7946 -40.7946 -40.7946 -40.7890
   -40.7869 -40.7866 -40.7866 -40.7865 -40.7865 -40.7859 -40.7858 -40.7821
   -40.7818 -40.7771 -40.7748 -40.7748 -40.7747 -40.7747 -40.7743 -40.7743
   -40.7743 -40.7743 -40.7742 -40.7742 -40.7742 -40.7741 -40.7738 -40.7738
   -40.7735 -40.7735 -40.7735 -40.7735 -40.7700 -40.7690 -40.7656 -40.7656
   -40.7655 -40.7655 -40.7648 -40.7648 -40.7611 -40.7607 -40.7583 -40.7583
   -40.7478 -40.7458 -40.7456 -40.7439 -40.7439 -40.7439 -40.7438 -40.7438
   -40.7438 -40.7437 -40.7437 -40.7429 -40.7429 -40.7428 -40.7428 -40.7356
   -40.7309 -40.7296 -40.7169 -40.7091 -40.7091 -40.7091 -40.7091 -40.7090
   -40.7090 -40.7090 -40.7090 -40.7081 -40.7081 -40.7081 -40.7081 -40.6970
   -40.6970 -40.6969 -40.6968 -40.6963 -40.6959 -40.6959 -40.6948 -40.6887
   -40.6864 -40.6831 -40.6777 -40.6776 -40.6776 -40.6775 -40.6766 -40.6766
   -40.6722 -40.6659 -40.6607 -40.6607 -40.6606 -40.6605 -40.6596 -40.6596
   -40.6545 -40.6420 -40.6354 -40.6300 -40.6300 -40.6299 -40.6298 -40.6289
   -40.6289 -40.6168 -40.6044 -19.9793 -19.9548 -19.9224 -19.8836 -19.8256
   -19.7904 -19.7255 -19.7116 -19.5249 -19.5196 -19.4723 -19.4579 -19.3873
   -19.3720 -19.2968 -19.2906 -18.9229 -18.8555 -18.8204 -18.8172 -18.8143
   -18.8015 -18.7914 -18.7849 -18.7789 -18.7463 -18.7364 -18.7221 -18.7093
   -18.6965 -18.6857 -18.6709 -18.6435 -18.6397 -18.6281 -18.6184 -18.6177
   -18.6057 -18.5852 -18.5729 -18.5534 -18.5497 -18.5291 -18.5288 -18.5239
   -18.5032 -18.4783 -18.4754 -18.4641 -18.4414 -18.4205 -18.4108 -18.3993
   -18.3812 -18.3441 -18.3237 -18.3115 -18.3073 -18.2974 -18.2887 -18.2570
   -18.2499 -18.2232 -18.2007 -18.1870 -18.1821 -18.1780 -18.1746 -18.1739
   -18.1739 -18.1689 -18.1568 -18.1435 -18.1433 -18.1405 -18.1368 -18.1352
   -18.1202 -18.1131 -18.1126 -18.1070 -18.1027 -18.0996 -18.0995 -18.0796
   -18.0758 -18.0722 -18.0682 -18.0656 -18.0634 -18.0558 -18.0555 -18.0506
   -18.0428 -18.0101 -18.0088 -18.0046 -17.9965 -17.9850 -17.9848 -17.9588
   -17.9543 -17.9398 -17.9397 -17.9174 -17.9163 -17.9059 -17.9058 -17.8930
   -17.8921 -17.8916 -17.8913 -17.8876 -17.8876 -17.8816 -17.8793 -17.8688
   -17.8616 -17.8513 -17.8399 -17.8304 -17.8244 -17.8111 -17.8072 -17.7979
   -17.7952 -17.7919 -17.7913 -11.9418 -11.7870 -11.7683 -11.5915 -11.5875
   -11.5858 -11.5842 -11.5571 -11.5537 -11.5466 -11.5454 -11.5206 -11.5061
   -11.5033 -11.4920 -11.4611 -11.4497 -11.4241 -11.4087 -11.4024 -11.3937
   -11.3897 -11.3829 -11.3457 -11.3413 -11.3368 -11.3356 -11.3348 -11.3273
   -11.3255 -11.3089 -11.2999 -11.2849 -11.2611 -11.2543 -11.2527 -11.2519
   -11.2419 -11.2401 -11.2394 -11.2354 -11.2166 -11.2109 -11.2095 -11.1921
   -11.1781 -11.1341 -11.1327 -11.1268 -11.1229 -11.0528 -11.0414 -11.0157
   -10.9996 -10.9970 -10.9762 -10.9675 -10.9565 -10.9375 -10.9265 -10.9255
   -10.9061 -10.8976 -10.8859 -10.8853 -10.8848 -10.8837 -10.8790 -10.8786
   -10.8692 -10.8667 -10.8659 -10.8619 -10.8610 -10.8610 -10.8606 -10.8594
   -10.8594 -10.8519 -10.8414 -10.8326 -10.8237 -10.8156 -10.8149 -10.8120
   -10.8066 -10.6261 -10.6052 -10.6023 -10.5987 -10.5829 -10.5422 -10.5138
   -10.4434 -10.4122 -10.3954 -10.3116 -10.2850 -10.2171 -10.2133 -10.2079
   -10.2037 -10.1668 -10.1601 -10.1535 -10.1516 -10.1223 -10.1218 -10.1197
   -10.0962 -10.0946 -10.0815 -10.0778 -10.0778 -10.0733 -10.0417 -10.0024
    -9.9901  -9.9899  -9.9888  -9.9701  -9.9689  -9.9671  -9.9660  -9.9505
    -9.9271  -9.9109  -9.9038  -9.8825  -9.8559  -9.8516  -9.8425  -9.8289
    -9.8256  -9.8136  -9.7997  -9.7808  -9.7799  -9.7576  -9.7441  -9.7401
    -9.7240  -9.7110  -9.7034  -9.6812  -9.6724  -9.6655  -9.6398  -9.6253
    -9.6109  -9.6086  -9.6044  -9.6038  -9.6030  -9.5840  -9.5811  -9.5588
    -9.5584  -9.5396  -9.5364  -9.5351  -9.5312  -9.5270  -9.5226  -9.4995
    -9.4970  -9.4943  -9.4860  -9.4319  -9.4157  -9.3476  -9.3330  -9.3187
    -9.3029  -9.2820  -9.2800  -9.2640  -9.2501  -9.2463  -9.2428  -9.2264
    -9.2261  -9.1860  -9.1836  -9.1809  -9.1525  -9.1488  -9.1282  -9.1169
    -9.1104  -9.0972  -9.0968  -9.0920  -9.0866  -9.0843  -9.0780  -9.0358
    -9.0264  -9.0239  -9.0197  -9.0131  -9.0011  -8.9959  -8.9920  -8.9648
    -8.9612  -8.9555  -8.9547  -8.9525  -8.9444  -8.9430  -8.9422  -8.9372
    -8.9362  -8.9318  -8.9314  -8.9182  -8.9147  -8.9122  -8.9090  -8.9020
    -8.9012  -8.8994  -8.8887  -8.8724  -8.8703  -8.8595  -8.8536  -8.8530
    -8.8526  -8.8503  -8.8466  -8.8310  -8.8196  -8.8048  -8.8003  -8.7930
    -8.7915  -8.7708  -8.7630  -8.7193  -8.7164  -8.6848  -8.6432  -8.5971
    -8.5884  -8.5653  -8.5598  -8.4998  -8.4988  -8.4242  -8.4202  -8.3567
    -8.3303  -8.3108  -8.3073  -8.2008  -8.2005  -8.1928  -8.1918  -8.1818
    -8.1804  -8.1724  -8.1544  -8.1411  -8.1319  -8.0421  -8.0418  -8.0021
    -7.9935  -7.9557  -7.9519  -7.9247  -7.9123  -7.9101  -7.8996  -7.8976
    -7.8911  -7.8839  -7.8788  -7.8784  -7.8707  -7.8634  -7.8610  -7.8606
    -7.8591  -7.8561  -7.8552  -7.8494  -7.8459  -7.8448  -7.8432  -7.8415
    -7.8408  -7.8395  -7.8353  -7.8349  -7.8304  -7.8295  -7.8221  -7.8190
    -7.8179  -7.8081  -7.8021  -7.7950  -7.7900  -7.7846  -7.7729  -7.7705
    -7.7654  -7.7652  -7.7625  -7.7585  -7.7530  -7.7385  -7.7383  -7.7348
    -7.7335  -7.7179  -7.7134  -7.6876  -7.6838  -7.6784  -7.6742  -7.6682
    -7.6660  -7.6648  -7.6645  -7.6643  -7.6539  -7.6468  -7.6357  -7.6327
    -7.6312  -7.6246  -7.6210  -7.6072  -7.6037  -7.5309  -7.5308  -7.5233
    -7.5185  -7.5091  -7.4854  -7.3630  -7.3262  -7.3147  -7.2545  -7.2404
    -7.2387  -7.2385  -7.2286  -7.1902  -7.1837  -7.1799  -7.1734  -7.1705
    -7.1687  -7.1143  -7.1025  -7.1000  -7.0947  -7.0901  -7.0834  -7.0687
    -7.0576  -7.0352  -7.0174  -7.0118  -6.9822  -6.9782  -6.9672  -6.9598
    -6.9516  -6.9307  -6.9293  -6.9249  -6.9128  -6.9043  -6.8827  -6.8488
    -6.8296  -6.8035  -6.7870  -6.7587  -6.7420  -6.7058  -6.6992  -6.6937
    -6.6915  -6.6898  -6.6822  -6.6753  -6.6752  -6.6744  -6.6663  -6.6589
    -6.6587  -6.6582  -6.6544  -6.6514  -6.6514  -6.6512  -6.6503  -6.6196
    -6.5863  -6.5532  -6.5282  -6.4833  -6.4742  -6.4246  -6.4129  -6.4022
    -6.4002  -6.3779  -6.3778  -6.3609  -6.3597  -6.3569  -6.3525  -6.3481
    -6.3479  -6.3435  -6.3433  -6.3196  -6.3137  -6.3129  -6.3052  -6.2956
    -6.2755  -6.2733  -6.2721  -6.2710  -6.2695  -6.1059  -6.0692  -6.0556
    -6.0234  -5.9968  -5.9955  -5.9905  -5.9536  -5.9484  -5.9199  -5.9117
    -5.9036  -5.8453  -5.7408  -5.7355  -5.6618  -5.6606  -5.3979  -5.3892
    -4.5060  -4.1589  -4.1588  -4.1544  -4.1350  -4.0052  -3.9980  -3.9795
    -3.9779  -3.9683  -3.9283  -3.9128  -3.9126  -3.8948  -3.8945  -3.8772
    -3.8769  -3.8669  -3.8665  -3.8536  -3.8232  -3.7469  -3.7387  -3.7339
    -3.7024  -3.6771  -3.6712  -3.6709  -3.6701  -3.6603  -3.6240  -3.6235
    -3.6226  -3.5945  -3.5884  -3.5876  -3.5858  -3.5823  -3.5772  -3.5487
    -3.5469  -3.5441  -3.5440  -3.5394  -3.5342  -3.5337  -3.5176  -3.5165
    -3.5149  -3.4999  -3.4883  -3.4872  -3.4842  -3.4642  -3.4483  -3.4241
    -3.4190  -3.4148  -3.4146  -3.4133  -3.4118  -3.4116  -3.4036  -3.3678
    -3.3669  -3.3604  -3.3535  -3.3524  -3.3522  -3.3511  -3.3497  -3.3468
    -3.3421  -3.3200  -3.3078  -3.3068  -3.3038  -3.2998  -3.2993  -3.2925
    -3.2816  -3.2778  -3.2731  -3.2647  -3.2562  -3.2525  -3.2399  -3.2381
    -3.2362  -3.2327  -3.2327  -3.2318  -3.2289  -3.1952  -3.1732  -3.1704
    -3.1475  -3.1366  -3.1339  -3.1304  -3.1302  -3.1220  -3.0936  -3.0934
    -3.0924  -3.0916  -3.0912  -3.0905  -3.0813  -3.0802  -3.0775  -3.0773
    -3.0716  -3.0705  -3.0605  -3.0602  -3.0521  -3.0371  -3.0344  -3.0331
    -3.0323  -3.0291  -3.0222  -3.0213  -3.0174  -3.0164  -3.0133  -3.0099
    -3.0037  -3.0002  -2.9976  -2.9902  -2.9646  -2.9572  -2.9529  -2.9508
    -2.9443  -2.9382  -2.9325  -2.9283  -2.8697  -2.8579  -2.8533  -2.8530
    -2.8059  -2.7825  -2.7773  -2.7716  -2.6818  -2.6808  -2.6774  -2.6421
    -2.6358  -2.6115  -2.6101  -2.6053  -2.6025  -2.5954  -2.5926  -2.5904
    -2.5877  -2.5862  -2.5287  -2.4643  -2.4640  -2.4627  -2.4580  -2.4569
    -2.4365  -2.4164

          k =-0.5000-0.2887 0.0000 (386352 PWs)   bands (ev):

  -101.7785 -70.1072 -70.1072 -70.1060 -70.0950 -70.0950 -70.0521 -70.0468
   -66.6921 -66.6921 -66.6920 -66.6919 -66.6908 -66.6907 -66.6859 -66.6815
   -66.6815 -66.6813 -66.6813 -66.6801 -66.6801 -66.6793 -66.6746 -66.6671
   -66.6664 -66.6664 -66.6664 -66.6664 -66.6663 -66.6662 -66.6662 -66.6662
   -66.6650 -66.6650 -66.6650 -66.6650 -66.6619 -66.6619 -66.6619 -66.6618
   -66.6617 -66.6605 -66.6605 -66.6587 -66.6561 -66.6557 -66.6557 -66.6556
   -66.6556 -66.6556 -66.6555 -66.6555 -66.6554 -66.6543 -66.6542 -66.6542
   -66.6542 -66.6534 -66.6512 -66.6512 -66.6511 -66.6511 -66.6498 -66.6498
   -66.6480 -66.6472 -66.6450 -66.6297 -66.6297 -66.6174 -66.6167 -66.6162
   -56.0668 -56.0017 -56.0016 -40.9942 -40.9941 -40.9941 -40.9941 -40.9941
   -40.9941 -40.9940 -40.9939 -40.9934 -40.9934 -40.9934 -40.9934 -40.9852
   -40.9827 -40.9785 -40.9683 -40.9673 -40.9673 -40.9673 -40.9672 -40.9665
   -40.9665 -40.9583 -40.9553 -40.9553 -40.9552 -40.9551 -40.9545 -40.9545
   -40.9489 -40.9407 -40.9340 -40.9046 -40.9046 -40.9046 -40.9046 -40.9045
   -40.9045 -40.9044 -40.9044 -40.9037 -40.9037 -40.9037 -40.9037 -40.8903
   -40.8897 -40.8878 -40.8839 -40.8458 -40.8458 -40.8457 -40.8457 -40.8451
   -40.8451 -40.8385 -40.8363 -40.8363 -40.8362 -40.8362 -40.8353 -40.8353
   -40.8325 -40.8250 -40.8250 -40.8248 -40.8248 -40.8242 -40.8242 -40.8219
   -40.8182 -40.8161 -40.8099 -40.7954 -40.7954 -40.7953 -40.7953 -40.7952
   -40.7952 -40.7952 -40.7952 -40.7946 -40.7946 -40.7946 -40.7946 -40.7890
   -40.7869 -40.7866 -40.7866 -40.7865 -40.7864 -40.7858 -40.7858 -40.7821
   -40.7818 -40.7771 -40.7748 -40.7748 -40.7747 -40.7747 -40.7743 -40.7743
   -40.7743 -40.7743 -40.7743 -40.7742 -40.7742 -40.7741 -40.7738 -40.7738
   -40.7735 -40.7735 -40.7735 -40.7735 -40.7700 -40.7690 -40.7656 -40.7656
   -40.7655 -40.7655 -40.7648 -40.7648 -40.7611 -40.7607 -40.7583 -40.7583
   -40.7477 -40.7458 -40.7456 -40.7439 -40.7439 -40.7439 -40.7438 -40.7438
   -40.7438 -40.7437 -40.7437 -40.7429 -40.7428 -40.7428 -40.7428 -40.7355
   -40.7309 -40.7296 -40.7169 -40.7091 -40.7091 -40.7091 -40.7091 -40.7090
   -40.7090 -40.7090 -40.7090 -40.7081 -40.7081 -40.7081 -40.7081 -40.6970
   -40.6970 -40.6969 -40.6968 -40.6963 -40.6959 -40.6959 -40.6948 -40.6887
   -40.6864 -40.6831 -40.6777 -40.6776 -40.6776 -40.6775 -40.6766 -40.6766
   -40.6722 -40.6659 -40.6607 -40.6607 -40.6606 -40.6605 -40.6596 -40.6596
   -40.6545 -40.6420 -40.6354 -40.6300 -40.6300 -40.6299 -40.6298 -40.6289
   -40.6289 -40.6168 -40.6044 -19.9793 -19.9548 -19.9224 -19.8836 -19.8256
   -19.7904 -19.7255 -19.7116 -19.5249 -19.5196 -19.4723 -19.4579 -19.3873
   -19.3720 -19.2968 -19.2906 -18.9229 -18.8555 -18.8204 -18.8172 -18.8143
   -18.8015 -18.7914 -18.7849 -18.7789 -18.7463 -18.7364 -18.7221 -18.7093
   -18.6965 -18.6857 -18.6709 -18.6435 -18.6397 -18.6281 -18.6184 -18.6178
   -18.6057 -18.5852 -18.5729 -18.5534 -18.5497 -18.5291 -18.5288 -18.5239
   -18.5032 -18.4783 -18.4754 -18.4641 -18.4413 -18.4205 -18.4108 -18.3993
   -18.3812 -18.3440 -18.3237 -18.3115 -18.3073 -18.2974 -18.2887 -18.2570
   -18.2499 -18.2233 -18.2007 -18.1870 -18.1821 -18.1780 -18.1746 -18.1739
   -18.1739 -18.1689 -18.1568 -18.1435 -18.1433 -18.1405 -18.1368 -18.1352
   -18.1202 -18.1131 -18.1126 -18.1070 -18.1027 -18.0995 -18.0995 -18.0797
   -18.0758 -18.0722 -18.0682 -18.0656 -18.0634 -18.0558 -18.0556 -18.0506
   -18.0428 -18.0102 -18.0088 -18.0046 -17.9964 -17.9850 -17.9848 -17.9589
   -17.9542 -17.9398 -17.9397 -17.9175 -17.9163 -17.9059 -17.9059 -17.8930
   -17.8922 -17.8916 -17.8913 -17.8876 -17.8876 -17.8816 -17.8793 -17.8688
   -17.8616 -17.8513 -17.8398 -17.8304 -17.8244 -17.8112 -17.8072 -17.7979
   -17.7952 -17.7919 -17.7913 -11.9418 -11.7870 -11.7683 -11.5915 -11.5875
   -11.5858 -11.5842 -11.5571 -11.5537 -11.5466 -11.5454 -11.5206 -11.5061
   -11.5033 -11.4920 -11.4611 -11.4497 -11.4240 -11.4087 -11.4024 -11.3937
   -11.3896 -11.3829 -11.3457 -11.3413 -11.3368 -11.3356 -11.3348 -11.3273
   -11.3255 -11.3089 -11.2999 -11.2849 -11.2611 -11.2543 -11.2528 -11.2519
   -11.2419 -11.2401 -11.2394 -11.2354 -11.2166 -11.2109 -11.2095 -11.1921
   -11.1781 -11.1341 -11.1327 -11.1268 -11.1229 -11.0527 -11.0414 -11.0158
   -10.9996 -10.9970 -10.9762 -10.9675 -10.9565 -10.9375 -10.9265 -10.9255
   -10.9061 -10.8976 -10.8859 -10.8853 -10.8848 -10.8837 -10.8790 -10.8786
   -10.8692 -10.8667 -10.8659 -10.8620 -10.8610 -10.8610 -10.8606 -10.8594
   -10.8594 -10.8519 -10.8414 -10.8326 -10.8237 -10.8156 -10.8149 -10.8120
   -10.8066 -10.6261 -10.6052 -10.6023 -10.5987 -10.5829 -10.5422 -10.5138
   -10.4434 -10.4122 -10.3953 -10.3116 -10.2850 -10.2171 -10.2133 -10.2079
   -10.2037 -10.1668 -10.1600 -10.1535 -10.1516 -10.1223 -10.1218 -10.1197
   -10.0962 -10.0946 -10.0815 -10.0778 -10.0778 -10.0733 -10.0417 -10.0023
    -9.9901  -9.9899  -9.9889  -9.9702  -9.9689  -9.9671  -9.9660  -9.9505
    -9.9271  -9.9109  -9.9038  -9.8825  -9.8559  -9.8516  -9.8424  -9.8290
    -9.8256  -9.8136  -9.7997  -9.7808  -9.7799  -9.7576  -9.7441  -9.7401
    -9.7239  -9.7110  -9.7034  -9.6812  -9.6724  -9.6655  -9.6398  -9.6253
    -9.6109  -9.6086  -9.6044  -9.6038  -9.6030  -9.5840  -9.5811  -9.5588
    -9.5584  -9.5396  -9.5364  -9.5351  -9.5312  -9.5270  -9.5226  -9.4995
    -9.4970  -9.4943  -9.4860  -9.4319  -9.4157  -9.3476  -9.3330  -9.3187
    -9.3029  -9.2820  -9.2800  -9.2640  -9.2501  -9.2463  -9.2428  -9.2264
    -9.2261  -9.1860  -9.1836  -9.1809  -9.1525  -9.1488  -9.1282  -9.1169
    -9.1104  -9.0972  -9.0968  -9.0920  -9.0866  -9.0843  -9.0780  -9.0359
    -9.0264  -9.0239  -9.0197  -9.0131  -9.0011  -8.9959  -8.9920  -8.9648
    -8.9612  -8.9555  -8.9547  -8.9525  -8.9444  -8.9430  -8.9422  -8.9372
    -8.9362  -8.9318  -8.9315  -8.9182  -8.9147  -8.9122  -8.9091  -8.9020
    -8.9012  -8.8994  -8.8887  -8.8724  -8.8702  -8.8595  -8.8535  -8.8530
    -8.8526  -8.8503  -8.8466  -8.8310  -8.8196  -8.8048  -8.8003  -8.7930
    -8.7915  -8.7708  -8.7631  -8.7193  -8.7164  -8.6849  -8.6432  -8.5971
    -8.5884  -8.5653  -8.5598  -8.4998  -8.4988  -8.4242  -8.4202  -8.3568
    -8.3303  -8.3108  -8.3073  -8.2008  -8.2006  -8.1928  -8.1918  -8.1818
    -8.1804  -8.1724  -8.1544  -8.1411  -8.1320  -8.0421  -8.0418  -8.0021
    -7.9935  -7.9557  -7.9519  -7.9246  -7.9123  -7.9101  -7.8996  -7.8975
    -7.8911  -7.8840  -7.8788  -7.8784  -7.8707  -7.8634  -7.8610  -7.8606
    -7.8592  -7.8561  -7.8552  -7.8494  -7.8459  -7.8448  -7.8432  -7.8415
    -7.8408  -7.8395  -7.8353  -7.8349  -7.8304  -7.8295  -7.8221  -7.8190
    -7.8179  -7.8081  -7.8021  -7.7950  -7.7900  -7.7846  -7.7729  -7.7705
    -7.7654  -7.7652  -7.7625  -7.7585  -7.7529  -7.7384  -7.7383  -7.7348
    -7.7335  -7.7179  -7.7134  -7.6876  -7.6838  -7.6784  -7.6742  -7.6683
    -7.6660  -7.6648  -7.6645  -7.6643  -7.6539  -7.6467  -7.6356  -7.6327
    -7.6311  -7.6246  -7.6210  -7.6071  -7.6037  -7.5308  -7.5308  -7.5233
    -7.5185  -7.5091  -7.4854  -7.3630  -7.3262  -7.3147  -7.2545  -7.2404
    -7.2387  -7.2385  -7.2286  -7.1902  -7.1837  -7.1799  -7.1734  -7.1705
    -7.1686  -7.1143  -7.1025  -7.1000  -7.0947  -7.0901  -7.0834  -7.0687
    -7.0576  -7.0352  -7.0174  -7.0118  -6.9822  -6.9782  -6.9672  -6.9598
    -6.9516  -6.9307  -6.9293  -6.9249  -6.9128  -6.9043  -6.8826  -6.8488
    -6.8296  -6.8035  -6.7870  -6.7587  -6.7420  -6.7058  -6.6992  -6.6937
    -6.6915  -6.6898  -6.6822  -6.6753  -6.6752  -6.6744  -6.6663  -6.6589
    -6.6587  -6.6582  -6.6544  -6.6514  -6.6514  -6.6513  -6.6503  -6.6196
    -6.5863  -6.5532  -6.5282  -6.4833  -6.4742  -6.4247  -6.4128  -6.4023
    -6.4001  -6.3779  -6.3778  -6.3609  -6.3597  -6.3569  -6.3525  -6.3481
    -6.3479  -6.3435  -6.3433  -6.3197  -6.3137  -6.3129  -6.3051  -6.2956
    -6.2756  -6.2732  -6.2722  -6.2709  -6.2695  -6.1059  -6.0692  -6.0556
    -6.0234  -5.9968  -5.9955  -5.9905  -5.9536  -5.9484  -5.9199  -5.9117
    -5.9036  -5.8453  -5.7408  -5.7355  -5.6618  -5.6606  -5.3979  -5.3892
    -4.5060  -4.1590  -4.1589  -4.1544  -4.1350  -4.0055  -3.9980  -3.9794
    -3.9780  -3.9683  -3.9283  -3.9127  -3.9125  -3.8948  -3.8945  -3.8772
    -3.8769  -3.8669  -3.8666  -3.8536  -3.8231  -3.7470  -3.7387  -3.7338
    -3.7024  -3.6772  -3.6711  -3.6710  -3.6699  -3.6603  -3.6240  -3.6237
    -3.6226  -3.5945  -3.5885  -3.5878  -3.5858  -3.5824  -3.5773  -3.5486
    -3.5466  -3.5441  -3.5439  -3.5394  -3.5342  -3.5335  -3.5176  -3.5163
    -3.5152  -3.4998  -3.4882  -3.4871  -3.4840  -3.4641  -3.4482  -3.4242
    -3.4192  -3.4149  -3.4145  -3.4132  -3.4117  -3.4115  -3.4034  -3.3676
    -3.3665  -3.3604  -3.3532  -3.3523  -3.3521  -3.3511  -3.3498  -3.3468
    -3.3418  -3.3200  -3.3078  -3.3068  -3.3037  -3.3000  -3.2993  -3.2925
    -3.2816  -3.2780  -3.2730  -3.2647  -3.2563  -3.2526  -3.2400  -3.2383
    -3.2363  -3.2327  -3.2325  -3.2319  -3.2291  -3.1952  -3.1732  -3.1702
    -3.1474  -3.1367  -3.1348  -3.1303  -3.1301  -3.1220  -3.0938  -3.0932
    -3.0924  -3.0917  -3.0912  -3.0906  -3.0811  -3.0799  -3.0773  -3.0769
    -3.0717  -3.0704  -3.0606  -3.0602  -3.0524  -3.0379  -3.0351  -3.0337
    -3.0328  -3.0293  -3.0223  -3.0216  -3.0178  -3.0164  -3.0133  -3.0099
    -3.0033  -3.0003  -2.9976  -2.9905  -2.9646  -2.9573  -2.9522  -2.9508
    -2.9443  -2.9382  -2.9320  -2.9287  -2.8697  -2.8582  -2.8532  -2.8529
    -2.8059  -2.7824  -2.7773  -2.7714  -2.6823  -2.6808  -2.6774  -2.6423
    -2.6360  -2.6285  -2.6145  -2.6107  -2.6050  -2.5955  -2.5930  -2.5913
    -2.5884  -2.5863  -2.5387  -2.4642  -2.4640  -2.4628  -2.4584  -2.4570
    -2.4314  -2.4170

          k =-0.5000-0.8660 0.0000 (386352 PWs)   bands (ev):

  -101.7785 -70.1072 -70.1072 -70.1060 -70.0950 -70.0950 -70.0521 -70.0468
   -66.6921 -66.6921 -66.6920 -66.6920 -66.6908 -66.6907 -66.6859 -66.6815
   -66.6815 -66.6814 -66.6813 -66.6801 -66.6801 -66.6793 -66.6747 -66.6671
   -66.6664 -66.6664 -66.6664 -66.6664 -66.6663 -66.6662 -66.6662 -66.6662
   -66.6650 -66.6650 -66.6650 -66.6650 -66.6619 -66.6619 -66.6619 -66.6618
   -66.6618 -66.6605 -66.6605 -66.6587 -66.6561 -66.6557 -66.6557 -66.6556
   -66.6556 -66.6556 -66.6556 -66.6555 -66.6554 -66.6543 -66.6543 -66.6542
   -66.6542 -66.6534 -66.6512 -66.6512 -66.6511 -66.6511 -66.6498 -66.6498
   -66.6480 -66.6472 -66.6450 -66.6297 -66.6297 -66.6173 -66.6168 -66.6162
   -56.0668 -56.0017 -56.0016 -40.9941 -40.9941 -40.9941 -40.9941 -40.9941
   -40.9941 -40.9940 -40.9940 -40.9934 -40.9934 -40.9934 -40.9934 -40.9852
   -40.9827 -40.9785 -40.9682 -40.9673 -40.9673 -40.9673 -40.9672 -40.9665
   -40.9665 -40.9583 -40.9553 -40.9553 -40.9552 -40.9551 -40.9545 -40.9545
   -40.9488 -40.9407 -40.9340 -40.9046 -40.9046 -40.9046 -40.9046 -40.9045
   -40.9045 -40.9044 -40.9044 -40.9037 -40.9037 -40.9037 -40.9037 -40.8903
   -40.8897 -40.8878 -40.8839 -40.8458 -40.8458 -40.8457 -40.8457 -40.8451
   -40.8451 -40.8385 -40.8363 -40.8363 -40.8362 -40.8362 -40.8353 -40.8353
   -40.8324 -40.8250 -40.8250 -40.8248 -40.8248 -40.8242 -40.8242 -40.8219
   -40.8182 -40.8161 -40.8100 -40.7954 -40.7953 -40.7953 -40.7953 -40.7953
   -40.7952 -40.7952 -40.7952 -40.7946 -40.7946 -40.7946 -40.7946 -40.7890
   -40.7869 -40.7866 -40.7866 -40.7865 -40.7865 -40.7859 -40.7858 -40.7821
   -40.7818 -40.7771 -40.7748 -40.7748 -40.7747 -40.7747 -40.7743 -40.7743
   -40.7743 -40.7743 -40.7742 -40.7742 -40.7742 -40.7741 -40.7738 -40.7738
   -40.7735 -40.7735 -40.7735 -40.7735 -40.7700 -40.7690 -40.7656 -40.7656
   -40.7655 -40.7655 -40.7648 -40.7648 -40.7611 -40.7607 -40.7583 -40.7583
   -40.7477 -40.7458 -40.7456 -40.7439 -40.7439 -40.7439 -40.7438 -40.7438
   -40.7438 -40.7437 -40.7437 -40.7429 -40.7429 -40.7428 -40.7428 -40.7355
   -40.7309 -40.7296 -40.7168 -40.7091 -40.7091 -40.7091 -40.7091 -40.7090
   -40.7090 -40.7090 -40.7090 -40.7081 -40.7081 -40.7081 -40.7081 -40.6970
   -40.6970 -40.6969 -40.6968 -40.6963 -40.6959 -40.6959 -40.6948 -40.6886
   -40.6864 -40.6831 -40.6777 -40.6776 -40.6776 -40.6775 -40.6766 -40.6766
   -40.6722 -40.6659 -40.6607 -40.6607 -40.6606 -40.6605 -40.6596 -40.6596
   -40.6544 -40.6420 -40.6354 -40.6300 -40.6300 -40.6299 -40.6298 -40.6289
   -40.6289 -40.6168 -40.6043 -19.9793 -19.9548 -19.9224 -19.8836 -19.8256
   -19.7904 -19.7255 -19.7116 -19.5249 -19.5196 -19.4723 -19.4579 -19.3873
   -19.3720 -19.2968 -19.2906 -18.9229 -18.8555 -18.8204 -18.8172 -18.8143
   -18.8015 -18.7914 -18.7849 -18.7789 -18.7463 -18.7364 -18.7221 -18.7093
   -18.6965 -18.6857 -18.6709 -18.6435 -18.6397 -18.6281 -18.6184 -18.6177
   -18.6057 -18.5852 -18.5729 -18.5534 -18.5497 -18.5291 -18.5288 -18.5239
   -18.5032 -18.4783 -18.4754 -18.4641 -18.4414 -18.4205 -18.4108 -18.3993
   -18.3812 -18.3440 -18.3237 -18.3115 -18.3073 -18.2974 -18.2887 -18.2570
   -18.2499 -18.2232 -18.2007 -18.1870 -18.1821 -18.1780 -18.1746 -18.1740
   -18.1739 -18.1689 -18.1568 -18.1435 -18.1433 -18.1405 -18.1368 -18.1352
   -18.1202 -18.1131 -18.1126 -18.1070 -18.1027 -18.0996 -18.0995 -18.0797
   -18.0758 -18.0722 -18.0682 -18.0656 -18.0634 -18.0558 -18.0556 -18.0506
   -18.0428 -18.0101 -18.0088 -18.0046 -17.9964 -17.9850 -17.9848 -17.9589
   -17.9542 -17.9398 -17.9397 -17.9175 -17.9163 -17.9059 -17.9058 -17.8930
   -17.8921 -17.8916 -17.8913 -17.8876 -17.8876 -17.8816 -17.8793 -17.8688
   -17.8616 -17.8513 -17.8399 -17.8304 -17.8244 -17.8111 -17.8072 -17.7979
   -17.7952 -17.7919 -17.7913 -11.9418 -11.7870 -11.7683 -11.5915 -11.5875
   -11.5858 -11.5842 -11.5571 -11.5537 -11.5466 -11.5454 -11.5206 -11.5061
   -11.5033 -11.4920 -11.4611 -11.4497 -11.4241 -11.4087 -11.4024 -11.3937
   -11.3896 -11.3829 -11.3457 -11.3413 -11.3368 -11.3356 -11.3348 -11.3273
   -11.3255 -11.3089 -11.2999 -11.2849 -11.2611 -11.2543 -11.2528 -11.2519
   -11.2419 -11.2401 -11.2394 -11.2354 -11.2166 -11.2109 -11.2095 -11.1921
   -11.1781 -11.1341 -11.1327 -11.1268 -11.1229 -11.0527 -11.0414 -11.0157
   -10.9996 -10.9970 -10.9762 -10.9675 -10.9565 -10.9375 -10.9265 -10.9255
   -10.9061 -10.8976 -10.8859 -10.8853 -10.8848 -10.8837 -10.8790 -10.8786
   -10.8692 -10.8667 -10.8659 -10.8619 -10.8610 -10.8610 -10.8606 -10.8594
   -10.8594 -10.8519 -10.8414 -10.8326 -10.8237 -10.8156 -10.8149 -10.8120
   -10.8066 -10.6261 -10.6052 -10.6023 -10.5987 -10.5829 -10.5422 -10.5138
   -10.4434 -10.4122 -10.3952 -10.3116 -10.2850 -10.2171 -10.2133 -10.2079
   -10.2037 -10.1668 -10.1601 -10.1535 -10.1516 -10.1222 -10.1218 -10.1197
   -10.0962 -10.0946 -10.0815 -10.0778 -10.0778 -10.0733 -10.0417 -10.0024
    -9.9901  -9.9899  -9.9888  -9.9702  -9.9689  -9.9671  -9.9660  -9.9505
    -9.9271  -9.9109  -9.9038  -9.8825  -9.8559  -9.8516  -9.8425  -9.8289
    -9.8256  -9.8136  -9.7997  -9.7808  -9.7799  -9.7576  -9.7441  -9.7401
    -9.7240  -9.7110  -9.7034  -9.6812  -9.6724  -9.6655  -9.6398  -9.6253
    -9.6109  -9.6086  -9.6044  -9.6038  -9.6030  -9.5840  -9.5811  -9.5588
    -9.5584  -9.5395  -9.5364  -9.5351  -9.5312  -9.5270  -9.5226  -9.4995
    -9.4970  -9.4943  -9.4860  -9.4319  -9.4157  -9.3476  -9.3330  -9.3187
    -9.3029  -9.2820  -9.2800  -9.2640  -9.2501  -9.2463  -9.2428  -9.2264
    -9.2261  -9.1860  -9.1836  -9.1809  -9.1525  -9.1488  -9.1282  -9.1169
    -9.1104  -9.0972  -9.0968  -9.0920  -9.0866  -9.0843  -9.0780  -9.0359
    -9.0264  -9.0239  -9.0197  -9.0131  -9.0011  -8.9959  -8.9920  -8.9648
    -8.9612  -8.9555  -8.9547  -8.9525  -8.9444  -8.9430  -8.9422  -8.9372
    -8.9362  -8.9318  -8.9314  -8.9182  -8.9147  -8.9122  -8.9090  -8.9020
    -8.9012  -8.8994  -8.8887  -8.8724  -8.8703  -8.8595  -8.8535  -8.8530
    -8.8526  -8.8503  -8.8466  -8.8310  -8.8196  -8.8048  -8.8003  -8.7930
    -8.7915  -8.7708  -8.7631  -8.7193  -8.7164  -8.6848  -8.6432  -8.5971
    -8.5884  -8.5653  -8.5598  -8.4998  -8.4988  -8.4242  -8.4202  -8.3568
    -8.3302  -8.3108  -8.3073  -8.2008  -8.2006  -8.1928  -8.1918  -8.1818
    -8.1805  -8.1724  -8.1544  -8.1411  -8.1319  -8.0421  -8.0418  -8.0021
    -7.9935  -7.9557  -7.9519  -7.9247  -7.9123  -7.9101  -7.8996  -7.8976
    -7.8911  -7.8839  -7.8788  -7.8784  -7.8707  -7.8634  -7.8610  -7.8606
    -7.8591  -7.8561  -7.8552  -7.8494  -7.8459  -7.8448  -7.8432  -7.8414
    -7.8408  -7.8395  -7.8353  -7.8349  -7.8304  -7.8295  -7.8221  -7.8190
    -7.8179  -7.8081  -7.8021  -7.7950  -7.7900  -7.7846  -7.7729  -7.7705
    -7.7654  -7.7652  -7.7625  -7.7585  -7.7529  -7.7384  -7.7383  -7.7348
    -7.7335  -7.7179  -7.7134  -7.6876  -7.6838  -7.6784  -7.6742  -7.6682
    -7.6660  -7.6648  -7.6645  -7.6643  -7.6539  -7.6468  -7.6357  -7.6328
    -7.6312  -7.6246  -7.6210  -7.6072  -7.6037  -7.5309  -7.5308  -7.5233
    -7.5185  -7.5091  -7.4854  -7.3630  -7.3262  -7.3147  -7.2545  -7.2404
    -7.2387  -7.2385  -7.2286  -7.1902  -7.1836  -7.1799  -7.1734  -7.1705
    -7.1687  -7.1143  -7.1025  -7.1000  -7.0947  -7.0901  -7.0834  -7.0687
    -7.0576  -7.0352  -7.0174  -7.0118  -6.9822  -6.9782  -6.9672  -6.9598
    -6.9516  -6.9306  -6.9293  -6.9250  -6.9128  -6.9043  -6.8826  -6.8488
    -6.8296  -6.8035  -6.7870  -6.7587  -6.7420  -6.7058  -6.6992  -6.6937
    -6.6915  -6.6898  -6.6822  -6.6753  -6.6752  -6.6744  -6.6663  -6.6589
[...]
     atom  161 type  2   force =    -0.00000000    0.00000002    0.00441520
     atom  162 type  2   force =     0.00000005   -0.00000011    0.00009786
     atom  163 type  1   force =     0.00000446   -0.00000356   -0.00000809
     atom  164 type  1   force =    -0.00000009    0.00000933   -0.00250849
     atom  165 type  2   force =    -0.00000449   -0.00000618   -0.00013988
     atom  166 type  2   force =    -0.00000005   -0.00000520    0.00004379
     atom  167 type  2   force =    -0.00000002    0.00000018   -0.00009551
     atom  168 type  2   force =    -0.00033609    0.00006144   -0.00430401
     atom  169 type  1   force =    -0.00000004   -0.00000002    0.00255980
     atom  170 type  1   force =    -0.00000002   -0.00000006    0.00001517
     atom  171 type  2   force =    -0.00000004   -0.00000001   -0.00003302
     atom  172 type  2   force =     0.00000000   -0.00000000    0.00017157
     atom  173 type  2   force =    -0.00000000   -0.00000001    0.00441518
     atom  174 type  2   force =    -0.00000001   -0.00000000    0.00009780
     atom  175 type  1   force =     0.00000340    0.00000188   -0.00001665
     atom  176 type  1   force =    -0.00022257   -0.00004569   -0.00237717
     atom  177 type  2   force =    -0.00004570   -0.00002645   -0.00006466
     atom  178 type  2   force =     0.00000742   -0.00000147    0.00003670
     atom  179 type  2   force =     0.00000040   -0.00000009   -0.00009719
     atom  180 type  2   force =    -0.00048116   -0.00027782   -0.00418232
     atom  181 type  1   force =    -0.00000001    0.00000000    0.00255979
     atom  182 type  1   force =    -0.00000010    0.00000004    0.00001516
     atom  183 type  2   force =    -0.00000003   -0.00000001   -0.00003303
     atom  184 type  2   force =    -0.00000001    0.00000001    0.00017158
     atom  185 type  2   force =    -0.00000001    0.00000001    0.00441518
     atom  186 type  2   force =    -0.00000008    0.00000009    0.00009782
     atom  187 type  1   force =    -0.00000085    0.00000563   -0.00000817
     atom  188 type  1   force =    -0.00015076   -0.00016996   -0.00237714
     atom  189 type  2   force =    -0.00000758   -0.00000079   -0.00013990
     atom  190 type  2   force =     0.00000250    0.00000711    0.00003670
     atom  191 type  2   force =     0.00000012    0.00000038   -0.00009722
     atom  192 type  2   force =    -0.00011483   -0.00032178   -0.00430395
     atom  193 type  3   force =     0.00000000   -0.00000004   -0.00659383

     Total force =     0.003780     Total SCF correction =     0.000775
     SCF correction compared to forces is large: reduce conv_thr to get better values
     Energy error            =      6.5E-05 Ry
     Gradient error          =      9.4E-04 Ry/Bohr

     bfgs converged in  10 scf cycles and   9 bfgs steps
     (criteria: energy <  1.0E-04 Ry, force <  1.0E-03 Ry/Bohr)

     End of BFGS Geometry Optimization

     Final energy             =  -33468.2922008947 Ry

     File ./outdir/pwscf.bfgs deleted, as requested
Begin final coordinates

ATOMIC_POSITIONS (angstrom)
Mo            0.0000119917        1.8193638619       -9.1672481230    0   0   0
Mo            1.5756136568        0.9097075315       -3.0554901653    0   0   0
S             0.0000188998        1.8193822938       -4.6232556019    0   0   0
S             1.5756321638        0.9096773839       -7.6014065489    0   0   0
S             1.5756326175        0.9096785128      -10.7330757790    0   0   0
S             0.0000189190        1.8193860094       -1.4877129945    0   0   0
Mo           -0.0000313815        1.8193922586        3.0554241107
Mo            1.5771659027        0.9107151432        9.1688239419
S            -0.0012208243        1.8143244835        7.5943820949
S             1.5754991165        0.9096300353        4.6231194230
S             1.5757674963        0.9097475068        1.4878801665
S            -0.0021019357        1.8149488914       10.7352480070
Mo           -1.5756053507        4.5484193819       -9.1672481230    0   0   0
Mo            0.0000378379        3.6387394919       -3.0554952701    0   0   0
S            -1.5755913433        4.5484363582       -4.6232494962    0   0   0
S             0.0000148214        3.6387329039       -7.6014065489    0   0   0
S             0.0000152751        3.6387340328      -10.7330757790    0   0   0
S            -1.5755906502        4.5484413613       -1.4877305502    0   0   0
Mo           -1.5756133438        4.5483803092        3.0554495081
Mo           -0.0198069067        3.6272944823        9.1603540656
S            -1.5806068054        4.5498710508        7.5943856079
S             0.0000521132        3.6387576091        4.6231398622
S             0.0000414584        3.6387703864        1.4876914430
S            -1.5805029577        4.5487986254       10.7352506088
Mo           -3.1512226931        7.2774749019       -9.1672481230    0   0   0
Mo           -1.5755910988        6.3678216792       -3.0555115988    0   0   0
S            -3.1512162438        7.2774954350       -4.6232578178    0   0   0
S            -1.5756025210        6.3677884239       -7.6014065489    0   0   0
S            -1.5756020673        6.3677895528      -10.7330757790    0   0   0
S            -3.1512127704        7.2774877076       -1.4877200710    0   0   0
Mo           -3.1511847417        7.2775065201        3.0554850566
Mo           -1.5739657335        6.3685963839        9.1688252832
S            -3.1512041554        7.2770088624        7.6015265745
S            -1.5757049835        6.3676948679        4.6231583007
S            -1.5754721250        6.3678379196        1.4878509389
S            -3.1512061509        7.2781508897       10.7375046846
Mo           -4.7268400355       10.0065304219       -9.1672481230    0   0   0
Mo           -3.1512405618        9.0968403586       -3.0554816746    0   0   0
S            -4.7268341792       10.0065523623       -4.6232463762    0   0   0
S            -3.1512198634        9.0968439439       -7.6014065489    0   0   0
S            -3.1512194097        9.0968450728      -10.7330757790    0   0   0
S            -4.7268370797       10.0065537885       -1.4877176751    0   0   0
Mo           -4.7267687049       10.0064960364        3.0554915279
Mo           -3.1511828893        9.0968732384        9.1681869468
S            -4.7272218273       10.0067969386        7.6015253244
S            -3.1511886101        9.0968299035        4.6233646433
S            -3.1511921913        9.0968350305        1.4877313626
S            -4.7262255774       10.0062258358       10.7375063692
Mo            3.1512517547        1.8193638619       -9.1672481230    0   0   0
Mo            4.7269020221        0.9097289540       -3.0554823951    0   0   0
S             3.1512612351        1.8193882564       -4.6232320683    0   0   0
S             4.7268719268        0.9096773839       -7.6014065489    0   0   0
S             4.7268723805        0.9096785128      -10.7330757790    0   0   0
S             3.1512592485        1.8193890201       -1.4877261251    0   0   0
Mo            3.1512940180        1.8195318785        3.0558223180
Mo            4.7254273218        0.9107273496        9.1688231796
S             3.1513022598        1.8204383981        7.6008802794
S             4.7270736497        0.9096298660        4.6231224518
S             4.7268040665        0.9097521779        1.4878760487
S             3.1513052251        1.8204151337       10.7419552990
Mo            1.5756344123        4.5484193819       -9.1672481230    0   0   0
Mo            3.1512756394        3.6387769522       -3.0554814834    0   0   0
S             1.5756504879        4.5484423799       -4.6232390542    0   0   0
S             3.1512545844        3.6387329039       -7.6014065489    0   0   0
S             3.1512550381        3.6387340328      -10.7330757790    0   0   0
S             1.5756466253        4.5484431864       -1.4877251801    0   0   0
Mo            1.5756715710        4.5484384751        3.0555872580
Mo            3.1513146906        3.6330443028        9.1736136670
S             1.5703622528        4.5453638860        7.6147090923
S             3.1512986597        3.6391585422        4.6238028838
S             3.1513084790        3.6386899659        1.4879771506
S             1.5588598936        4.5387260578       10.7650938947
Mo            0.0000170699        7.2774749019       -9.1672481230    0   0   0
Mo            1.5756764447        6.3678236689       -3.0554877708    0   0   0
S             0.0000381981        7.2774979204       -4.6232454413    0   0   0
S             1.5756372420        6.3677884239       -7.6014065489    0   0   0
S             1.5756376957        6.3677895528      -10.7330757790    0   0   0
S             0.0000328088        7.2774946042       -1.4877307940    0   0   0
Mo            0.0001736007        7.2773919621        3.0558136140
Mo            1.5707269344        6.3706685280        9.1736134895
S             0.0009487990        7.2769834310        7.6008965855
S             1.5760256766        6.3676011579        4.6237979997
S             1.5756223052        6.3678331111        1.4879568229
S             0.0009238937        7.2769975327       10.7419440599
Mo           -1.5756002725       10.0065304219       -9.1672481230    0   0   0
Mo            0.0000873425        9.0968676911       -3.0554912329    0   0   0
S            -1.5755883952       10.0065504530       -4.6232240150    0   0   0
S             0.0000198996        9.0968439439       -7.6014065489    0   0   0
S             0.0000203533        9.0968450728      -10.7330757790    0   0   0
S            -1.5755859047       10.0065492576       -1.4877362381    0   0   0
Mo           -1.5756139058       10.0065085168        3.0554865089
Mo            0.0001745944        9.0950919288        9.1688247869
S            -1.5751448749       10.0068174635        7.6015197383
S             0.0000689978        9.0970074726        4.6231241446
S             0.0000510125        9.0967284557        1.4878820440
S            -1.5761376415       10.0062490710       10.7375079635
Mo            6.3024915177        1.8193638619       -9.1672481230    0   0   0
Mo            7.8781001445        0.9096521684       -3.0554919963    0   0   0
S             6.3025008696        1.8193826232       -4.6232480596    0   0   0
S             7.8781116898        0.9096773839       -7.6014065489    0   0   0
S             7.8781121435        0.9096785128      -10.7330757790    0   0   0
S             6.3025042007        1.8193849068       -1.4877147524    0   0   0
Mo            6.3025928367        1.8193876003        3.0554271778
Mo            7.8757496983        0.9083425634        9.1649349879
S             6.3037945143        1.8143399104        7.5943624859
S             7.8783627652        0.9098292384        4.6230245882
S             7.8781089717        0.9096698607        1.4876264195
S             6.3046745333        1.8149763910       10.7352634956
Mo            4.7268741753        4.5484193819       -9.1672481230    0   0   0
Mo            6.3024679138        3.6387501714       -3.0554895197    0   0   0
S             4.7268748770        4.5484386753       -4.6232519432    0   0   0
S             6.3024943474        3.6387329039       -7.6014065489    0   0   0
S             6.3024948011        3.6387340328      -10.7330757790    0   0   0
S             4.7268770533        4.5484432419       -1.4877137856    0   0   0
Mo            4.7269232162        4.5484563079        3.0556032748
Mo            6.3223805857        3.6272995941        9.1603445067
S             4.7322543968        4.5453642232        7.6146823032
S             6.3025190412        3.6387465854        4.6231580241
S             6.3025218708        3.6387681649        1.4876919199
S             4.7437513448        4.5387381464       10.7651252471
Mo            3.1512568329        7.2774749019       -9.1672481230    0   0   0
Mo            4.7268384135        6.3678043337       -3.0554959052    0   0   0
S             3.1512606125        7.2774972547       -4.6232589675    0   0   0
S             4.7268770050        6.3677884239       -7.6014065489    0   0   0
S             4.7268774587        6.3677895528      -10.7330757790    0   0   0
S             3.1512629079        7.2774963749       -1.4877081835    0   0   0
Mo            3.1513200420        7.2774551260        3.0555878428
Mo            4.7318774879        6.3706519880        9.1736163915
S             3.1513107763        7.2836321272        7.6147062457
S             4.7265751679        6.3675977603        4.6238494359
S             4.7269803676        6.3678180356        1.4879179958
S             3.1513168831        7.2968815809       10.7651201934
Mo            1.5756394905       10.0065304219       -9.1672481230    0   0   0
Mo            3.1512330605        9.0968514907       -3.0554878870    0   0   0
S             1.5756499830       10.0065443759       -4.6232632674    0   0   0
S             3.1512596626        9.0968439439       -7.6014065489    0   0   0
S             3.1512601163        9.0968450728      -10.7330757790    0   0   0
S             1.5756503041       10.0065459699       -1.4877044377    0   0   0
Mo            1.5757038937       10.0065946682        3.0554403888
Mo            3.1512975849        9.1197776435        9.1603650414
S             1.5719288623       10.0101953368        7.5943881616
S             3.1512979523        9.0968301845        4.6231332339
S             3.1513000145        9.0968371029        1.4877094955
S             1.5729047008       10.0106459737       10.7352522694
Mo            9.4537312807        1.8193638619       -9.1672481230    0   0   0
Mo           11.0293863460        0.9096952246       -3.0554894007    0   0   0
S             9.4537395970        1.8193770750       -4.6232328036    0   0   0
S            11.0293514528        0.9096773839       -7.6014065489    0   0   0
S            11.0293519066        0.9096785128      -10.7330757790    0   0   0
S             9.4537393632        1.8193794783       -1.4877366147    0   0   0
Mo            9.4537392455        1.8193770203        3.0552239271
Mo           11.0317607359        0.9083287373        9.1649356251
S             9.4537507697        1.8193964907        7.5988830149
S            11.0291351391        0.9098343204        4.6230007490
S            11.0293853218        0.9096720382        1.4876536663
S             9.4537464106        1.8193960666       10.7318405434
Mo            7.8781139383        4.5484193819       -9.1672481230    0   0   0
Mo            9.4537539161        3.6387607911       -3.0554933032    0   0   0
S             7.8781175448        4.5484378232       -4.6232366318    0   0   0
S             9.4537341104        3.6387329039       -7.6014065489    0   0   0
S             9.4537345641        3.6387340328      -10.7330757790    0   0   0
S             7.8781194018        4.5484411585       -1.4877377057    0   0   0
Mo            7.8781722150        4.5483650203        3.0554540253
Mo            9.4537446288        3.6415156960        9.1649367751
S             7.8831536550        4.5498713731        7.5943627899
S             9.4537566188        3.6384671260        4.6230309425
S             9.4537528095        3.6387810436        1.4876529933
S             7.8830378821        4.5487943157       10.7352685344
Mo            6.3024965959        7.2774749019       -9.1672481230    0   0   0
Mo            7.8781361655        6.3678242352       -3.0555014130    0   0   0
S             6.3024973331        7.2774953556       -4.6232392528    0   0   0
S             7.8781167680        6.3677884239       -7.6014065489    0   0   0
S             7.8781172217        6.3677895528      -10.7330757790    0   0   0
S             6.3024989866        7.2774929744       -1.4877349119    0   0   0
Mo            6.3023843751        7.2773852147        3.0558166024
Mo            7.8765251980        6.3685816016        9.1688258354
S             6.3016362656        7.2769648072        7.6008798968
S             7.8782713396        6.3676915199        4.6231329119
S             7.8780337220        6.3678325613        1.4878808212
S             6.3016568362        7.2769759056       10.7419609088
Mo            4.7268792535       10.0065304219       -9.1672481230    0   0   0
Mo            6.3025111524        9.0968738021       -3.0554915260    0   0   0
S             4.7268840634       10.0065452125       -4.6232380477    0   0   0
S             6.3024994256        9.0968439439       -7.6014065489    0   0   0
S             6.3024998793        9.0968450728      -10.7330757790    0   0   0
S             4.7268847312       10.0065459141       -1.4877283294    0   0   0
Mo            4.7268877059       10.0065867027        3.0554443943
Mo            6.3024130393        9.0950664033        9.1688259208
S             4.7306633477       10.0101773155        7.5943860636
S             6.3025114002        9.0969919478        4.6231373428
S             6.3025271971        9.0967140056        1.4878764884
S             4.7296848755       10.0106254073       10.7352537474
Pt            3.1511718595        5.4580735481       12.2092014962
End final coordinates



     Writing all to output data dir ./outdir/pwscf.save/
 
     init_run     :    193.32s CPU    197.61s WALL (       1 calls)
     electrons    :  99091.98s CPU 100274.32s WALL (      10 calls)
     update_pot   :     50.15s CPU     50.91s WALL (       9 calls)
     forces       :   1309.38s CPU   1346.08s WALL (      10 calls)
     force_dftd3  :      7.58s CPU      8.09s WALL (      10 calls)

     Called by init_run:
     wfcinit      :    164.50s CPU    166.59s WALL (       1 calls)
     potinit      :      4.00s CPU      4.08s WALL (       1 calls)
     hinit0       :     16.05s CPU     16.07s WALL (       1 calls)

     Called by electrons:
     c_bands      :  88548.98s CPU  89111.79s WALL (     142 calls)
     sum_band     :   9656.17s CPU   9993.11s WALL (     142 calls)
     v_of_rho     :     71.02s CPU     72.76s WALL (     144 calls)
     newd         :    686.50s CPU    983.62s WALL (     144 calls)
     PAW_pot      :    117.71s CPU    117.71s WALL (     153 calls)
     mix_rho      :     20.46s CPU     20.54s WALL (     142 calls)
     energy_dftd3 :      3.67s CPU      3.67s WALL (      10 calls)

     Called by c_bands:
     init_us_2    :    350.06s CPU    350.39s WALL (    1216 calls)
     init_us_2:cp :    350.06s CPU    350.39s WALL (    1216 calls)
     cegterg      :  87345.44s CPU  87888.44s WALL (     584 calls)

     Called by *egterg:
     cdiaghg      :   5541.34s CPU   5559.13s WALL (    7630 calls)
     h_psi        :  46260.82s CPU  46426.94s WALL (    7702 calls)
     s_psi        :   9920.81s CPU   9956.97s WALL (    7702 calls)
     g_psi        :     83.82s CPU     83.76s WALL (    7114 calls)

     Called by h_psi:
     h_psi:calbec :   9681.95s CPU   9683.68s WALL (    7702 calls)
     vloc_psi     :  26508.14s CPU  26558.87s WALL (    7702 calls)
     add_vuspsi   :   9972.94s CPU  10010.87s WALL (    7702 calls)

     General routines
     calbec       :  13549.39s CPU  13551.79s WALL (    8466 calls)
     fft          :     87.07s CPU     88.92s WALL (    1979 calls)
     ffts         :      3.67s CPU      3.69s WALL (     286 calls)
     fftw         :  21699.45s CPU  21738.47s WALL ( 4203706 calls)
     interpolate  :      7.44s CPU      7.53s WALL (     144 calls)
 
     Parallel routines
 
     PWSCF        :   1d 4h 3m CPU   1d 4h25m WALL

 
   This run was terminated on:  16:46:50  16Dec2023            

=------------------------------------------------------------------------------=
   JOB DONE.
=------------------------------------------------------------------------------=
Application 11497453 resources: utime ~3637937s, stime ~45165s, Rss ~3554584, inblocks ~0, outblocks ~53737960
