
     Program PWSCF v.7.3 starts on 29Apr2024 at 15:21: 0 

     This program is part of the open-source Quantum ESPRESSO suite
     for quantum simulation of materials; please cite
         "P. Giannozzi et al., J. Phys.:Condens. Matter 21 395502 (2009);
         "P. Giannozzi et al., J. Phys.:Condens. Matter 29 465901 (2017);
         "P. Giannozzi et al., J. Chem. Phys. 152 154105 (2020);
          URL http://www.quantum-espresso.org", 
     in publications or presentations arising from this work. More details at
     http://www.quantum-espresso.org/quote

     Parallel version (MPI & OpenMP), running on      36 processor cores
     Number of MPI processes:                36
     Threads/MPI process:                     1

     MPI processes distributed on     1 nodes
     554706 MiB available memory on the printing compute node when the environment starts
 
     Waiting for input...
     Reading input from standard input
Warning: card &CELL ignored
Warning: card / ignored

     Current dimensions of program PWSCF are:
     Max number of different atomic species (ntypx) = 10
     Max number of k-points (npk) =  40000
     Max angular momentum in pseudopotentials (lmaxx) =  4
     file Mo.pbe-spn-kjpaw_psl.1.0.0.UPF: wavefunction(s)  4S 4D renormalized
     file S.pbe-n-kjpaw_psl.1.0.0.UPF: wavefunction(s)  3S 3P renormalized
     file Pt.pbe-spfn-kjpaw_psl.1.0.0.UPF: wavefunction(s)  5P 4F renormalized
     file Pd.pbe-spn-kjpaw_psl.1.0.0.UPF: wavefunction(s)  4S 5S 4D renormalized
 
     R & G space division:  proc/nbgrp/npool/nimage =      36
     Subspace diagonalization in iterative solution of the eigenvalue problem:
     one sub-group per band group will be used
     scalapack distributed-memory algorithm (size of sub-group:  6*  6 procs)

 
     Parallelization info
     --------------------
     sticks:   dense  smooth     PW     G-vecs:    dense   smooth      PW
     Min         585     334     89               198743    85850   11735
     Max         586     335     90               198750    85861   11748
     Sum       21073   12049   3205              7154885  3090769  422587
 
     Using Slab Decomposition
 


     bravais-lattice index     =            0
     lattice parameter (alat)  =      23.8199  a.u.
     unit-cell volume          =   33861.0370 (a.u.)^3
     number of atoms/cell      =          195
     number of atomic types    =            4
     number of electrons       =      1732.00
     number of Kohn-Sham states=         1039
     kinetic-energy cutoff     =      77.0000  Ry
     charge density cutoff     =     539.0000  Ry
     scf convergence threshold =      1.0E-06
     mixing beta               =       0.2000
     number of iterations used =            8  plain     mixing
     energy convergence thresh.=      1.0E-04
     force convergence thresh. =      1.0E-03
     Exchange-correlation= SLA  PW   PBX  PBC
                           (   1   4   3   4   0   0   0)
     nstep                     =         1000


     Effective Screening Medium Method
     =================================
     Boundary Conditions: Vacuum-Slab-Vacuum
     total charge in unit cell        =   0.0000
     grid points for fit at edges     =        4 
 

     celldm(1)=  23.819920  celldm(2)=   0.000000  celldm(3)=   0.000000
     celldm(4)=   0.000000  celldm(5)=   0.000000  celldm(6)=   0.000000

     crystal axes: (cart. coord. in units of alat)
               a(1) = (   1.000000   0.000000   0.000000 )  
               a(2) = (  -0.499999   0.866026   0.000000 )  
               a(3) = (   0.000000   0.000000   2.893000 )  

     reciprocal axes: (cart. coord. in units 2 pi/alat)
               b(1) = (  1.000000  0.577349  0.000000 )  
               b(2) = (  0.000000  1.154700  0.000000 )  
               b(3) = (  0.000000  0.000000  0.345662 )  


     PseudoPot. # 1 for Mo read from file:
     ./pseudo/Mo.pbe-spn-kjpaw_psl.1.0.0.UPF
     MD5 check sum: 317bf72632116215fd98f72de1686f13
     Pseudo is Projector augmented-wave + core cor, Zval = 14.0
     Generated using 'atomic' code by A. Dal Corso  v.7.2
     Shape of augmentation charge: PSQ
     Using radial grid of 1229 points,  6 beta functions with: 
                l(1) =   0
                l(2) =   0
                l(3) =   1
                l(4) =   1
                l(5) =   2
                l(6) =   2
     Q(r) pseudized with 0 coefficients 


     PseudoPot. # 2 for S  read from file:
     ./pseudo/S.pbe-n-kjpaw_psl.1.0.0.UPF
     MD5 check sum: 8b7b5302570d38d5e87fed6a1065abda
     Pseudo is Projector augmented-wave + core cor, Zval =  6.0
     Generated using 'atomic' code by A. Dal Corso  v.7.2
     Shape of augmentation charge: PSQ
     Using radial grid of 1151 points,  6 beta functions with: 
                l(1) =   0
                l(2) =   0
                l(3) =   1
                l(4) =   1
                l(5) =   2
                l(6) =   2
     Q(r) pseudized with 0 coefficients 


     PseudoPot. # 3 for Pt read from file:
     ./pseudo/Pt.pbe-spfn-kjpaw_psl.1.0.0.UPF
     MD5 check sum: 620096ebf4e6ebacc94de60fd67efcb5
     Pseudo is Projector augmented-wave + core cor, Zval = 32.0
     Generated using 'atomic' code by A. Dal Corso  v.7.2
     Shape of augmentation charge: PSQ
     Using radial grid of 1277 points,  8 beta functions with: 
                l(1) =   0
                l(2) =   0
                l(3) =   1
                l(4) =   1
                l(5) =   2
                l(6) =   2
                l(7) =   3
                l(8) =   3
     Q(r) pseudized with 0 coefficients 


     PseudoPot. # 4 for Pd read from file:
     ./pseudo/Pd.pbe-spn-kjpaw_psl.1.0.0.UPF
     MD5 check sum: a60571a671f2502b8a6a4569d20a6edb
     Pseudo is Projector augmented-wave + core cor, Zval = 18.0
     Generated using 'atomic' code by A. Dal Corso  v.7.2
     Shape of augmentation charge: PSQ
     Using radial grid of 1235 points,  6 beta functions with: 
                l(1) =   0
                l(2) =   0
                l(3) =   1
                l(4) =   1
                l(5) =   2
                l(6) =   2
     Q(r) pseudized with 0 coefficients 


     atomic species   valence    mass     pseudopotential
     Mo               14.00    95.95000     Mo( 1.00)
     S                 6.00    32.06000     S ( 1.00)
     Pt               32.00   195.08400     Pt( 1.00)
     Pd               18.00   106.42000     Pd( 1.00)

     No symmetry found



   Cartesian axes

     site n.     atom                  positions (alat units)
         1        Mo     tau(   1) = (   0.0000010   0.1443372  -0.7272732  )
         2        Mo     tau(   2) = (   0.1249995   0.0721706  -0.2424038  )
         3        S      tau(   3) = (   0.0000015   0.1443386  -0.3667807  )
         4        S      tau(   4) = (   0.1250010   0.0721682  -0.6030489  )
         5        S      tau(   5) = (   0.1250010   0.0721683  -0.8514963  )
         6        S      tau(   6) = (   0.0000015   0.1443389  -0.1180260  )
         7        Mo     tau(   7) = (   0.0000005   0.1443381   0.2424561  )
         8        Mo     tau(   8) = (   0.1251981   0.0716023   0.7276027  )
         9        S      tau(   9) = (  -0.0003031   0.1454842   0.6052312  )
        10        S      tau(  10) = (   0.1249558   0.0721599   0.3668208  )
        11        S      tau(  11) = (   0.1250088   0.0721517   0.1180857  )
        12        S      tau(  12) = (  -0.0004157   0.1382876   0.8564685  )
        13        Mo     tau(  13) = (  -0.1249989   0.3608437  -0.7272732  )
        14        Mo     tau(  14) = (   0.0000030   0.2886752  -0.2424042  )
        15        S      tau(  15) = (  -0.1249977   0.3608450  -0.3667802  )
        16        S      tau(  16) = (   0.0000012   0.2886747  -0.6030489  )
        17        S      tau(  17) = (   0.0000012   0.2886748  -0.8514963  )
        18        S      tau(  18) = (  -0.1249977   0.3608454  -0.1180274  )
        19        Mo     tau(  19) = (  -0.1249623   0.3608201   0.2425155  )
        20        Mo     tau(  20) = (  -0.0007801   0.2872696   0.7308518  )
        21        S      tau(  21) = (  -0.1240398   0.3604107   0.6055268  )
        22        S      tau(  22) = (   0.0000411   0.2886546   0.3669163  )
        23        S      tau(  23) = (   0.0000035   0.2886726   0.1180964  )
        24        S      tau(  24) = (  -0.1315418   0.3638985   0.8543850  )
        25        Mo     tau(  25) = (  -0.2499987   0.5773502  -0.7272732  )
        26        Mo     tau(  26) = (  -0.1249977   0.5051839  -0.2424055  )
        27        S      tau(  27) = (  -0.2499981   0.5773518  -0.3667809  )
        28        S      tau(  28) = (  -0.1249986   0.5051812  -0.6030489  )
        29        S      tau(  29) = (  -0.1249986   0.5051813  -0.8514963  )
        30        S      tau(  30) = (  -0.2499979   0.5773512  -0.1180266  )
        31        Mo     tau(  31) = (  -0.2499787   0.5773156   0.2425145  )
        32        Mo     tau(  32) = (  -0.1271807   0.5060660   0.7281741  )
        33        S      tau(  33) = (  -0.2502658   0.5775034   0.6017985  )
        34        S      tau(  34) = (  -0.1249543   0.5051367   0.3669386  )
        35        S      tau(  35) = (  -0.1249864   0.5051552   0.1181399  )
        36        S      tau(  36) = (  -0.2525628   0.5785576   0.8514793  )
        37        Mo     tau(  37) = (  -0.3749985   0.7938567  -0.7272732  )
        38        Mo     tau(  38) = (  -0.2500001   0.7216874  -0.2424031  )
        39        S      tau(  39) = (  -0.3749980   0.7938584  -0.3667800  )
        40        S      tau(  40) = (  -0.2499984   0.7216877  -0.6030489  )
        41        S      tau(  41) = (  -0.2499984   0.7216878  -0.8514963  )
        42        S      tau(  42) = (  -0.3749982   0.7938585  -0.1180264  )
        43        Mo     tau(  43) = (  -0.3750043   0.7938372   0.2424536  )
        44        Mo     tau(  44) = (  -0.2503619   0.7218808   0.7263407  )
        45        S      tau(  45) = (  -0.3755748   0.7941519   0.6023691  )
        46        S      tau(  46) = (  -0.2500067   0.7216811   0.3668312  )
        47        S      tau(  47) = (  -0.2499793   0.7216445   0.1181126  )
        48        S      tau(  48) = (  -0.3746959   0.7932047   0.8515893  )
        49        Mo     tau(  49) = (   0.2500010   0.1443372  -0.7272732  )
        50        Mo     tau(  50) = (   0.3750034   0.0721723  -0.2424032  )
        51        S      tau(  51) = (   0.2500017   0.1443391  -0.3667788  )
        52        S      tau(  52) = (   0.3750010   0.0721682  -0.6030489  )
        53        S      tau(  53) = (   0.3750010   0.0721683  -0.8514963  )
        54        S      tau(  54) = (   0.2500016   0.1443391  -0.1180271  )
        55        Mo     tau(  55) = (   0.2500033   0.1443124   0.2424881  )
        56        Mo     tau(  56) = (   0.3752595   0.0716472   0.7255395  )
        57        S      tau(  57) = (   0.2498544   0.1431280   0.6011361  )
        58        S      tau(  58) = (   0.3750516   0.0721435   0.3668117  )
        59        S      tau(  59) = (   0.3750079   0.0721203   0.1180977  )
        60        S      tau(  60) = (   0.2517312   0.1427646   0.8506906  )
        61        Mo     tau(  61) = (   0.1250012   0.3608437  -0.7272732  )
        62        Mo     tau(  62) = (   0.2500029   0.2886782  -0.2424031  )
        63        S      tau(  63) = (   0.1250024   0.3608455  -0.3667794  )
        64        S      tau(  64) = (   0.2500012   0.2886747  -0.6030489  )
        65        S      tau(  65) = (   0.2500012   0.2886748  -0.8514963  )
        66        S      tau(  66) = (   0.1250021   0.3608455  -0.1180270  )
        67        Mo     tau(  67) = (   0.1249995   0.3608273   0.2424838  )
        68        Mo     tau(  68) = (   0.2535704   0.2866116   0.7259154  )
        69        S      tau(  69) = (   0.1241106   0.3617788   0.6079553  )
        70        S      tau(  70) = (   0.2499752   0.2886689   0.3668869  )
        71        S      tau(  71) = (   0.2500098   0.2886475   0.1181123  )
        72        S      tau(  72) = (   0.1336503   0.3523048   0.8541313  )
        73        Mo     tau(  73) = (   0.0000014   0.5773502  -0.7272732  )
        74        Mo     tau(  74) = (   0.1250045   0.5051840  -0.2424036  )
        75        S      tau(  75) = (   0.0000030   0.5773520  -0.3667799  )
        76        S      tau(  76) = (   0.1250014   0.5051812  -0.6030489  )
        77        S      tau(  77) = (   0.1250014   0.5051813  -0.8514963  )
        78        S      tau(  78) = (   0.0000026   0.5773517  -0.1180274  )
        79        Mo     tau(  79) = (   0.0000276   0.5772927   0.2425177  )
        80        Mo     tau(  80) = (   0.1255270   0.5059369   0.7313762  )
        81        S      tau(  81) = (   0.0011816   0.5764663   0.6064450  )
        82        S      tau(  82) = (   0.1250222   0.5051261   0.3669341  )
        83        S      tau(  83) = (   0.1249880   0.5051467   0.1180950  )
        84        S      tau(  84) = (  -0.0088763   0.5830479   0.8565830  )
        85        Mo     tau(  85) = (  -0.1249984   0.7938567  -0.7272732  )
        86        Mo     tau(  86) = (   0.0000069   0.7216896  -0.2424039  )
        87        S      tau(  87) = (  -0.1249975   0.7938582  -0.3667782  )
        88        S      tau(  88) = (   0.0000016   0.7216877  -0.6030489  )
        89        S      tau(  89) = (   0.0000016   0.7216878  -0.8514963  )
        90        S      tau(  90) = (  -0.1249973   0.7938582  -0.1180279  )
        91        Mo     tau(  91) = (  -0.1249699   0.7938095   0.2424907  )
        92        Mo     tau(  92) = (  -0.0004895   0.7231014   0.7275053  )
        93        S      tau(  93) = (  -0.1248847   0.7932555   0.6014963  )
        94        S      tau(  94) = (   0.0000405   0.7216116   0.3668908  )
        95        S      tau(  95) = (   0.0000242   0.7216332   0.1181249  )
        96        S      tau(  96) = (  -0.1259194   0.7949777   0.8510667  )
        97        Mo     tau(  97) = (   0.5000010   0.1443372  -0.7272732  )
        98        Mo     tau(  98) = (   0.6250001   0.0721662  -0.2424040  )
        99        S      tau(  99) = (   0.5000017   0.1443386  -0.3667801  )
       100        S      tau( 100) = (   0.6250010   0.0721682  -0.6030489  )
       101        S      tau( 101) = (   0.6250010   0.0721683  -0.8514963  )
       102        S      tau( 102) = (   0.5000020   0.1443388  -0.1180261  )
       103        Mo     tau( 103) = (   0.5000355   0.1442968   0.2424343  )
       104        Mo     tau( 104) = (   0.6251054   0.0720760   0.7269638  )
       105        S      tau( 105) = (   0.5007812   0.1439212   0.6015111  )
       106        S      tau( 106) = (   0.6250309   0.0721295   0.3668346  )
       107        S      tau( 107) = (   0.6250410   0.0721183   0.1180973  )
       108        S      tau( 108) = (   0.4998652   0.1442971   0.8504179  )
       109        Mo     tau( 109) = (   0.3750012   0.3608437  -0.7272732  )
       110        Mo     tau( 110) = (   0.4999991   0.2886761  -0.2424038  )
       111        S      tau( 111) = (   0.3750012   0.3608452  -0.3667804  )
       112        S      tau( 112) = (   0.5000012   0.2886747  -0.6030489  )
       113        S      tau( 113) = (   0.5000012   0.2886748  -0.8514963  )
       114        S      tau( 114) = (   0.3750014   0.3608455  -0.1180261  )
       115        Mo     tau( 115) = (   0.3749988   0.3608207   0.2424913  )
       116        Mo     tau( 116) = (   0.5005676   0.2886014   0.7258090  )
       117        S      tau( 117) = (   0.3761076   0.3615161   0.6013079  )
       118        S      tau( 118) = (   0.5000282   0.2886169   0.3668001  )
       119        S      tau( 119) = (   0.5000158   0.2886613   0.1180928  )
       120        S      tau( 120) = (   0.3768791   0.3600665   0.8508100  )
       121        Mo     tau( 121) = (   0.2500014   0.5773502  -0.7272732  )
       122        Mo     tau( 122) = (   0.3749983   0.5051825  -0.2424043  )
       123        S      tau( 123) = (   0.2500017   0.5773519  -0.3667810  )
       124        S      tau( 124) = (   0.3750014   0.5051812  -0.6030489  )
       125        S      tau( 125) = (   0.3750014   0.5051813  -0.8514963  )
       126        S      tau( 126) = (   0.2500018   0.5773519  -0.1180256  )
       127        Mo     tau( 127) = (   0.2499755   0.5773110   0.2424609  )
       128        Mo     tau( 128) = (   0.3758691   0.5051374   0.7277779  )
       129        S      tau( 129) = (   0.2483182   0.5768077   0.6062789  )
       130        S      tau( 130) = (   0.3749464   0.5051844   0.3668408  )
       131        S      tau( 131) = (   0.3749944   0.5051486   0.1180923  )
       132        S      tau( 132) = (   0.2574557   0.5818559   0.8585037  )
       133        Mo     tau( 133) = (   0.1250016   0.7938567  -0.7272732  )
       134        Mo     tau( 134) = (   0.2499995   0.7216883  -0.2424036  )
       135        S      tau( 135) = (   0.1250024   0.7938578  -0.3667813  )
       136        S      tau( 136) = (   0.2500016   0.7216877  -0.6030489  )
       137        S      tau( 137) = (   0.2500016   0.7216878  -0.8514963  )
       138        S      tau( 138) = (   0.1250024   0.7938579  -0.1180253  )
       139        Mo     tau( 139) = (   0.1250229   0.7938069   0.2425006  )
       140        Mo     tau( 140) = (   0.2504358   0.7224862   0.7284223  )
       141        S      tau( 141) = (   0.1254429   0.7935457   0.6029055  )
       142        S      tau( 142) = (   0.2500049   0.7216116   0.3668842  )
       143        S      tau( 143) = (   0.2500022   0.7216616   0.1181021  )
       144        S      tau( 144) = (   0.1246626   0.7944127   0.8519137  )
       145        Mo     tau( 145) = (   0.7500010   0.1443372  -0.7272732  )
       146        Mo     tau( 146) = (   0.8750038   0.0721696  -0.2424038  )
       147        S      tau( 147) = (   0.7500016   0.1443382  -0.3667789  )
       148        S      tau( 148) = (   0.8750010   0.0721682  -0.6030489  )
       149        S      tau( 149) = (   0.8750010   0.0721683  -0.8514963  )
       150        S      tau( 150) = (   0.7500016   0.1443384  -0.1180279  )
       151        Mo     tau( 151) = (   0.7500289   0.1443141   0.2424936  )
       152        Mo     tau( 152) = (   0.8748115   0.0715393   0.7280420  )
       153        S      tau( 153) = (   0.7503587   0.1440662   0.6027403  )
       154        S      tau( 154) = (   0.8750369   0.0721618   0.3668742  )
       155        S      tau( 155) = (   0.8750002   0.0721408   0.1181001  )
       156        S      tau( 156) = (   0.7494385   0.1444101   0.8516821  )
       157        Mo     tau( 157) = (   0.6250012   0.3608437  -0.7272732  )
       158        Mo     tau( 158) = (   0.7500028   0.2886769  -0.2424041  )
       159        S      tau( 159) = (   0.6250015   0.3608451  -0.3667792  )
       160        S      tau( 160) = (   0.7500012   0.2886747  -0.6030489  )
       161        S      tau( 161) = (   0.7500012   0.2886748  -0.8514963  )
       162        S      tau( 162) = (   0.6250016   0.3608454  -0.1180280  )
       163        Mo     tau( 163) = (   0.6250302   0.3608127   0.2424760  )
       164        Mo     tau( 164) = (   0.7487590   0.2885376   0.7272130  )
       165        S      tau( 165) = (   0.6254237   0.3608917   0.6015174  )
       166        S      tau( 166) = (   0.7500486   0.2886525   0.3668797  )
       167        S      tau( 167) = (   0.7500385   0.2886557   0.1181169  )
       168        S      tau( 168) = (   0.6239430   0.3610912   0.8510113  )
       169        Mo     tau( 169) = (   0.5000014   0.5773502  -0.7272732  )
       170        Mo     tau( 170) = (   0.6250029   0.5051841  -0.2424047  )
       171        S      tau( 171) = (   0.5000014   0.5773518  -0.3667794  )
       172        S      tau( 172) = (   0.6250014   0.5051812  -0.6030489  )
       173        S      tau( 173) = (   0.6250014   0.5051813  -0.8514963  )
       174        S      tau( 174) = (   0.5000016   0.5773516  -0.1180277  )
       175        Mo     tau( 175) = (   0.4999859   0.5773250   0.2424709  )
       176        Mo     tau( 176) = (   0.6245890   0.5053660   0.7261562  )
       177        S      tau( 177) = (   0.4993068   0.5776651   0.6022414  )
       178        S      tau( 178) = (   0.6249823   0.5051501   0.3668388  )
       179        S      tau( 179) = (   0.6250205   0.5051637   0.1181147  )
       180        S      tau( 180) = (   0.5009766   0.5773609   0.8515797  )
       181        Mo     tau( 181) = (   0.3750016   0.7938567  -0.7272732  )
       182        Mo     tau( 182) = (   0.5000025   0.7216901  -0.2424039  )
       183        S      tau( 183) = (   0.3750019   0.7938578  -0.3667793  )
       184        S      tau( 184) = (   0.5000016   0.7216877  -0.6030489  )
       185        S      tau( 185) = (   0.5000016   0.7216878  -0.8514963  )
       186        S      tau( 186) = (   0.3750020   0.7938579  -0.1180272  )
       187        Mo     tau( 187) = (   0.3749951   0.7938323   0.2424893  )
       188        Mo     tau( 188) = (   0.4998599   0.7217391   0.7271366  )
       189        S      tau( 189) = (   0.3746033   0.7939741   0.6029663  )
       190        S      tau( 190) = (   0.4999946   0.7216688   0.3668260  )
       191        S      tau( 191) = (   0.4999891   0.7216628   0.1180901  )
       192        S      tau( 192) = (   0.3755955   0.7938624   0.8526444  )
       193        Pt     tau( 193) = (   0.1194898   0.4990527   0.9549993  )
       194        Pd     tau( 194) = (   0.0026419   0.2990244   0.9662205  )
       195        Pd     tau( 195) = (   0.3758838   0.5051187   0.9774725  )

     --------------------------------------------
     DFT-D3 Dispersion Correction (3-body terms):
     --------------------------------------------
       Reference C6 values for interpolation: 

         atom   Coordination number   C6
         S          0.000           268.01
         S          0.995           261.99
         S          1.990           251.62
         Mo         0.000          1691.79
         Mo         1.942          1004.01
         Mo        11.056           674.22
         Pd         0.000          1217.01
         Pd         1.863           573.90
         Pd         5.710           531.75
         Pt         0.000           782.29
         Pt         1.919           692.72
         Pt         6.667           673.75

       Values used:

         atom   Coordination number  R0_AB[au]  C6      C8
         Mo        10.208            3.547    674.22  77634.20
         Mo        10.221            3.547    674.22  77634.20
         S          3.858            3.128    251.62  12327.25
         S          3.859            3.128    251.62  12327.25
         S          3.758            3.128    251.62  12327.25
         S          3.859            3.128    251.62  12327.25
         Mo        10.221            3.547    674.22  77634.20
         Mo        10.228            3.547    674.22  77634.20
         S          3.849            3.128    251.62  12327.25
         S          3.859            3.128    251.62  12327.25
         S          3.859            3.128    251.62  12327.25
         S          4.621            3.128    251.62  12327.25
         Mo        10.208            3.547    674.22  77634.20
         Mo        10.221            3.547    674.22  77634.20
         S          3.858            3.128    251.62  12327.25
         S          3.859            3.128    251.62  12327.25
         S          3.758            3.128    251.62  12327.25
         S          3.859            3.128    251.62  12327.25
         Mo        10.222            3.547    674.22  77634.20
         Mo        10.721            3.547    674.22  77634.20
         S          3.862            3.128    251.62  12327.25
         S          3.850            3.128    251.62  12327.25
         S          3.859            3.128    251.62  12327.25
         S          4.668            3.128    251.62  12327.25
         Mo        10.208            3.547    674.22  77634.20
         Mo        10.221            3.547    674.22  77634.20
         S          3.858            3.128    251.62  12327.25
         S          3.859            3.128    251.62  12327.25
         S          3.758            3.128    251.62  12327.25
         S          3.859            3.128    251.62  12327.25
         Mo        10.220            3.547    674.21  77634.20
         Mo        10.171            3.547    674.22  77634.20
         S          3.842            3.128    251.62  12327.25
         S          3.853            3.128    251.62  12327.25
         S          3.859            3.128    251.62  12327.25
         S          3.844            3.128    251.62  12327.25
         Mo        10.208            3.547    674.22  77634.20
         Mo        10.220            3.547    674.22  77634.20
         S          3.858            3.128    251.62  12327.25
         S          3.859            3.128    251.62  12327.25
         S          3.758            3.128    251.62  12327.25
         S          3.859            3.128    251.62  12327.25
         Mo        10.220            3.547    674.22  77634.20
         Mo        10.260            3.547    674.22  77634.20
         S          3.856            3.128    251.62  12327.25
         S          3.861            3.128    251.62  12327.25
         S          3.859            3.128    251.62  12327.25
         S          3.809            3.128    251.62  12327.25
         Mo        10.208            3.547    674.22  77634.20
         Mo        10.221            3.547    674.22  77634.20
         S          3.858            3.128    251.62  12327.25
         S          3.859            3.128    251.62  12327.25
         S          3.758            3.128    251.62  12327.25
         S          3.859            3.128    251.62  12327.25
         Mo        10.220            3.547    674.22  77634.20
         Mo        10.278            3.547    674.22  77634.20
         S          3.837            3.128    251.62  12327.25
         S          3.863            3.128    251.62  12327.25
         S          3.859            3.128    251.62  12327.25
         S          3.842            3.128    251.62  12327.25
         Mo        10.208            3.547    674.22  77634.20
         Mo        10.221            3.547    674.22  77634.20
         S          3.858            3.128    251.62  12327.25
         S          3.859            3.128    251.62  12327.25
         S          3.758            3.128    251.62  12327.25
         S          3.859            3.128    251.62  12327.25
         Mo        10.222            3.547    674.22  77634.20
         Mo        10.184            3.547    674.22  77634.20
         S          3.873            3.128    251.62  12327.25
         S          3.855            3.128    251.62  12327.25
         S          3.859            3.128    251.62  12327.25
         S          5.652            3.128    251.62  12327.25
         Mo        10.208            3.547    674.21  77634.20
         Mo        10.221            3.547    674.21  77634.20
         S          3.858            3.128    251.62  12327.25
         S          3.859            3.128    251.62  12327.25
         S          3.758            3.128    251.62  12327.25
         S          3.859            3.128    251.62  12327.25
         Mo        10.222            3.547    674.22  77634.20
         Mo        10.875            3.547    674.21  77634.20
         S          3.860            3.128    251.62  12327.25
         S          3.850            3.128    251.62  12327.25
         S          3.859            3.128    251.62  12327.25
         S          4.673            3.128    251.62  12327.25
         Mo        10.208            3.547    674.22  77634.20
         Mo        10.221            3.547    674.22  77634.20
         S          3.858            3.128    251.62  12327.25
         S          3.859            3.128    251.62  12327.25
         S          3.758            3.128    251.62  12327.25
         S          3.859            3.128    251.62  12327.25
         Mo        10.220            3.547    674.22  77634.20
         Mo        10.215            3.547    674.22  77634.20
         S          3.850            3.128    251.62  12327.25
         S          3.856            3.128    251.62  12327.25
         S          3.859            3.128    251.62  12327.25
         S          3.827            3.128    251.62  12327.25
         Mo        10.208            3.547    674.22  77634.20
         Mo        10.221            3.547    674.22  77634.20
         S          3.858            3.128    251.62  12327.25
         S          3.859            3.128    251.62  12327.25
         S          3.758            3.128    251.62  12327.25
         S          3.859            3.128    251.62  12327.25
         Mo        10.220            3.547    674.22  77634.20
         Mo        10.250            3.547    674.22  77634.20
         S          3.856            3.128    251.62  12327.25
         S          3.861            3.128    251.62  12327.25
         S          3.859            3.128    251.62  12327.25
         S          3.790            3.128    251.62  12327.25
         Mo        10.208            3.547    674.22  77634.20
         Mo        10.221            3.547    674.22  77634.20
         S          3.858            3.128    251.62  12327.25
         S          3.859            3.128    251.62  12327.25
         S          3.758            3.128    251.62  12327.25
         S          3.859            3.128    251.62  12327.25
         Mo        10.220            3.547    674.22  77634.20
         Mo        10.284            3.547    674.22  77634.20
         S          3.840            3.128    251.62  12327.25
         S          3.863            3.128    251.62  12327.25
         S          3.859            3.128    251.62  12327.25
         S          4.740            3.128    251.62  12327.25
         Mo        10.208            3.547    674.22  77634.20
         Mo        10.221            3.547    674.22  77634.20
         S          3.858            3.128    251.62  12327.25
         S          3.859            3.128    251.62  12327.25
         S          3.758            3.128    251.62  12327.25
         S          3.859            3.128    251.62  12327.25
         Mo        10.222            3.547    674.22  77634.20
         Mo        10.651            3.547    674.22  77634.20
         S          3.851            3.128    251.62  12327.25
         S          3.858            3.128    251.62  12327.25
         S          3.859            3.128    251.62  12327.25
         S          5.605            3.128    251.62  12327.25
         Mo        10.208            3.547    674.22  77634.20
         Mo        10.221            3.547    674.22  77634.20
         S          3.858            3.128    251.62  12327.25
         S          3.859            3.128    251.62  12327.25
         S          3.758            3.128    251.62  12327.25
         S          3.859            3.128    251.62  12327.25
         Mo        10.221            3.547    674.22  77634.20
         Mo        10.233            3.547    674.22  77634.20
         S          3.863            3.128    251.62  12327.25
         S          3.856            3.128    251.62  12327.25
         S          3.859            3.128    251.62  12327.25
         S          3.765            3.128    251.62  12327.25
         Mo        10.208            3.547    674.22  77634.20
         Mo        10.221            3.547    674.22  77634.20
         S          3.858            3.128    251.62  12327.25
         S          3.859            3.128    251.62  12327.25
         S          3.758            3.128    251.62  12327.25
         S          3.859            3.128    251.62  12327.25
         Mo        10.221            3.547    674.22  77634.20
         Mo        10.241            3.547    674.22  77634.20
         S          3.864            3.128    251.62  12327.25
         S          3.857            3.128    251.62  12327.25
         S          3.859            3.128    251.62  12327.25
         S          3.767            3.128    251.62  12327.25
         Mo        10.208            3.547    674.22  77634.20
         Mo        10.220            3.547    674.22  77634.20
         S          3.858            3.128    251.62  12327.25
         S          3.859            3.128    251.62  12327.25
         S          3.758            3.128    251.62  12327.25
         S          3.859            3.128    251.62  12327.25
         Mo        10.220            3.547    674.22  77634.20
         Mo        10.226            3.547    674.22  77634.20
         S          3.854            3.128    251.62  12327.25
         S          3.857            3.128    251.62  12327.25
         S          3.859            3.128    251.62  12327.25
         S          3.818            3.128    251.62  12327.25
         Mo        10.208            3.547    674.22  77634.20
         Mo        10.221            3.547    674.22  77634.20
         S          3.858            3.128    251.62  12327.25
         S          3.859            3.128    251.62  12327.25
         S          3.758            3.128    251.62  12327.25
         S          3.859            3.128    251.62  12327.25
         Mo        10.220            3.547    674.22  77634.20
         Mo        10.274            3.547    674.22  77634.20
         S          3.854            3.128    251.62  12327.25
         S          3.861            3.128    251.62  12327.25
         S          3.859            3.128    251.62  12327.25
         S          4.748            3.128    251.62  12327.25
         Mo        10.208            3.547    674.22  77634.20
         Mo        10.221            3.547    674.22  77634.20
         S          3.858            3.128    251.62  12327.25
         S          3.859            3.128    251.62  12327.25
         S          3.758            3.128    251.62  12327.25
         S          3.859            3.128    251.62  12327.25
         Mo        10.221            3.547    674.22  77634.20
         Mo        10.258            3.547    674.22  77634.20
         S          3.853            3.128    251.62  12327.25
         S          3.860            3.128    251.62  12327.25
         S          3.859            3.128    251.62  12327.25
         S          3.831            3.128    251.62  12327.25
         Pt         4.637            3.168    673.75  70061.90
         Pd         4.114            3.168    531.75  48720.88
         Pd         3.509            3.168    573.90  52582.28

         Molecular C6 ( Ry / a.u.^6 ) =  14156052.63


     number of k points=     4  Gaussian smearing, width (Ry)=  0.0100
                       cart. coord. in units 2pi/alat
        k(    1) = (   0.0000000   0.0000000   0.0000000), wk =   0.5000000
        k(    2) = (   0.0000000  -0.5773499   0.0000000), wk =   0.5000000
        k(    3) = (  -0.5000000  -0.2886744   0.0000000), wk =   0.5000000
        k(    4) = (  -0.5000000  -0.8660242   0.0000000), wk =   0.5000000

     Dense  grid:  7154885 G-vectors     FFT dimensions: ( 180, 180, 512)

     Smooth grid:  3090769 G-vectors     FFT dimensions: ( 135, 135, 400)

     Estimated max dynamical RAM per process >       4.32 GB

     Estimated total dynamical RAM >     155.52 GB

     Initial potential from superposition of free atoms

     starting charge    1731.9386, renormalised to    1732.0000

     negative rho (up, down):  1.016E-03 0.000E+00
     Starting wfcs are 1189 randomized atomic wfcs
     Checking if some PAW data can be deallocated... 

     total cpu time spent up to now is      179.8 secs

     Self-consistent Calculation

     iteration #  1     ecut=    77.00 Ry     beta= 0.20
     Davidson diagonalization with overlap
     ethr =  1.00E-02,  avg # of iterations =  2.0

     Threshold (ethr) on eigenvalues was too large:
     Diagonalizing with lowered threshold

     Davidson diagonalization with overlap
     ethr =  1.99E-04,  avg # of iterations = 16.8

     negative rho (up, down):  2.840E-04 0.000E+00

     total cpu time spent up to now is     2100.5 secs

     total energy              =  -34492.08888656 Ry
     estimated scf accuracy    <       6.51735002 Ry

     iteration #  2     ecut=    77.00 Ry     beta= 0.20
     Davidson diagonalization with overlap
     ethr =  3.76E-04,  avg # of iterations =  2.0

     negative rho (up, down):  3.556E-05 0.000E+00

     total cpu time spent up to now is     2513.5 secs

     total energy              =  -34490.90556909 Ry
     estimated scf accuracy    <       3.29884743 Ry

     iteration #  3     ecut=    77.00 Ry     beta= 0.20
     Davidson diagonalization with overlap
     ethr =  1.90E-04,  avg # of iterations = 16.8

     negative rho (up, down):  2.711E-05 0.000E+00

     total cpu time spent up to now is     3046.5 secs

     total energy              =  -34491.34851424 Ry
     estimated scf accuracy    <       1.52128317 Ry

     iteration #  4     ecut=    77.00 Ry     beta= 0.20
     Davidson diagonalization with overlap
     ethr =  8.78E-05,  avg # of iterations = 10.0

     negative rho (up, down):  1.911E-05 0.000E+00

     total cpu time spent up to now is     3716.7 secs

     total energy              =  -34491.74242436 Ry
     estimated scf accuracy    <       0.44253344 Ry

     iteration #  5     ecut=    77.00 Ry     beta= 0.20
     Davidson diagonalization with overlap
     c_bands:  1 eigenvalues not converged
     ethr =  2.56E-05,  avg # of iterations = 15.0

     negative rho (up, down):  3.533E-05 0.000E+00

     total cpu time spent up to now is     4881.9 secs

     total energy              =  -34492.17974048 Ry
     estimated scf accuracy    <       0.20533390 Ry

     iteration #  6     ecut=    77.00 Ry     beta= 0.20
     Davidson diagonalization with overlap
     c_bands:  1 eigenvalues not converged
     ethr =  1.19E-05,  avg # of iterations = 17.2

     negative rho (up, down):  8.559E-05 0.000E+00

     total cpu time spent up to now is     5514.0 secs

     total energy              =  -34492.19400035 Ry
     estimated scf accuracy    <       0.13606961 Ry

     iteration #  7     ecut=    77.00 Ry     beta= 0.20
     Davidson diagonalization with overlap
     c_bands:  1 eigenvalues not converged
     ethr =  7.86E-06,  avg # of iterations = 16.5

     negative rho (up, down):  6.710E-04 0.000E+00

     total cpu time spent up to now is     6027.5 secs

     total energy              =  -34492.19770940 Ry
     estimated scf accuracy    <       0.07608935 Ry

     iteration #  8     ecut=    77.00 Ry     beta= 0.20
     Davidson diagonalization with overlap
     c_bands:  4 eigenvalues not converged
     c_bands:  3 eigenvalues not converged
     c_bands:  4 eigenvalues not converged
     ethr =  4.39E-06,  avg # of iterations = 29.0

     negative rho (up, down):  5.895E-04 0.000E+00

     total cpu time spent up to now is     7261.1 secs

     total energy              =  -34492.23416371 Ry
     estimated scf accuracy    <       0.09501245 Ry

     iteration #  9     ecut=    77.00 Ry     beta= 0.20
     Davidson diagonalization with overlap
     c_bands:  1 eigenvalues not converged
     c_bands:  2 eigenvalues not converged
     ethr =  4.39E-06,  avg # of iterations = 11.0

     negative rho (up, down):  4.527E-04 0.000E+00

     total cpu time spent up to now is     7708.2 secs

     total energy              =  -34492.22499361 Ry
     estimated scf accuracy    <       0.02852387 Ry

     iteration # 10     ecut=    77.00 Ry     beta= 0.20
     Davidson diagonalization with overlap
     c_bands:  1 eigenvalues not converged
     c_bands:  5 eigenvalues not converged
     c_bands:  5 eigenvalues not converged
     ethr =  1.65E-06,  avg # of iterations = 55.5

     negative rho (up, down):  5.018E-04 0.000E+00

     total cpu time spent up to now is     9464.5 secs

     total energy              =  -34492.24741121 Ry
     estimated scf accuracy    <       0.00571284 Ry

     iteration # 11     ecut=    77.00 Ry     beta= 0.20
     Davidson diagonalization with overlap
     c_bands:  1 eigenvalues not converged
     c_bands:  5 eigenvalues not converged
     c_bands:  3 eigenvalues not converged
     ethr =  3.30E-07,  avg # of iterations = 22.5

     negative rho (up, down):  5.613E-04 0.000E+00

     total cpu time spent up to now is    10506.4 secs

     total energy              =  -34492.25117968 Ry
     estimated scf accuracy    <       0.00796739 Ry

     iteration # 12     ecut=    77.00 Ry     beta= 0.20
     Davidson diagonalization with overlap
     c_bands:  3 eigenvalues not converged
     c_bands:  1 eigenvalues not converged
     ethr =  3.30E-07,  avg # of iterations = 11.0

     negative rho (up, down):  8.864E-04 0.000E+00

     total cpu time spent up to now is    10953.9 secs

     total energy              =  -34492.24835214 Ry
     estimated scf accuracy    <       0.00442539 Ry

     iteration # 13     ecut=    77.00 Ry     beta= 0.20
     Davidson diagonalization with overlap
     c_bands:  1 eigenvalues not converged
     ethr =  2.56E-07,  avg # of iterations = 22.2

     negative rho (up, down):  8.461E-04 0.000E+00

     total cpu time spent up to now is    11983.1 secs

     total energy              =  -34492.25150742 Ry
     estimated scf accuracy    <       0.00206886 Ry

     iteration # 14     ecut=    77.00 Ry     beta= 0.20
     Davidson diagonalization with overlap
     ethr =  1.19E-07,  avg # of iterations =  5.0

     negative rho (up, down):  7.923E-04 0.000E+00

     total cpu time spent up to now is    12443.5 secs

     total energy              =  -34492.25114966 Ry
     estimated scf accuracy    <       0.00123335 Ry

     iteration # 15     ecut=    77.00 Ry     beta= 0.20
     Davidson diagonalization with overlap
     c_bands:  4 eigenvalues not converged
     ethr =  7.12E-08,  avg # of iterations = 11.8

     negative rho (up, down):  8.200E-04 0.000E+00

     total cpu time spent up to now is    12975.9 secs

     total energy              =  -34492.25121720 Ry
     estimated scf accuracy    <       0.00030236 Ry

     iteration # 16     ecut=    77.00 Ry     beta= 0.20
     Davidson diagonalization with overlap
     ethr =  1.75E-08,  avg # of iterations = 15.5

     negative rho (up, down):  8.869E-04 0.000E+00

     total cpu time spent up to now is    14405.6 secs

     total energy              =  -34492.25170684 Ry
     estimated scf accuracy    <       0.00028059 Ry

     iteration # 17     ecut=    77.00 Ry     beta= 0.20
     Davidson diagonalization with overlap
     ethr =  1.62E-08,  avg # of iterations =  4.8

     negative rho (up, down):  9.290E-04 0.000E+00

     total cpu time spent up to now is    14833.2 secs

     total energy              =  -34492.25169342 Ry
     estimated scf accuracy    <       0.00003830 Ry

     iteration # 18     ecut=    77.00 Ry     beta= 0.20
     Davidson diagonalization with overlap
     c_bands:  1 eigenvalues not converged
     ethr =  2.21E-09,  avg # of iterations = 18.8

     negative rho (up, down):  9.320E-04 0.000E+00

     total cpu time spent up to now is    16982.8 secs

     total energy              =  -34492.25182441 Ry
     estimated scf accuracy    <       0.00029269 Ry

     iteration # 19     ecut=    77.00 Ry     beta= 0.20
     Davidson diagonalization with overlap
     ethr =  2.21E-09,  avg # of iterations =  6.0

     negative rho (up, down):  9.249E-04 0.000E+00

     total cpu time spent up to now is    17456.6 secs

     total energy              =  -34492.25174933 Ry
     estimated scf accuracy    <       0.00016392 Ry

     iteration # 20     ecut=    77.00 Ry     beta= 0.20
     Davidson diagonalization with overlap
     ethr =  2.21E-09,  avg # of iterations =  9.2

     negative rho (up, down):  9.275E-04 0.000E+00

     total cpu time spent up to now is    18326.7 secs

     total energy              =  -34492.25179600 Ry
     estimated scf accuracy    <       0.00000387 Ry

     iteration # 21     ecut=    77.00 Ry     beta= 0.20
     Davidson diagonalization with overlap
     c_bands:  3 eigenvalues not converged
     c_bands:  1 eigenvalues not converged
     ethr =  2.23E-10,  avg # of iterations = 18.2

     negative rho (up, down):  9.305E-04 0.000E+00

     total cpu time spent up to now is    19847.0 secs

     total energy              =  -34492.25180322 Ry
     estimated scf accuracy    <       0.00000231 Ry

     iteration # 22     ecut=    77.00 Ry     beta= 0.20
     Davidson diagonalization with overlap
     ethr =  1.33E-10,  avg # of iterations = 11.0

     negative rho (up, down):  9.338E-04 0.000E+00

     total cpu time spent up to now is    20334.3 secs

     End of self-consistent calculation

          k = 0.0000 0.0000 0.0000 (386245 PWs)   bands (ev):

  -102.9462 -88.7268 -88.3358 -71.2730 -71.2600 -71.2560 -71.2523 -71.2358
   -71.2267 -71.2125 -66.6005 -66.6004 -66.5992 -66.5942 -66.5832 -66.5794
   -66.5793 -66.5792 -66.5792 -66.5792 -66.5792 -66.5792 -66.5792 -66.5792
   -66.5791 -66.5790 -66.5788 -66.5779 -66.5779 -66.5779 -66.5779 -66.5779
   -66.5779 -66.5747 -66.5709 -66.5654 -66.5623 -66.5581 -66.5580 -66.5579
   -66.5579 -66.5579 -66.5578 -66.5578 -66.5578 -66.5578 -66.5578 -66.5578
   -66.5578 -66.5578 -66.5578 -66.5577 -66.5576 -66.5575 -66.5572 -66.5565
   -66.5565 -66.5565 -66.5565 -66.5565 -66.5565 -66.5565 -66.5565 -66.5565
   -66.5558 -66.5490 -66.5465 -66.5443 -66.5384 -66.5318 -66.5278 -66.5227
   -66.5167 -66.5110 -57.2232 -57.1346 -57.1258 -54.6130 -54.4998 -54.4503
   -54.1954 -54.1455 -54.0716 -40.9279 -40.9279 -40.9279 -40.9279 -40.9277
   -40.9277 -40.9272 -40.9272 -40.9272 -40.9143 -40.9110 -40.9087 -40.8527
   -40.8526 -40.8526 -40.8526 -40.8525 -40.8525 -40.8525 -40.8525 -40.8525
   -40.8524 -40.8523 -40.8522 -40.8519 -40.8518 -40.8518 -40.8518 -40.8518
   -40.8518 -40.8430 -40.8392 -40.8339 -40.8289 -40.8183 -40.8147 -40.7674
   -40.7603 -40.7602 -40.7596 -40.7395 -40.7321 -40.7277 -40.7263 -40.7262
   -40.7262 -40.7262 -40.7262 -40.7262 -40.7262 -40.7262 -40.7262 -40.7260
   -40.7260 -40.7259 -40.7254 -40.7254 -40.7254 -40.7254 -40.7254 -40.7254
   -40.7243 -40.7188 -40.7186 -40.7186 -40.7186 -40.7186 -40.7185 -40.7185
   -40.7185 -40.7185 -40.7185 -40.7184 -40.7183 -40.7181 -40.7179 -40.7179
   -40.7179 -40.7179 -40.7179 -40.7179 -40.7167 -40.7151 -40.7150 -40.7122
   -40.6994 -40.6969 -40.6936 -40.6913 -40.6912 -40.6912 -40.6912 -40.6912
   -40.6912 -40.6912 -40.6912 -40.6911 -40.6910 -40.6909 -40.6909 -40.6903
   -40.6903 -40.6903 -40.6903 -40.6903 -40.6903 -40.6895 -40.6861 -40.6850
   -40.6811 -40.6797 -40.6769 -40.6768 -40.6767 -40.6766 -40.6766 -40.6766
   -40.6766 -40.6766 -40.6766 -40.6766 -40.6766 -40.6765 -40.6765 -40.6765
   -40.6765 -40.6764 -40.6763 -40.6759 -40.6759 -40.6759 -40.6759 -40.6759
   -40.6759 -40.6759 -40.6758 -40.6758 -40.6758 -40.6757 -40.6751 -40.6736
   -40.6730 -40.6664 -40.6633 -40.6617 -40.6577 -40.6509 -40.6483 -40.6129
   -40.6129 -40.6128 -40.6128 -40.6127 -40.6127 -40.6119 -40.6119 -40.6119
   -40.5956 -40.5938 -40.5894 -40.5658 -40.5658 -40.5657 -40.5657 -40.5657
   -40.5657 -40.5657 -40.5657 -40.5657 -40.5655 -40.5655 -40.5654 -40.5647
   -40.5647 -40.5647 -40.5647 -40.5647 -40.5647 -40.5454 -40.5438 -40.5420
   -40.5355 -40.5332 -40.5314 -40.5181 -40.5181 -40.5180 -40.5180 -40.5171
   -40.5171 -40.4865 -40.4787 -20.2153 -20.0788 -19.9770 -19.8674 -19.6185
   -19.4827 -19.3249 -19.2444 -19.2364 -19.2280 -19.2139 -19.2130 -19.2090
   -19.1943 -19.1876 -19.1730 -19.1274 -19.1254 -19.1185 -19.1067 -19.1023
   -19.0901 -19.0225 -19.0211 -19.0170 -19.0128 -19.0114 -19.0070 -18.8992
   -18.7873 -18.7785 -18.6662 -18.6037 -18.5464 -18.5120 -18.4862 -18.4791
   -18.4672 -18.4364 -18.4298 -18.3995 -18.3915 -18.3844 -18.3787 -18.3457
   -18.3310 -18.2690 -18.2647 -18.2597 -18.2578 -18.2438 -18.2271 -18.1807
   -18.1771 -18.1620 -18.1601 -18.1578 -18.1512 -18.1436 -18.1369 -18.1074
   -18.0982 -18.0970 -18.0960 -18.0955 -18.0946 -18.0874 -18.0682 -18.0654
   -18.0619 -18.0596 -18.0544 -18.0532 -18.0521 -18.0517 -18.0467 -18.0312
   -18.0270 -18.0265 -18.0242 -18.0151 -18.0121 -18.0084 -17.9967 -17.9928
   -17.9874 -17.9834 -17.9816 -17.9790 -17.9687 -17.9671 -17.9643 -17.9358
   -17.9294 -17.9223 -17.9205 -17.9151 -17.9016 -17.8979 -17.8968 -17.8946
   -17.8748 -17.8703 -17.8692 -17.8601 -17.8564 -17.8531 -17.8470 -17.8461
   -17.8431 -17.8354 -17.8347 -17.8341 -17.8177 -17.8169 -17.8168 -17.8077
   -17.8057 -17.8044 -17.8003 -17.7992 -17.7974 -17.7738 -17.7734 -17.7729
   -17.7718 -17.7713 -17.7705 -12.2292 -12.0531 -11.9905 -11.9476 -11.8100
   -11.7766 -11.7744 -11.7675 -11.6655 -11.6591 -11.6530 -11.5850 -11.5392
   -11.5362 -11.5258 -11.4714 -11.4302 -11.3515 -11.3129 -11.2958 -11.2498
   -11.2218 -11.2192 -11.2141 -11.2130 -11.2006 -11.1626 -11.1511 -11.1317
   -11.1115 -11.1064 -11.1053 -11.1038 -11.1014 -11.0931 -11.0676 -11.0551
   -11.0503 -11.0451 -11.0407 -11.0382 -11.0321 -11.0252 -11.0197 -11.0106
   -11.0007 -10.9804 -10.9588 -10.9404 -10.9347 -10.9255 -10.9188 -10.9168
   -10.9020 -10.8882 -10.8756 -10.8713 -10.8656 -10.8634 -10.8572 -10.8507
   -10.8335 -10.8302 -10.8251 -10.8210 -10.8164 -10.8154 -10.8073 -10.8057
   -10.8056 -10.8034 -10.7988 -10.7946 -10.7890 -10.7863 -10.7846 -10.7609
   -10.7593 -10.7555 -10.7543 -10.7534 -10.7486 -10.7470 -10.7451 -10.7378
   -10.7145 -10.7143 -10.7137 -10.7133 -10.7125 -10.7107 -10.6630 -10.6465
   -10.6380 -10.6126 -10.5962 -10.5839 -10.5700 -10.5672 -10.5604 -10.5432
   -10.5162 -10.2986 -10.2684 -10.1935 -10.1571 -10.1055 -10.0834 -10.0141
    -9.9608  -9.9279  -9.8948  -9.8508  -9.8468  -9.8007  -9.7923  -9.7878
    -9.7789  -9.7660  -9.7569  -9.7546  -9.7503  -9.7494  -9.7447  -9.7404
    -9.7390  -9.7329  -9.7291  -9.7262  -9.7251  -9.7203  -9.7105  -9.6952
    -9.6800  -9.6710  -9.6663  -9.6179  -9.6142  -9.6087  -9.6048  -9.6021
    -9.6007  -9.5958  -9.5955  -9.5945  -9.5939  -9.5911  -9.5895  -9.5638
    -9.5516  -9.5309  -9.5206  -9.5184  -9.5179  -9.5176  -9.5175  -9.5173
    -9.5167  -9.5108  -9.5038  -9.4905  -9.4869  -9.4800  -9.4699  -9.4584
    -9.4355  -9.4204  -9.3677  -9.3560  -9.3483  -9.3443  -9.3403  -9.3371
    -9.3251  -9.3230  -9.3135  -9.3084  -9.2993  -9.2890  -9.2720  -9.2460
    -9.2296  -9.2209  -9.2181  -9.2096  -9.2046  -9.1848  -9.1684  -9.1602
    -9.1592  -9.1583  -9.1569  -9.1543  -9.1387  -9.1264  -9.1144  -9.0907
    -9.0858  -9.0663  -9.0459  -9.0191  -8.9864  -8.9788  -8.9587  -8.9561
    -8.9556  -8.9467  -8.9334  -8.9247  -8.9240  -8.9130  -8.8938  -8.8937
    -8.8931  -8.8896  -8.8872  -8.8785  -8.8754  -8.8696  -8.8634  -8.7988
    -8.7982  -8.7976  -8.7975  -8.7970  -8.7968  -8.7636  -8.7450  -8.7372
    -8.7290  -8.7267  -8.7212  -8.7133  -8.6612  -8.6545  -8.6471  -8.6445
    -8.6411  -8.6328  -8.5988  -8.5905  -8.5710  -8.5693  -8.5687  -8.5661
    -8.5637  -8.5537  -8.4874  -8.4600  -8.3946  -8.3645  -8.3427  -8.3426
    -8.3403  -8.3376  -8.3361  -8.3313  -8.3306  -8.3225  -8.2947  -8.2571
    -8.2534  -8.2519  -8.2519  -8.2517  -8.2509  -8.2439  -8.2357  -8.2253
    -8.2252  -8.2247  -8.2237  -8.2203  -8.2178  -8.1972  -8.1971  -8.1968
    -8.1965  -8.1955  -8.1951  -8.1270  -8.0603  -8.0100  -7.9659  -7.9108
    -7.8359  -7.8320  -7.8318  -7.7938  -7.7697  -7.7432  -7.7384  -7.7238
    -7.6883  -7.6668  -7.6531  -7.6311  -7.6272  -7.6172  -7.6098  -7.6026
    -7.5913  -7.5840  -7.5784  -7.5733  -7.5710  -7.5546  -7.5531  -7.5243
    -7.5177  -7.5115  -7.5107  -7.5104  -7.5101  -7.5094  -7.5021  -7.4927
    -7.4846  -7.4838  -7.4831  -7.4824  -7.4791  -7.4777  -7.4679  -7.4599
    -7.4587  -7.4583  -7.4580  -7.4576  -7.4560  -7.4520  -7.4469  -7.4365
    -7.4239  -7.4102  -7.4052  -7.3996  -7.3920  -7.3868  -7.3729  -7.3522
    -7.3410  -7.3333  -7.3257  -7.3203  -7.3039  -7.2954  -7.2882  -7.2816
    -7.2780  -7.2732  -7.2691  -7.2671  -7.2645  -7.2270  -7.2267  -7.2189
    -7.2081  -7.2077  -7.1899  -7.1898  -7.1775  -7.1514  -7.1385  -7.1094
    -7.1003  -7.0882  -7.0782  -7.0490  -7.0045  -6.9776  -6.9143  -6.8893
    -6.8573  -6.8503  -6.8398  -6.8269  -6.7912  -6.7605  -6.7561  -6.7552
    -6.7495  -6.7286  -6.6905  -6.6818  -6.6757  -6.6727  -6.6714  -6.6351
    -6.6276  -6.6100  -6.6026  -6.5981  -6.5975  -6.5955  -6.5642  -6.5594
    -6.5498  -6.5485  -6.5354  -6.5300  -6.5172  -6.5100  -6.4999  -6.4922
    -6.4901  -6.4882  -6.4875  -6.4864  -6.4837  -6.4821  -6.4753  -6.4738
    -6.4736  -6.4734  -6.4733  -6.4731  -6.4726  -6.4598  -6.4437  -6.4244
    -6.4163  -6.4106  -6.3875  -6.3856  -6.3847  -6.3818  -6.3683  -6.3407
    -6.3261  -6.3125  -6.3085  -6.3062  -6.3060  -6.3048  -6.3010  -6.2843
    -6.2705  -6.2662  -6.2654  -6.2647  -6.2617  -6.2526  -6.2394  -6.2310
    -6.2288  -6.2286  -6.2276  -6.2260  -6.2252  -6.1848  -6.0757  -5.9844
    -5.9379  -5.8145  -5.7156  -5.6442  -5.5737  -5.4830  -5.4324  -5.2873
    -5.2641  -5.1235  -4.1995  -3.9658  -3.8593  -3.8284  -3.8276  -3.8248
    -3.8139  -3.8073  -3.8056  -3.8022  -3.8007  -3.7973  -3.7790  -3.7587
    -3.7242  -3.6847  -3.6819  -3.6669  -3.6642  -3.6613  -3.6580  -3.6525
    -3.6506  -3.6485  -3.5583  -3.5296  -3.5200  -3.4999  -3.4852  -3.4831
    -3.4752  -3.4675  -3.4611  -3.4512  -3.4478  -3.4473  -3.4471  -3.4412
    -3.4379  -3.4322  -3.4288  -3.4240  -3.4184  -3.4178  -3.4178  -3.4094
    -3.4035  -3.4024  -3.4005  -3.3931  -3.3882  -3.3848  -3.3841  -3.3825
    -3.3794  -3.3754  -3.3741  -3.3650  -3.3613  -3.3606  -3.3343  -3.3311
    -3.3269  -3.3258  -3.3228  -3.3205  -3.3187  -3.3149  -3.3118  -3.2993
    -3.2862  -3.2781  -3.2710  -3.2625  -3.2603  -3.2569  -3.2511  -3.2408
    -3.2350  -3.2053  -3.1934  -3.1856  -3.1766  -3.1722  -3.0796  -3.0594
    -3.0475  -3.0411  -3.0393  -3.0339  -3.0278  -3.0245  -3.0211  -3.0185
    -3.0023  -2.9793  -2.9773  -2.9650  -2.9546  -2.9531  -2.9503  -2.9488
    -2.9473  -2.9465  -2.9413  -2.9382  -2.9382  -2.9329  -2.9306  -2.9285
    -2.9279  -2.9141  -2.9136  -2.9122  -2.9099  -2.9080  -2.9039  -2.9031
    -2.9024  -2.9015  -2.8986  -2.8963  -2.8838  -2.8699  -2.8673  -2.8624
    -2.8536  -2.8450  -2.8425  -2.8385  -2.8204  -2.7816  -2.7810  -2.7809
    -2.7800  -2.7791  -2.7790  -2.7787  -2.7786  -2.7783  -2.7620  -2.7588
    -2.7520  -2.7471  -2.7297  -2.7168  -2.7122  -2.7012  -2.6930  -2.6920
    -2.6424  -2.6368  -2.6146  -2.6124  -2.6093  -2.6004  -2.5981  -2.5966
    -2.5941  -2.5914  -2.5693  -2.5506  -2.5358  -2.5209  -2.5167  -2.5120
    -2.4378  -2.4065  -2.3954  -2.3901  -2.3843  -2.3839  -2.3806

          k = 0.0000-0.5773 0.0000 (386352 PWs)   bands (ev):

  -102.9462 -88.7268 -88.3358 -71.2731 -71.2601 -71.2560 -71.2523 -71.2358
   -71.2267 -71.2125 -66.5943 -66.5943 -66.5943 -66.5941 -66.5930 -66.5930
   -66.5930 -66.5848 -66.5836 -66.5836 -66.5836 -66.5835 -66.5823 -66.5823
   -66.5750 -66.5725 -66.5686 -66.5685 -66.5685 -66.5685 -66.5685 -66.5685
   -66.5684 -66.5683 -66.5672 -66.5672 -66.5672 -66.5672 -66.5644 -66.5641
   -66.5641 -66.5641 -66.5639 -66.5628 -66.5628 -66.5604 -66.5580 -66.5578
   -66.5578 -66.5578 -66.5578 -66.5578 -66.5578 -66.5574 -66.5565 -66.5565
   -66.5565 -66.5565 -66.5550 -66.5534 -66.5534 -66.5533 -66.5532 -66.5521
   -66.5520 -66.5500 -66.5479 -66.5429 -66.5383 -66.5315 -66.5287 -66.5227
   -66.5165 -66.5110 -57.2232 -57.1346 -57.1258 -54.6130 -54.4998 -54.4503
   -54.1954 -54.1455 -54.0716 -40.8983 -40.8963 -40.8963 -40.8962 -40.8962
   -40.8962 -40.8962 -40.8961 -40.8959 -40.8956 -40.8956 -40.8956 -40.8956
   -40.8833 -40.8710 -40.8695 -40.8694 -40.8694 -40.8692 -40.8687 -40.8687
   -40.8642 -40.8575 -40.8574 -40.8574 -40.8573 -40.8572 -40.8567 -40.8567
   -40.8540 -40.8371 -40.8190 -40.8067 -40.8067 -40.8067 -40.8067 -40.8066
   -40.8066 -40.8066 -40.8065 -40.8059 -40.8059 -40.8059 -40.8059 -40.7894
   -40.7840 -40.7832 -40.7660 -40.7580 -40.7533 -40.7482 -40.7481 -40.7481
   -40.7479 -40.7474 -40.7474 -40.7384 -40.7384 -40.7383 -40.7382 -40.7375
   -40.7375 -40.7374 -40.7315 -40.7272 -40.7272 -40.7272 -40.7271 -40.7266
   -40.7266 -40.7192 -40.7118 -40.7098 -40.7068 -40.7001 -40.6977 -40.6977
   -40.6976 -40.6976 -40.6976 -40.6976 -40.6974 -40.6974 -40.6969 -40.6969
   -40.6969 -40.6969 -40.6961 -40.6948 -40.6889 -40.6889 -40.6889 -40.6887
   -40.6882 -40.6882 -40.6862 -40.6834 -40.6800 -40.6769 -40.6769 -40.6769
   -40.6769 -40.6768 -40.6767 -40.6766 -40.6766 -40.6766 -40.6766 -40.6766
   -40.6765 -40.6761 -40.6760 -40.6760 -40.6759 -40.6758 -40.6758 -40.6758
   -40.6721 -40.6679 -40.6679 -40.6678 -40.6678 -40.6672 -40.6672 -40.6664
   -40.6600 -40.6579 -40.6531 -40.6460 -40.6460 -40.6460 -40.6460 -40.6460
   -40.6460 -40.6459 -40.6456 -40.6450 -40.6450 -40.6450 -40.6450 -40.6326
   -40.6289 -40.6237 -40.6139 -40.6112 -40.6112 -40.6112 -40.6112 -40.6112
   -40.6112 -40.6111 -40.6111 -40.6103 -40.6103 -40.6103 -40.6103 -40.5991
   -40.5991 -40.5991 -40.5989 -40.5981 -40.5981 -40.5934 -40.5881 -40.5852
   -40.5833 -40.5798 -40.5798 -40.5797 -40.5796 -40.5788 -40.5788 -40.5760
   -40.5628 -40.5628 -40.5627 -40.5626 -40.5618 -40.5618 -40.5598 -40.5573
   -40.5538 -40.5367 -40.5321 -40.5321 -40.5321 -40.5319 -40.5311 -40.5311
   -40.5183 -40.5146 -40.4854 -20.0991 -19.8817 -19.8451 -19.8253 -19.7479
   -19.7290 -19.6377 -19.6289 -19.5287 -19.5094 -19.4073 -19.4045 -19.3170
   -19.3108 -19.2147 -19.2069 -19.1572 -18.9628 -18.8582 -18.7752 -18.7619
   -18.7500 -18.6999 -18.6997 -18.6960 -18.6922 -18.6778 -18.6522 -18.6300
   -18.6279 -18.6228 -18.6176 -18.5971 -18.5614 -18.5600 -18.5319 -18.5298
   -18.5263 -18.5243 -18.5157 -18.4923 -18.4700 -18.4642 -18.4540 -18.4458
   -18.4189 -18.4024 -18.3876 -18.3862 -18.3789 -18.3696 -18.3584 -18.3285
   -18.3089 -18.3035 -18.2949 -18.2569 -18.2411 -18.2239 -18.2157 -18.1954
   -18.1878 -18.1611 -18.1521 -18.1451 -18.1230 -18.1067 -18.0955 -18.0801
   -18.0765 -18.0745 -18.0740 -18.0636 -18.0517 -18.0508 -18.0486 -18.0451
   -18.0429 -18.0390 -18.0352 -18.0285 -18.0265 -18.0197 -18.0071 -17.9880
   -17.9856 -17.9804 -17.9794 -17.9759 -17.9752 -17.9745 -17.9666 -17.9640
   -17.9572 -17.9305 -17.9239 -17.9161 -17.9123 -17.9066 -17.8983 -17.8821
   -17.8687 -17.8643 -17.8527 -17.8524 -17.8333 -17.8227 -17.8204 -17.8167
   -17.8145 -17.7951 -17.7946 -17.7941 -17.7937 -17.7932 -17.7925 -17.7804
   -17.7796 -17.7611 -17.7592 -17.7366 -17.7347 -17.7174 -17.7148 -17.7025
   -17.7008 -17.6947 -17.6945 -12.1309 -11.9419 -11.8787 -11.7318 -11.7008
   -11.6068 -11.5376 -11.5148 -11.4999 -11.4929 -11.4758 -11.4715 -11.4621
   -11.4565 -11.4445 -11.4321 -11.3898 -11.3757 -11.3697 -11.3616 -11.3535
   -11.3262 -11.3139 -11.3103 -11.3061 -11.2900 -11.2675 -11.2545 -11.2507
   -11.2463 -11.2391 -11.2355 -11.2306 -11.2287 -11.1915 -11.1822 -11.1786
   -11.1727 -11.1615 -11.1536 -11.1493 -11.1433 -11.1347 -11.1232 -11.1221
   -11.1161 -11.1062 -11.0902 -11.0676 -11.0609 -11.0462 -11.0326 -11.0009
   -10.9741 -10.9600 -10.9329 -10.9216 -10.9152 -10.8970 -10.8893 -10.8769
   -10.8574 -10.8352 -10.8284 -10.8143 -10.8115 -10.8078 -10.8035 -10.7937
   -10.7894 -10.7861 -10.7852 -10.7847 -10.7825 -10.7783 -10.7727 -10.7683
   -10.7675 -10.7628 -10.7606 -10.7575 -10.7547 -10.7445 -10.7202 -10.7183
   -10.7181 -10.7172 -10.6628 -10.5894 -10.5303 -10.5190 -10.5104 -10.4919
   -10.4633 -10.4217 -10.3926 -10.3657 -10.3054 -10.2688 -10.2224 -10.1889
   -10.1744 -10.1511 -10.1244 -10.1082 -10.0941 -10.0906 -10.0870 -10.0699
   -10.0350 -10.0300 -10.0160 -10.0130 -10.0101 -10.0053  -9.9987  -9.9933
    -9.9885  -9.9504  -9.9327  -9.9146  -9.9097  -9.8981  -9.8919  -9.8846
    -9.8707  -9.8680  -9.8665  -9.8493  -9.8334  -9.8175  -9.8094  -9.7833
    -9.7706  -9.7583  -9.7520  -9.7499  -9.7261  -9.7184  -9.7035  -9.6866
    -9.6798  -9.6569  -9.6393  -9.6347  -9.6108  -9.5980  -9.5952  -9.5842
    -9.5652  -9.5510  -9.5412  -9.5325  -9.5266  -9.5198  -9.5108  -9.4754
    -9.4681  -9.4652  -9.4587  -9.4518  -9.4489  -9.4436  -9.4372  -9.4340
    -9.4323  -9.4136  -9.4050  -9.3789  -9.3663  -9.3494  -9.3338  -9.3211
    -9.2921  -9.2632  -9.2144  -9.2023  -9.1966  -9.1899  -9.1825  -9.1755
    -9.1593  -9.1512  -9.1376  -9.1244  -9.1186  -9.1125  -9.1022  -9.0901
    -9.0517  -9.0472  -9.0372  -9.0357  -9.0247  -9.0207  -9.0115  -8.9974
    -8.9905  -8.9716  -8.9483  -8.9374  -8.9344  -8.9311  -8.9260  -8.9146
    -8.9051  -8.8932  -8.8869  -8.8677  -8.8665  -8.8636  -8.8625  -8.8604
    -8.8590  -8.8552  -8.8464  -8.8442  -8.8429  -8.8350  -8.8317  -8.8276
    -8.8166  -8.8149  -8.8147  -8.8079  -8.7964  -8.7704  -8.7691  -8.7678
    -8.7660  -8.7631  -8.7597  -8.7391  -8.7379  -8.7341  -8.7160  -8.7089
    -8.7074  -8.7050  -8.7023  -8.6934  -8.6434  -8.6336  -8.6295  -8.6213
    -8.5954  -8.5534  -8.4814  -8.4799  -8.4533  -8.4358  -8.4161  -8.4027
    -8.3807  -8.3348  -8.3271  -8.3048  -8.2766  -8.2735  -8.2203  -8.1568
    -8.1440  -8.1028  -8.1026  -8.0943  -8.0935  -8.0842  -8.0822  -8.0789
    -8.0497  -8.0350  -7.9994  -7.9652  -7.9461  -7.9439  -7.9353  -7.9105
    -7.8565  -7.8381  -7.8248  -7.8181  -7.8118  -7.8050  -7.7994  -7.7965
    -7.7884  -7.7857  -7.7811  -7.7771  -7.7725  -7.7713  -7.7666  -7.7609
    -7.7567  -7.7565  -7.7460  -7.7451  -7.7435  -7.7429  -7.7413  -7.7403
    -7.7381  -7.7340  -7.7333  -7.7298  -7.7250  -7.7206  -7.7067  -7.7056
    -7.7046  -7.7008  -7.6747  -7.6723  -7.6722  -7.6713  -7.6652  -7.6485
    -7.6424  -7.6416  -7.6401  -7.6381  -7.6357  -7.6294  -7.6125  -7.6043
    -7.5987  -7.5835  -7.5832  -7.5829  -7.5766  -7.5640  -7.5607  -7.5602
    -7.5459  -7.5395  -7.5392  -7.5358  -7.5307  -7.5236  -7.5200  -7.4970
    -7.4423  -7.4364  -7.4350  -7.4317  -7.4185  -7.3966  -7.3749  -7.3493
    -7.2581  -7.1774  -7.1702  -7.1508  -7.1464  -7.1404  -7.1349  -7.1320
    -7.1121  -7.0979  -7.0834  -7.0748  -7.0629  -7.0555  -7.0437  -7.0404
    -7.0092  -7.0019  -6.9944  -6.9864  -6.9683  -6.9572  -6.9514  -6.9404
    -6.9033  -6.8912  -6.8882  -6.8797  -6.8627  -6.8539  -6.8365  -6.8347
    -6.8300  -6.8142  -6.7951  -6.7694  -6.7545  -6.7474  -6.7290  -6.7207
    -6.6943  -6.6618  -6.6430  -6.6396  -6.6303  -6.6089  -6.6045  -6.5933
    -6.5856  -6.5806  -6.5799  -6.5788  -6.5764  -6.5631  -6.5626  -6.5620
    -6.5614  -6.5543  -6.5540  -6.5539  -6.5538  -6.5483  -6.5323  -6.5138
    -6.5006  -6.4582  -6.3998  -6.3950  -6.3520  -6.3224  -6.3022  -6.2984
    -6.2929  -6.2900  -6.2843  -6.2796  -6.2628  -6.2526  -6.2523  -6.2478
    -6.2475  -6.2451  -6.2423  -6.2303  -6.2253  -6.2097  -6.2021  -6.1925
    -6.1798  -6.1768  -6.1740  -6.1679  -6.0521  -6.0248  -5.9674  -5.9640
    -5.9539  -5.9040  -5.8946  -5.8391  -5.8380  -5.8305  -5.8223  -5.7973
    -5.7605  -5.7004  -5.6605  -5.5982  -5.5792  -5.5606  -5.5302  -5.4202
    -5.3605  -5.2777  -4.2462  -4.0929  -4.0690  -4.0644  -4.0340  -3.9637
    -3.9135  -3.8997  -3.8949  -3.8907  -3.8335  -3.8209  -3.8158  -3.8083
    -3.8023  -3.7916  -3.7871  -3.7791  -3.7732  -3.7713  -3.7200  -3.6984
    -3.6828  -3.6640  -3.6154  -3.5962  -3.5904  -3.5777  -3.5748  -3.5728
    -3.5396  -3.5270  -3.5241  -3.5183  -3.5126  -3.4958  -3.4948  -3.4917
    -3.4840  -3.4738  -3.4636  -3.4599  -3.4548  -3.4512  -3.4447  -3.4392
    -3.4312  -3.4214  -3.4187  -3.4180  -3.4081  -3.3972  -3.3954  -3.3900
    -3.3722  -3.3453  -3.3331  -3.3281  -3.3234  -3.3211  -3.3184  -3.3139
    -3.3108  -3.2974  -3.2860  -3.2690  -3.2599  -3.2594  -3.2551  -3.2527
    -3.2498  -3.2490  -3.2468  -3.2301  -3.2229  -3.2199  -3.2137  -3.2091
    -3.2036  -3.1961  -3.1895  -3.1850  -3.1824  -3.1793  -3.1680  -3.1585
    -3.1574  -3.1537  -3.1451  -3.1387  -3.1353  -3.1353  -3.1235  -3.1193
    -3.0950  -3.0793  -3.0683  -3.0625  -3.0490  -3.0433  -3.0395  -3.0332
    -3.0068  -3.0000  -2.9973  -2.9956  -2.9947  -2.9930  -2.9898  -2.9841
    -2.9841  -2.9812  -2.9766  -2.9742  -2.9639  -2.9607  -2.9595  -2.9575
    -2.9526  -2.9512  -2.9476  -2.9423  -2.9402  -2.9341  -2.9212  -2.9203
    -2.9168  -2.9153  -2.9074  -2.9035  -2.8969  -2.8889  -2.8772  -2.8705
    -2.8625  -2.8588  -2.8493  -2.8475  -2.8465  -2.8147  -2.7744  -2.7721
    -2.7633  -2.7581  -2.7292  -2.7106  -2.6983  -2.6879  -2.5976  -2.5859
    -2.5742  -2.5608  -2.5523  -2.5390  -2.5300  -2.5170  -2.5141  -2.5102
    -2.5065  -2.4998  -2.4970  -2.4955  -2.4560  -2.3935  -2.3813  -2.3708
    -2.3668  -2.3625  -2.3587  -2.3488  -2.3375  -2.3138  -2.3135

          k =-0.5000-0.2887 0.0000 (386352 PWs)   bands (ev):

  -102.9462 -88.7268 -88.3358 -71.2731 -71.2600 -71.2560 -71.2523 -71.2358
   -71.2267 -71.2125 -66.5943 -66.5943 -66.5943 -66.5942 -66.5930 -66.5930
   -66.5913 -66.5882 -66.5836 -66.5836 -66.5836 -66.5835 -66.5823 -66.5823
   -66.5735 -66.5702 -66.5686 -66.5685 -66.5685 -66.5685 -66.5685 -66.5685
   -66.5684 -66.5682 -66.5672 -66.5672 -66.5672 -66.5672 -66.5641 -66.5641
   -66.5641 -66.5640 -66.5637 -66.5628 -66.5628 -66.5628 -66.5579 -66.5579
   -66.5578 -66.5578 -66.5578 -66.5578 -66.5577 -66.5575 -66.5567 -66.5565
   -66.5565 -66.5565 -66.5565 -66.5534 -66.5534 -66.5533 -66.5532 -66.5521
   -66.5520 -66.5507 -66.5464 -66.5419 -66.5383 -66.5323 -66.5284 -66.5230
   -66.5162 -66.5111 -57.2232 -57.1346 -57.1258 -54.6130 -54.4998 -54.4503
   -54.1954 -54.1455 -54.0716 -40.8963 -40.8963 -40.8962 -40.8962 -40.8962
   -40.8962 -40.8961 -40.8961 -40.8956 -40.8956 -40.8956 -40.8956 -40.8870
   -40.8840 -40.8785 -40.8695 -40.8694 -40.8694 -40.8693 -40.8693 -40.8687
   -40.8687 -40.8636 -40.8574 -40.8574 -40.8573 -40.8572 -40.8567 -40.8567
   -40.8556 -40.8368 -40.8121 -40.8067 -40.8067 -40.8067 -40.8067 -40.8066
   -40.8066 -40.8065 -40.8065 -40.8059 -40.8059 -40.8059 -40.8059 -40.7898
   -40.7808 -40.7762 -40.7672 -40.7586 -40.7520 -40.7481 -40.7481 -40.7480
   -40.7480 -40.7475 -40.7474 -40.7408 -40.7384 -40.7384 -40.7384 -40.7382
   -40.7375 -40.7375 -40.7293 -40.7272 -40.7272 -40.7272 -40.7271 -40.7266
   -40.7266 -40.7166 -40.7144 -40.7111 -40.7089 -40.6988 -40.6977 -40.6977
   -40.6976 -40.6976 -40.6976 -40.6976 -40.6974 -40.6974 -40.6969 -40.6969
   -40.6969 -40.6969 -40.6968 -40.6944 -40.6921 -40.6889 -40.6889 -40.6888
   -40.6888 -40.6882 -40.6882 -40.6793 -40.6775 -40.6769 -40.6769 -40.6769
   -40.6768 -40.6766 -40.6766 -40.6766 -40.6766 -40.6766 -40.6765 -40.6765
   -40.6763 -40.6760 -40.6760 -40.6759 -40.6759 -40.6758 -40.6758 -40.6755
   -40.6734 -40.6697 -40.6679 -40.6679 -40.6678 -40.6678 -40.6672 -40.6672
   -40.6594 -40.6585 -40.6521 -40.6460 -40.6460 -40.6460 -40.6460 -40.6459
   -40.6459 -40.6459 -40.6457 -40.6451 -40.6451 -40.6450 -40.6450 -40.6329
   -40.6290 -40.6230 -40.6221 -40.6113 -40.6112 -40.6112 -40.6112 -40.6112
   -40.6112 -40.6111 -40.6111 -40.6103 -40.6103 -40.6103 -40.6103 -40.5991
   -40.5991 -40.5990 -40.5990 -40.5981 -40.5981 -40.5929 -40.5883 -40.5826
   -40.5820 -40.5798 -40.5797 -40.5797 -40.5796 -40.5788 -40.5788 -40.5739
   -40.5639 -40.5628 -40.5628 -40.5627 -40.5626 -40.5620 -40.5618 -40.5618
   -40.5494 -40.5345 -40.5321 -40.5321 -40.5320 -40.5320 -40.5311 -40.5311
   -40.5120 -40.5089 -40.4951 -20.0894 -19.9006 -19.8452 -19.8323 -19.7482
   -19.7326 -19.6377 -19.6293 -19.5272 -19.4696 -19.4072 -19.4003 -19.3171
   -19.3072 -19.2174 -19.2057 -19.1713 -19.0050 -18.8380 -18.7838 -18.7512
   -18.7331 -18.7012 -18.7001 -18.6957 -18.6918 -18.6795 -18.6548 -18.6418
   -18.6268 -18.6216 -18.6153 -18.5911 -18.5796 -18.5673 -18.5350 -18.5299
   -18.5290 -18.5201 -18.5084 -18.4958 -18.4774 -18.4670 -18.4550 -18.4467
   -18.4297 -18.3895 -18.3850 -18.3842 -18.3749 -18.3641 -18.3420 -18.3151
   -18.3121 -18.2993 -18.2956 -18.2444 -18.2315 -18.2265 -18.2248 -18.1899
   -18.1826 -18.1622 -18.1563 -18.1388 -18.1273 -18.1083 -18.0942 -18.0835
   -18.0802 -18.0740 -18.0736 -18.0703 -18.0653 -18.0516 -18.0485 -18.0434
   -18.0424 -18.0392 -18.0363 -18.0298 -18.0229 -18.0211 -18.0177 -17.9864
   -17.9853 -17.9830 -17.9802 -17.9773 -17.9762 -17.9723 -17.9713 -17.9658
   -17.9563 -17.9284 -17.9235 -17.9143 -17.9121 -17.9109 -17.9069 -17.8712
   -17.8702 -17.8625 -17.8602 -17.8489 -17.8293 -17.8211 -17.8201 -17.8169
   -17.8086 -17.7946 -17.7944 -17.7942 -17.7941 -17.7931 -17.7925 -17.7805
   -17.7792 -17.7613 -17.7587 -17.7369 -17.7344 -17.7178 -17.7143 -17.7027
   -17.7005 -17.6947 -17.6944 -12.1347 -11.9137 -11.8260 -11.7465 -11.7036
   -11.6260 -11.5965 -11.5545 -11.5252 -11.4819 -11.4744 -11.4740 -11.4664
   -11.4643 -11.4431 -11.4293 -11.3978 -11.3703 -11.3614 -11.3591 -11.3506
   -11.3383 -11.3285 -11.3011 -11.2976 -11.2666 -11.2634 -11.2521 -11.2459
   -11.2444 -11.2409 -11.2318 -11.2285 -11.2072 -11.1901 -11.1819 -11.1789
   -11.1727 -11.1557 -11.1526 -11.1509 -11.1425 -11.1400 -11.1226 -11.1224
   -11.1132 -11.1004 -11.0852 -11.0692 -11.0584 -11.0418 -11.0321 -11.0063
   -10.9750 -10.9437 -10.9361 -10.9177 -10.9095 -10.9063 -10.9015 -10.8866
   -10.8759 -10.8556 -10.8230 -10.8177 -10.8099 -10.8088 -10.7955 -10.7920
   -10.7877 -10.7867 -10.7859 -10.7854 -10.7827 -10.7762 -10.7743 -10.7683
   -10.7679 -10.7623 -10.7596 -10.7588 -10.7567 -10.7239 -10.7208 -10.7186
   -10.7182 -10.7104 -10.6852 -10.5402 -10.5381 -10.5172 -10.5082 -10.4841
   -10.4703 -10.4264 -10.4039 -10.3633 -10.3431 -10.2613 -10.2401 -10.1945
   -10.1665 -10.1387 -10.1105 -10.1092 -10.0942 -10.0886 -10.0824 -10.0668
   -10.0530 -10.0220 -10.0131 -10.0116 -10.0077  -9.9993  -9.9945  -9.9866
    -9.9771  -9.9548  -9.9478  -9.9110  -9.9049  -9.9030  -9.8858  -9.8703
    -9.8692  -9.8645  -9.8437  -9.8375  -9.8305  -9.8022  -9.7881  -9.7836
    -9.7758  -9.7630  -9.7512  -9.7449  -9.7373  -9.7008  -9.6857  -9.6682
    -9.6646  -9.6406  -9.6349  -9.6118  -9.6055  -9.6018  -9.5928  -9.5794
    -9.5761  -9.5735  -9.5499  -9.5356  -9.5262  -9.5204  -9.5116  -9.4999
    -9.4677  -9.4666  -9.4526  -9.4526  -9.4505  -9.4474  -9.4431  -9.4343
    -9.4323  -9.4246  -9.4205  -9.3919  -9.3821  -9.3776  -9.3464  -9.3325
    -9.3072  -9.2593  -9.2430  -9.2140  -9.2003  -9.1911  -9.1849  -9.1790
    -9.1702  -9.1566  -9.1372  -9.1296  -9.1135  -9.1034  -9.0931  -9.0857
    -9.0752  -9.0459  -9.0411  -9.0323  -9.0230  -9.0205  -9.0127  -8.9849
    -8.9741  -8.9700  -8.9621  -8.9426  -8.9368  -8.9276  -8.9205  -8.9182
    -8.9074  -8.8824  -8.8718  -8.8672  -8.8663  -8.8641  -8.8621  -8.8589
    -8.8542  -8.8498  -8.8449  -8.8436  -8.8430  -8.8370  -8.8304  -8.8296
    -8.8256  -8.8210  -8.8151  -8.8147  -8.7900  -8.7686  -8.7684  -8.7670
    -8.7656  -8.7620  -8.7602  -8.7500  -8.7379  -8.7373  -8.7310  -8.7085
    -8.7077  -8.7049  -8.7016  -8.6838  -8.6505  -8.6354  -8.6248  -8.6189
    -8.5912  -8.5477  -8.4811  -8.4798  -8.4599  -8.4435  -8.4210  -8.4125
    -8.3875  -8.3421  -8.3282  -8.3186  -8.2699  -8.2648  -8.2153  -8.1595
    -8.1033  -8.1027  -8.1000  -8.0939  -8.0930  -8.0841  -8.0822  -8.0801
    -8.0442  -8.0355  -8.0204  -7.9622  -7.9458  -7.9415  -7.8895  -7.8688
    -7.8613  -7.8479  -7.8317  -7.8230  -7.8114  -7.8063  -7.8026  -7.7957
    -7.7886  -7.7818  -7.7796  -7.7762  -7.7749  -7.7711  -7.7662  -7.7637
    -7.7586  -7.7565  -7.7538  -7.7461  -7.7445  -7.7429  -7.7405  -7.7392
    -7.7386  -7.7339  -7.7331  -7.7324  -7.7252  -7.7132  -7.7072  -7.7061
    -7.7038  -7.6963  -7.6770  -7.6723  -7.6718  -7.6705  -7.6642  -7.6428
    -7.6418  -7.6409  -7.6407  -7.6307  -7.6273  -7.6234  -7.6042  -7.5997
    -7.5949  -7.5873  -7.5829  -7.5823  -7.5785  -7.5768  -7.5607  -7.5596
    -7.5525  -7.5422  -7.5401  -7.5389  -7.5375  -7.5298  -7.5019  -7.4801
    -7.4538  -7.4406  -7.4375  -7.4305  -7.4250  -7.4050  -7.3809  -7.3155
    -7.2644  -7.2424  -7.1617  -7.1499  -7.1464  -7.1430  -7.1404  -7.1143
    -7.1011  -7.0964  -7.0868  -7.0833  -7.0680  -7.0533  -7.0317  -7.0247
    -7.0096  -7.0018  -6.9947  -6.9908  -6.9818  -6.9540  -6.9505  -6.9396
    -6.8916  -6.8886  -6.8856  -6.8680  -6.8659  -6.8561  -6.8444  -6.8341
    -6.8328  -6.8278  -6.8178  -6.7761  -6.7561  -6.7452  -6.7301  -6.7110
    -6.7066  -6.6931  -6.6613  -6.6433  -6.6251  -6.5990  -6.5975  -6.5833
    -6.5813  -6.5802  -6.5796  -6.5695  -6.5644  -6.5627  -6.5621  -6.5576
    -6.5557  -6.5540  -6.5539  -6.5533  -6.5521  -6.5334  -6.5265  -6.5198
    -6.4873  -6.4554  -6.4348  -6.3978  -6.3910  -6.3401  -6.2994  -6.2940
    -6.2929  -6.2901  -6.2804  -6.2777  -6.2523  -6.2522  -6.2481  -6.2473
    -6.2456  -6.2359  -6.2327  -6.2298  -6.2266  -6.2064  -6.1997  -6.1807
    -6.1800  -6.1769  -6.1725  -6.0785  -6.0631  -6.0286  -5.9697  -5.9607
    -5.9570  -5.9206  -5.8932  -5.8898  -5.8319  -5.8302  -5.8265  -5.7823
    -5.7576  -5.6950  -5.6682  -5.5986  -5.5790  -5.5721  -5.5186  -5.4551
    -5.3613  -5.2732  -4.2480  -4.0872  -4.0702  -4.0646  -4.0407  -3.9413
    -3.9250  -3.9064  -3.8972  -3.8864  -3.8502  -3.8219  -3.8161  -3.8079
    -3.8009  -3.7885  -3.7860  -3.7770  -3.7735  -3.7711  -3.7208  -3.7153
    -3.6711  -3.6647  -3.6485  -3.6035  -3.5805  -3.5748  -3.5743  -3.5705
    -3.5325  -3.5279  -3.5242  -3.5174  -3.5078  -3.4996  -3.4955  -3.4891
    -3.4825  -3.4785  -3.4664  -3.4577  -3.4552  -3.4503  -3.4478  -3.4411
    -3.4361  -3.4232  -3.4216  -3.4122  -3.3982  -3.3939  -3.3896  -3.3789
    -3.3581  -3.3463  -3.3371  -3.3256  -3.3231  -3.3208  -3.3163  -3.3146
    -3.3098  -3.2902  -3.2817  -3.2675  -3.2647  -3.2583  -3.2555  -3.2533
    -3.2512  -3.2468  -3.2438  -3.2344  -3.2234  -3.2165  -3.2137  -3.2049
    -3.2034  -3.1952  -3.1910  -3.1848  -3.1828  -3.1770  -3.1706  -3.1593
    -3.1537  -3.1491  -3.1461  -3.1423  -3.1353  -3.1351  -3.1276  -3.1220
    -3.0839  -3.0792  -3.0698  -3.0658  -3.0493  -3.0469  -3.0391  -3.0327
    -3.0012  -2.9989  -2.9972  -2.9955  -2.9946  -2.9942  -2.9897  -2.9845
    -2.9824  -2.9809  -2.9775  -2.9707  -2.9628  -2.9623  -2.9582  -2.9554
    -2.9537  -2.9520  -2.9436  -2.9430  -2.9374  -2.9338  -2.9222  -2.9205
    -2.9172  -2.9162  -2.9077  -2.9037  -2.8968  -2.8843  -2.8797  -2.8711
    -2.8657  -2.8598  -2.8549  -2.8489  -2.8441  -2.8270  -2.7760  -2.7690
    -2.7641  -2.7620  -2.7264  -2.7209  -2.6946  -2.6879  -2.6002  -2.5872
    -2.5712  -2.5586  -2.5497  -2.5395  -2.5293  -2.5215  -2.5167  -2.5091
    -2.5021  -2.5000  -2.4989  -2.4900  -2.4523  -2.4006  -2.3818  -2.3748
    -2.3700  -2.3634  -2.3595  -2.3510  -2.3420  -2.3142  -2.3137

          k =-0.5000-0.8660 0.0000 (386352 PWs)   bands (ev):

  -102.9462 -88.7268 -88.3358 -71.2731 -71.2601 -71.2560 -71.2523 -71.2358
   -71.2267 -71.2125 -66.5943 -66.5943 -66.5943 -66.5941 -66.5930 -66.5930
   -66.5922 -66.5868 -66.5836 -66.5836 -66.5836 -66.5835 -66.5823 -66.5823
   -66.5737 -66.5706 -66.5686 -66.5686 -66.5685 -66.5685 -66.5685 -66.5685
   -66.5683 -66.5683 -66.5672 -66.5672 -66.5672 -66.5672 -66.5662 -66.5641
   -66.5641 -66.5641 -66.5639 -66.5628 -66.5628 -66.5605 -66.5581 -66.5578
   -66.5578 -66.5578 -66.5578 -66.5577 -66.5577 -66.5575 -66.5565 -66.5565
   -66.5565 -66.5565 -66.5558 -66.5534 -66.5534 -66.5533 -66.5533 -66.5521
   -66.5520 -66.5495 -66.5480 -66.5421 -66.5384 -66.5324 -66.5280 -66.5232
   -66.5162 -66.5111 -57.2232 -57.1346 -57.1258 -54.6130 -54.4998 -54.4503
   -54.1954 -54.1455 -54.0716 -40.8963 -40.8963 -40.8963 -40.8962 -40.8962
   -40.8961 -40.8961 -40.8960 -40.8956 -40.8956 -40.8956 -40.8956 -40.8956
   -40.8840 -40.8763 -40.8695 -40.8694 -40.8694 -40.8692 -40.8687 -40.8687
   -40.8636 -40.8585 -40.8574 -40.8574 -40.8573 -40.8572 -40.8567 -40.8567
   -40.8506 -40.8359 -40.8212 -40.8067 -40.8067 -40.8067 -40.8067 -40.8066
   -40.8066 -40.8065 -40.8065 -40.8059 -40.8059 -40.8059 -40.8059 -40.7874
   -40.7843 -40.7819 -40.7671 -40.7586 -40.7523 -40.7482 -40.7481 -40.7481
   -40.7479 -40.7474 -40.7474 -40.7384 -40.7384 -40.7383 -40.7383 -40.7380
   -40.7375 -40.7375 -40.7328 -40.7272 -40.7272 -40.7272 -40.7271 -40.7266
   -40.7266 -40.7153 -40.7137 -40.7096 -40.7061 -40.7033 -40.6982 -40.6977
   -40.6977 -40.6976 -40.6976 -40.6976 -40.6976 -40.6974 -40.6974 -40.6969
   -40.6969 -40.6969 -40.6969 -40.6921 -40.6889 -40.6889 -40.6889 -40.6887
   -40.6882 -40.6882 -40.6854 -40.6826 -40.6797 -40.6777 -40.6769 -40.6769
   -40.6768 -40.6768 -40.6768 -40.6766 -40.6766 -40.6766 -40.6766 -40.6765
   -40.6765 -40.6761 -40.6760 -40.6760 -40.6758 -40.6758 -40.6758 -40.6758
   -40.6728 -40.6679 -40.6679 -40.6678 -40.6678 -40.6672 -40.6672 -40.6666
   -40.6596 -40.6581 -40.6504 -40.6462 -40.6460 -40.6460 -40.6460 -40.6460
   -40.6458 -40.6457 -40.6457 -40.6450 -40.6450 -40.6450 -40.6450 -40.6314
   -40.6281 -40.6252 -40.6181 -40.6112 -40.6112 -40.6112 -40.6112 -40.6112
   -40.6111 -40.6111 -40.6111 -40.6103 -40.6103 -40.6103 -40.6103 -40.5991
   -40.5991 -40.5990 -40.5989 -40.5981 -40.5981 -40.5944 -40.5893 -40.5839
   -40.5820 -40.5799 -40.5798 -40.5798 -40.5794 -40.5788 -40.5788 -40.5735
   -40.5628 -40.5628 -40.5627 -40.5626 -40.5618 -40.5618 -40.5604 -40.5579
   -40.5519 -40.5393 -40.5321 -40.5321 -40.5321 -40.5319 -40.5311 -40.5311
   -40.5213 -40.5103 -40.4861 -20.1018 -19.8752 -19.8450 -19.8196 -19.7473
   -19.7243 -19.6372 -19.6273 -19.5879 -19.4813 -19.4086 -19.4025 -19.3181
   -19.3094 -19.2126 -19.2066 -19.1065 -18.9911 -18.8644 -18.8101 -18.7516
   -18.7364 -18.7006 -18.6991 -18.6960 -18.6938 -18.6742 -18.6495 -18.6355
   -18.6325 -18.6178 -18.6145 -18.6078 -18.5741 -18.5535 -18.5354 -18.5312
   -18.5288 -18.5200 -18.5076 -18.4965 -18.4732 -18.4618 -18.4550 -18.4454
   -18.4243 -18.4027 -18.3890 -18.3832 -18.3802 -18.3592 -18.3368 -18.3201
   -18.3115 -18.2996 -18.2927 -18.2588 -18.2447 -18.2235 -18.2220 -18.1921
   -18.1760 -18.1652 -18.1575 -18.1388 -18.1183 -18.1094 -18.0980 -18.0891
   -18.0766 -18.0747 -18.0735 -18.0729 -18.0526 -18.0482 -18.0477 -18.0436
   -18.0430 -18.0396 -18.0351 -18.0317 -18.0252 -18.0200 -18.0082 -17.9891
   -17.9847 -17.9832 -17.9789 -17.9759 -17.9754 -17.9744 -17.9668 -17.9637
   -17.9564 -17.9338 -17.9223 -17.9186 -17.9118 -17.9096 -17.8990 -17.8749
   -17.8717 -17.8647 -17.8529 -17.8500 -17.8341 -17.8246 -17.8181 -17.8157
   -17.8134 -17.7956 -17.7945 -17.7939 -17.7935 -17.7932 -17.7920 -17.7808
   -17.7791 -17.7616 -17.7585 -17.7369 -17.7344 -17.7177 -17.7146 -17.7026
   -17.7008 -17.6947 -17.6945 -12.1524 -11.9505 -11.8191 -11.7340 -11.6944
   -11.5980 -11.5567 -11.5169 -11.4988 -11.4808 -11.4767 -11.4762 -11.4567
   -11.4558 -11.4371 -11.4296 -11.4127 -11.3819 -11.3714 -11.3686 -11.3497
   -11.3324 -11.3223 -11.3150 -11.2969 -11.2859 -11.2744 -11.2537 -11.2514
   -11.2420 -11.2367 -11.2318 -11.2305 -11.2250 -11.1878 -11.1848 -11.1771
   -11.1762 -11.1655 -11.1587 -11.1484 -11.1460 -11.1377 -11.1321 -11.1227
   -11.1178 -11.1077 -11.0940 -11.0676 -11.0562 -11.0530 -11.0326 -10.9937
   -10.9810 -10.9522 -10.9332 -10.9285 -10.9163 -10.8917 -10.8855 -10.8738
   -10.8656 -10.8568 -10.8288 -10.8170 -10.8128 -10.8061 -10.8020 -10.7981
   -10.7888 -10.7865 -10.7857 -10.7848 -10.7835 -10.7752 -10.7741 -10.7679
   -10.7673 -10.7624 -10.7601 -10.7566 -10.7561 -10.7514 -10.7199 -10.7187
   -10.7181 -10.7178 -10.6673 -10.5378 -10.5269 -10.5161 -10.5091 -10.4806
   -10.4609 -10.4104 -10.3752 -10.3528 -10.3003 -10.2748 -10.2441 -10.2316
   -10.1877 -10.1558 -10.1378 -10.1111 -10.0978 -10.0907 -10.0887 -10.0760
   -10.0408 -10.0291 -10.0199 -10.0102 -10.0065 -10.0048 -10.0006  -9.9921
    -9.9787  -9.9659  -9.9397  -9.9172  -9.9069  -9.9012  -9.8973  -9.8806
    -9.8698  -9.8656  -9.8586  -9.8388  -9.8271  -9.8110  -9.7981  -9.7789
    -9.7651  -9.7575  -9.7505  -9.7421  -9.7305  -9.7149  -9.6876  -9.6839
    -9.6726  -9.6422  -9.6404  -9.6162  -9.6070  -9.6003  -9.5890  -9.5768
    -9.5555  -9.5500  -9.5432  -9.5332  -9.5260  -9.5200  -9.5135  -9.4717
    -9.4673  -9.4661  -9.4586  -9.4536  -9.4421  -9.4376  -9.4369  -9.4334
    -9.4275  -9.4127  -9.4102  -9.3795  -9.3612  -9.3477  -9.3356  -9.3290
[...]
     atom  171 type  2   force =    -0.00000453    0.00000128    0.00000485
     atom  172 type  2   force =    -0.00000107    0.00000123    0.00161545
     atom  173 type  2   force =    -0.00000106    0.00000070   -0.00235989
     atom  174 type  2   force =    -0.00000188   -0.00000255    0.00001366
     atom  175 type  1   force =     0.00000592    0.00001166    0.00003499
     atom  176 type  1   force =     0.00011588    0.00004965    0.00022642
     atom  177 type  2   force =    -0.00041142   -0.00023054    0.00052266
     atom  178 type  2   force =     0.00000370   -0.00001255    0.00001766
     atom  179 type  2   force =    -0.00000777    0.00001122    0.00000669
     atom  180 type  2   force =    -0.00038696   -0.00014851   -0.00035297
     atom  181 type  1   force =     0.00000040    0.00000019    0.00068858
     atom  182 type  1   force =    -0.00001073   -0.00000736    0.00000212
     atom  183 type  2   force =    -0.00000253   -0.00000040    0.00000448
     atom  184 type  2   force =    -0.00000091    0.00000129    0.00161541
     atom  185 type  2   force =    -0.00000107    0.00000081   -0.00235981
     atom  186 type  2   force =    -0.00000370   -0.00000376    0.00000153
     atom  187 type  1   force =     0.00000348    0.00001469    0.00000262
     atom  188 type  1   force =     0.00002662    0.00012409    0.00027137
     atom  189 type  2   force =    -0.00005058   -0.00039705    0.00012013
     atom  190 type  2   force =    -0.00001152    0.00001928    0.00003308
     atom  191 type  2   force =     0.00001233   -0.00000391    0.00000799
     atom  192 type  2   force =    -0.00012079    0.00010501    0.00009890
     atom  193 type  3   force =    -0.00001960   -0.00005157   -0.00041043
     atom  194 type  4   force =     0.00034055   -0.00015866   -0.00004387
     atom  195 type  4   force =     0.00010777    0.00019110    0.00050179

     Total force =     0.003007     Total SCF correction =     0.000224
     Energy error            =      1.8E-05 Ry
     Gradient error          =      9.0E-04 Ry/Bohr

     bfgs converged in  19 scf cycles and  18 bfgs steps
     (criteria: energy <  1.0E-04 Ry, force <  1.0E-03 Ry/Bohr)

     End of BFGS Geometry Optimization

     Final energy             =  -34492.2643922898 Ry

     File ./outdir/pwscf.bfgs deleted, as requested
Begin final coordinates

ATOMIC_POSITIONS (angstrom)
Mo               0.0000119917        1.8193638619       -9.1672481230    0   0   0
Mo               1.5756136568        0.9097075315       -3.0554901653    0   0   0
S                0.0000188998        1.8193822938       -4.6232556019    0   0   0
S                1.5756321638        0.9096773839       -7.6014065489    0   0   0
S                1.5756326175        0.9096785128      -10.7330757790    0   0   0
S                0.0000189190        1.8193860094       -1.4877129945    0   0   0
Mo               0.0001056277        1.8193738375        3.0566198832
Mo               1.5770864142        0.9010539585        9.1698607969
S               -0.0007730495        1.8345742577        7.6227339824
S                1.5749356921        0.9094405730        4.6244954300
S                1.5758830972        0.9095082442        1.4891488923
S               -0.0027811542        1.7538564577       10.7923588801
Mo              -1.5756053507        4.5484193819       -9.1672481230    0   0   0
Mo               0.0000378379        3.6387394919       -3.0554952701    0   0   0
S               -1.5755913433        4.5484363582       -4.6232494962    0   0   0
S                0.0000148214        3.6387329039       -7.6014065489    0   0   0
S                0.0000152751        3.6387340328      -10.7330757790    0   0   0
S               -1.5755906502        4.5484413613       -1.4877305502    0   0   0
Mo              -1.5752692020        4.5480942542        3.0572843643
Mo              -0.0104385006        3.6238163042        9.2018141947
S               -1.5678778270        4.5472874354        7.6269800978
S                0.0001739880        3.6383677994        4.6254785541
S                0.0005184747        3.6389206179        1.4894182014
S               -1.6483549628        4.5826308387       10.7698334708
Mo              -3.1512226931        7.2774749019       -9.1672481230    0   0   0
Mo              -1.5755910988        6.3678216792       -3.0555115988    0   0   0
S               -3.1512162438        7.2774954350       -4.6232578178    0   0   0
S               -1.5756025210        6.3677884239       -7.6014065489    0   0   0
S               -1.5756020673        6.3677895528      -10.7330757790    0   0   0
S               -3.1512127704        7.2774877076       -1.4877200710    0   0   0
Mo              -3.1511463618        7.2770016050        3.0574172330
Mo              -1.5954141710        6.3795545390        9.1801785968
S               -3.1576790941        7.2745375697        7.5953172134
S               -1.5753096226        6.3670796701        4.6255473398
S               -1.5754642849        6.3673809122        1.4895824092
S               -3.1643581012        7.2929657234       10.7440711403
Mo              -4.7268400355       10.0065304219       -9.1672481230    0   0   0
Mo              -3.1512405618        9.0968403586       -3.0554816746    0   0   0
S               -4.7268341792       10.0065523623       -4.6232463762    0   0   0
S               -3.1512198634        9.0968439439       -7.6014065489    0   0   0
S               -3.1512194097        9.0968450728      -10.7330757790    0   0   0
S               -4.7268370797       10.0065537885       -1.4877176751    0   0   0
Mo              -4.7269396227       10.0061575179        3.0568367492
Mo              -3.1549857876        9.0965222144        9.1618910110
S               -4.7361070075       10.0031281665        7.5975509508
S               -3.1512541180        9.0966326635        4.6245311066
S               -3.1512125325        9.0962278491        1.4891932083
S               -4.7185568878       10.0057535418       10.7404920015
Mo               3.1512517547        1.8193638619       -9.1672481230    0   0   0
Mo               4.7269020221        0.9097289540       -3.0554823951    0   0   0
S                3.1512612351        1.8193882564       -4.6232320683    0   0   0
S                4.7268719268        0.9096773839       -7.6014065489    0   0   0
S                4.7268723805        0.9096785128      -10.7330757790    0   0   0
S                3.1512592485        1.8193890201       -1.4877261251    0   0   0
Mo               3.1512643400        1.8191172002        3.0573863236
Mo               4.7293818510        0.8989949798        9.1491116324
S                3.1496631902        1.7957309162        7.5743396127
S                4.7274405574        0.9090355559        4.6239961543
S                4.7268357756        0.9093792091        1.4891368395
S                3.1648487498        1.7888897098       10.7260131802
Mo               1.5756344123        4.5484193819       -9.1672481230    0   0   0
Mo               3.1512756394        3.6387769522       -3.0554814834    0   0   0
S                1.5756504879        4.5484423799       -4.6232390542    0   0   0
S                3.1512545844        3.6387329039       -7.6014065489    0   0   0
S                3.1512550381        3.6387340328      -10.7330757790    0   0   0
S                1.5756466253        4.5484431864       -1.4877251801    0   0   0
Mo               1.5758784374        4.5482235616        3.0579676815
Mo               3.1867009076        3.5967387953        9.1506294010
S                1.5677824211        4.5500776355        7.6463139148
S                3.1515766051        3.6386047426        4.6259088510
S                3.1512018547        3.6385274830        1.4897990951
S                1.6704445576        4.4742858981       10.7340621226
Mo               0.0000170699        7.2774749019       -9.1672481230    0   0   0
Mo               1.5756764447        6.3678236689       -3.0554877708    0   0   0
S                0.0000381981        7.2774979204       -4.6232454413    0   0   0
S                1.5756372420        6.3677884239       -7.6014065489    0   0   0
S                1.5756376957        6.3677895528      -10.7330757790    0   0   0
S                0.0000328088        7.2774946042       -1.4877307940    0   0   0
Mo               0.0003685675        7.2765851601        3.0574102963
Mo               1.5688115132        6.3848980169        9.1932935595
S                0.0040020941        7.2697772054        7.6264613815
S                1.5761285043        6.3675166526        4.6263969898
S                1.5758120700        6.3670697531        1.4896649431
S               -0.0743266550        7.3160895603       10.7994187344
Mo              -1.5756002725       10.0065304219       -9.1672481230    0   0   0
Mo               0.0000873425        9.0968676911       -3.0554912329    0   0   0
S               -1.5755883952       10.0065504530       -4.6232240150    0   0   0
S                0.0000198996        9.0968439439       -7.6014065489    0   0   0
S                0.0000203533        9.0968450728      -10.7330757790    0   0   0
S               -1.5755859047       10.0065492576       -1.4877362381    0   0   0
Mo              -1.5754190584       10.0058830743        3.0566900557
Mo              -0.0064267334        9.1039495797        9.1707144831
S               -1.5753372678        9.9944524477        7.5875405747
S                0.0002187991        9.0958842011        4.6243752936
S                0.0003762161        9.0959408448        1.4892388471
S               -1.5822614158       10.0127246996       10.7317411879
Mo               6.3024915177        1.8193638619       -9.1672481230    0   0   0
Mo               7.8781001445        0.9096521684       -3.0554919963    0   0   0
S                6.3025008696        1.8193826232       -4.6232480596    0   0   0
S                7.8781116898        0.9096773839       -7.6014065489    0   0   0
S                7.8781121435        0.9096785128      -10.7330757790    0   0   0
S                6.3025042007        1.8193849068       -1.4877147524    0   0   0
Mo               6.3028286374        1.8190278584        3.0565860930
Mo               7.8745037524        0.9122281546        9.1507226552
S                6.3029735296        1.8160709423        7.5765345506
S                7.8787349709        0.9095649828        4.6240840742
S                7.8784011536        0.9091286716        1.4889211132
S                6.3052702957        1.8082305622       10.7208805960
Mo               4.7268741753        4.5484193819       -9.1672481230    0   0   0
Mo               6.3024679138        3.6387501714       -3.0554895197    0   0   0
S                4.7268748770        4.5484386753       -4.6232519432    0   0   0
S                6.3024943474        3.6387329039       -7.6014065489    0   0   0
S                6.3024948011        3.6387340328      -10.7330757790    0   0   0
S                4.7268770533        4.5484432419       -1.4877137856    0   0   0
Mo               4.7268739146        4.5482490525        3.0573079582
Mo               6.3163485673        3.6268529626        9.1516980041
S                4.7394437518        4.5690280853        7.6112183327
S                6.3024776708        3.6382547137        4.6247877561
S                6.3026574823        3.6387180036        1.4893929817
S                4.7489067902        4.4444834627       10.7594415249
Mo               3.1512568329        7.2774749019       -9.1672481230    0   0   0
Mo               4.7268384135        6.3678043337       -3.0554959052    0   0   0
S                3.1512606125        7.2774972547       -4.6232589675    0   0   0
S                4.7268770050        6.3677884239       -7.6014065489    0   0   0
S                4.7268774587        6.3677895528      -10.7330757790    0   0   0
S                3.1512629079        7.2774963749       -1.4877081835    0   0   0
Mo               3.1512352764        7.2770105747        3.0571990525
Mo               4.7334757534        6.3691252878        9.2142863198
S                3.1542464687        7.2754874841        7.6489978390
S                4.7267809523        6.3678094847        4.6248270157
S                4.7265755866        6.3672790043        1.4890451160
S                3.1400528601        7.4138841103       10.7860642189
Mo               1.5756394905       10.0065304219       -9.1672481230    0   0   0
Mo               3.1512330605        9.0968514907       -3.0554878870    0   0   0
S                1.5756499830       10.0065443759       -4.6232632674    0   0   0
S                3.1512596626        9.0968439439       -7.6014065489    0   0   0
S                3.1512601163        9.0968450728      -10.7330757790    0   0   0
S                1.5756503041       10.0065459699       -1.4877044377    0   0   0
Mo               1.5759207122       10.0060083607        3.0570436275
Mo               3.1513225766        9.1412063795        9.1589909176
S                1.5661213465       10.0107571032        7.5824442543
S                3.1513159072        9.0962204752        4.6253539868
S                3.1514936850        9.0963663402        1.4894394551
S                1.5668214406       10.0292327255       10.7275140798
Mo               9.4537312807        1.8193638619       -9.1672481230    0   0   0
Mo              11.0293863460        0.9096952246       -3.0554894007    0   0   0
S                9.4537395970        1.8193770750       -4.6232328036    0   0   0
S               11.0293514528        0.9096773839       -7.6014065489    0   0   0
S               11.0293519066        0.9096785128      -10.7330757790    0   0   0
S                9.4537393632        1.8193794783       -1.4877366147    0   0   0
Mo               9.4540942458        1.8192149353        3.0565794095
Mo              11.0297304968        0.9094753340        9.1720747953
S                9.4592500028        1.8208088874        7.5905571971
S               11.0297041427        0.9099298595        4.6245212593
S               11.0295861475        0.9091141147        1.4890571376
S                9.4442690552        1.8196287630       10.7282460219
Mo               7.8781139383        4.5484193819       -9.1672481230    0   0   0
Mo               9.4537539161        3.6387607911       -3.0554933032    0   0   0
S                7.8781175448        4.5484378232       -4.6232366318    0   0   0
S                9.4537341104        3.6387329039       -7.6014065489    0   0   0
S                9.4537345641        3.6387340328      -10.7330757790    0   0   0
S                7.8781194018        4.5484411585       -1.4877377057    0   0   0
Mo               7.8782785083        4.5482016848        3.0574553483
Mo               9.4404110782        3.6381824858        9.1655744848
S                7.8839311975        4.5556505724        7.5873998460
S                9.4542687343        3.6383701933        4.6249122156
S                9.4539037286        3.6388157228        1.4892789266
S                7.8687026718        4.5426441081       10.7330693615
Mo               6.3024965959        7.2774749019       -9.1672481230    0   0   0
Mo               7.8781361655        6.3678242352       -3.0555014130    0   0   0
S                6.3024973331        7.2774953556       -4.6232392528    0   0   0
S                7.8781167680        6.3677884239       -7.6014065489    0   0   0
S                7.8781172217        6.3677895528      -10.7330757790    0   0   0
S                6.3024989866        7.2774929744       -1.4877349119    0   0   0
Mo               6.3023028250        7.2769936074        3.0565091082
Mo               7.8807230937        6.3686447066        9.1744229056
S                6.2841597918        7.2711115638        7.6336590249
S                7.8775127454        6.3678559068        4.6250035088
S                7.8783902780        6.3672973406        1.4893484127
S                6.3648292214        7.3060093988       10.8003285590
Mo               4.7268792535       10.0065304219       -9.1672481230    0   0   0
Mo               6.3025111524        9.0968738021       -3.0554915260    0   0   0
S                4.7268840634       10.0065452125       -4.6232380477    0   0   0
S                6.3024994256        9.0968439439       -7.6014065489    0   0   0
S                6.3024998793        9.0968450728      -10.7330757790    0   0   0
S                4.7268847312       10.0065459141       -1.4877283294    0   0   0
Mo               4.7270051748       10.0061235966        3.0573762449
Mo               6.3028582038        9.1023057150        9.1801717521
S                4.7386821334       10.0195692490        7.5914950373
S                6.3026392113        9.0957881386        4.6246151155
S                6.3023495488        9.0965797951        1.4890670482
S                4.7270644433       10.0188287202       10.7412580002
Pt               1.6317491897        6.2661109219       12.1185998594
Pd               0.0803574774        3.7930617974       12.1840066137
Pd               4.5915832050        6.3195785393       12.1503365154
End final coordinates



     Writing all to output data dir ./outdir/pwscf.save/ :
     XML data file, charge density, pseudopotentials, collected wavefunctions
 
     init_run     :    175.89s CPU    179.24s WALL (       1 calls)
     electrons    : 153258.08s CPU 155135.30s WALL (      19 calls)
     update_pot   :     30.24s CPU     31.20s WALL (      18 calls)
     forces       :   2494.13s CPU   2537.06s WALL (      19 calls)
     force_dftd3  :     13.17s CPU     13.74s WALL (      19 calls)

     Called by init_run:
     wfcinit      :    152.17s CPU    154.00s WALL (       1 calls)
     potinit      :      1.31s CPU      1.42s WALL (       1 calls)
     hinit0       :     12.83s CPU     12.91s WALL (       1 calls)

     Called by electrons:
     c_bands      : 135484.48s CPU 136737.54s WALL (     248 calls)
     sum_band     :  15910.68s CPU  16231.32s WALL (     248 calls)
     v_of_rho     :     89.58s CPU    100.51s WALL (     251 calls)
     newd         :   1573.68s CPU   1871.35s WALL (     251 calls)
     PAW_pot      :    233.44s CPU    235.65s WALL (     269 calls)
     mix_rho      :     24.13s CPU     27.79s WALL (     248 calls)
     energy_dftd3 :      7.61s CPU      7.66s WALL (      19 calls)

     Called by c_bands:
     init_us_2    :    537.06s CPU    539.70s WALL (    2136 calls)
     init_us_2:cp :    537.05s CPU    539.69s WALL (    2136 calls)
     cegterg      : 133169.85s CPU 134408.86s WALL (    1007 calls)

     Called by *egterg:
     cdiaghg      :   7822.86s CPU   8097.83s WALL (   12173 calls)
     h_psi        :  67518.95s CPU  67924.22s WALL (   12314 calls)
     s_psi        :  15617.91s CPU  15711.54s WALL (   12314 calls)
     g_psi        :    120.10s CPU    120.61s WALL (   11303 calls)

     Called by h_psi:
     h_psi:calbec :  15212.81s CPU  15259.24s WALL (   12314 calls)
     vloc_psi     :  36355.39s CPU  36526.67s WALL (   12314 calls)
     add_vuspsi   :  15673.90s CPU  15768.94s WALL (   12314 calls)

     General routines
     calbec       :  21937.13s CPU  22003.35s WALL (   13682 calls)
     fft          :     66.30s CPU     75.81s WALL (    3468 calls)
     ffts         :      4.45s CPU      4.80s WALL (     499 calls)
     fftw         :  27712.14s CPU  27844.28s WALL ( 7121278 calls)
     interpolate  :      7.82s CPU      8.55s WALL (     251 calls)
 
     Parallel routines
 
     PWSCF        :   1d19h31m CPU   1d20h 5m WALL

 
   This run was terminated on:  11:26:26   1May2024            

=------------------------------------------------------------------------------=
   JOB DONE.
=------------------------------------------------------------------------------=
