
     Program PWSCF v.7.3 starts on  6Apr2024 at 21:32:33 

     This program is part of the open-source Quantum ESPRESSO suite
     for quantum simulation of materials; please cite
         "P. Giannozzi et al., J. Phys.:Condens. Matter 21 395502 (2009);
         "P. Giannozzi et al., J. Phys.:Condens. Matter 29 465901 (2017);
         "P. Giannozzi et al., J. Chem. Phys. 152 154105 (2020);
          URL http://www.quantum-espresso.org", 
     in publications or presentations arising from this work. More details at
     http://www.quantum-espresso.org/quote

     Parallel version (MPI & OpenMP), running on      36 processor cores
     Number of MPI processes:                36
     Threads/MPI process:                     1

     MPI processes distributed on     1 nodes
     558929 MiB available memory on the printing compute node when the environment starts
 
     Waiting for input...
     Reading input from standard input
Warning: card &CELL ignored
Warning: card / ignored

     Current dimensions of program PWSCF are:
     Max number of different atomic species (ntypx) = 10
     Max number of k-points (npk) =  40000
     Max angular momentum in pseudopotentials (lmaxx) =  4
     file Mo.pbe-spn-kjpaw_psl.1.0.0.UPF: wavefunction(s)  4S 4D renormalized
     file S.pbe-n-kjpaw_psl.1.0.0.UPF: wavefunction(s)  3S 3P renormalized
     file Pt.pbe-spfn-kjpaw_psl.1.0.0.UPF: wavefunction(s)  5P 4F renormalized
     file Pd.pbe-spn-kjpaw_psl.1.0.0.UPF: wavefunction(s)  4S 5S 4D renormalized
 
     R & G space division:  proc/nbgrp/npool/nimage =      36
     Subspace diagonalization in iterative solution of the eigenvalue problem:
     one sub-group per band group will be used
     scalapack distributed-memory algorithm (size of sub-group:  6*  6 procs)

 
     Parallelization info
     --------------------
     sticks:   dense  smooth     PW     G-vecs:    dense   smooth      PW
     Min         585     334     89               198743    85850   11735
     Max         586     335     90               198750    85861   11748
     Sum       21073   12049   3205              7154885  3090769  422587
 
     Using Slab Decomposition
 


     bravais-lattice index     =            0
     lattice parameter (alat)  =      23.8199  a.u.
     unit-cell volume          =   33861.0370 (a.u.)^3
     number of atoms/cell      =          195
     number of atomic types    =            4
     number of electrons       =      1746.00
     number of Kohn-Sham states=         1048
     kinetic-energy cutoff     =      77.0000  Ry
     charge density cutoff     =     539.0000  Ry
     scf convergence threshold =      1.0E-06
     mixing beta               =       0.2000
     number of iterations used =            8  plain     mixing
     energy convergence thresh.=      1.0E-04
     force convergence thresh. =      1.0E-03
     Exchange-correlation= SLA  PW   PBX  PBC
                           (   1   4   3   4   0   0   0)
     nstep                     =         1000


     Effective Screening Medium Method
     =================================
     Boundary Conditions: Vacuum-Slab-Vacuum
     total charge in unit cell        =   0.0000
     grid points for fit at edges     =        4 
 

     celldm(1)=  23.819920  celldm(2)=   0.000000  celldm(3)=   0.000000
     celldm(4)=   0.000000  celldm(5)=   0.000000  celldm(6)=   0.000000

     crystal axes: (cart. coord. in units of alat)
               a(1) = (   1.000000   0.000000   0.000000 )  
               a(2) = (  -0.499999   0.866026   0.000000 )  
               a(3) = (   0.000000   0.000000   2.893000 )  

     reciprocal axes: (cart. coord. in units 2 pi/alat)
               b(1) = (  1.000000  0.577349  0.000000 )  
               b(2) = (  0.000000  1.154700  0.000000 )  
               b(3) = (  0.000000  0.000000  0.345662 )  


     PseudoPot. # 1 for Mo read from file:
     ./pseudo/Mo.pbe-spn-kjpaw_psl.1.0.0.UPF
     MD5 check sum: 317bf72632116215fd98f72de1686f13
     Pseudo is Projector augmented-wave + core cor, Zval = 14.0
     Generated using 'atomic' code by A. Dal Corso  v.7.2
     Shape of augmentation charge: PSQ
     Using radial grid of 1229 points,  6 beta functions with: 
                l(1) =   0
                l(2) =   0
                l(3) =   1
                l(4) =   1
                l(5) =   2
                l(6) =   2
     Q(r) pseudized with 0 coefficients 


     PseudoPot. # 2 for S  read from file:
     ./pseudo/S.pbe-n-kjpaw_psl.1.0.0.UPF
     MD5 check sum: 8b7b5302570d38d5e87fed6a1065abda
     Pseudo is Projector augmented-wave + core cor, Zval =  6.0
     Generated using 'atomic' code by A. Dal Corso  v.7.2
     Shape of augmentation charge: PSQ
     Using radial grid of 1151 points,  6 beta functions with: 
                l(1) =   0
                l(2) =   0
                l(3) =   1
                l(4) =   1
                l(5) =   2
                l(6) =   2
     Q(r) pseudized with 0 coefficients 


     PseudoPot. # 3 for Pt read from file:
     ./pseudo/Pt.pbe-spfn-kjpaw_psl.1.0.0.UPF
     MD5 check sum: 620096ebf4e6ebacc94de60fd67efcb5
     Pseudo is Projector augmented-wave + core cor, Zval = 32.0
     Generated using 'atomic' code by A. Dal Corso  v.7.2
     Shape of augmentation charge: PSQ
     Using radial grid of 1277 points,  8 beta functions with: 
                l(1) =   0
                l(2) =   0
                l(3) =   1
                l(4) =   1
                l(5) =   2
                l(6) =   2
                l(7) =   3
                l(8) =   3
     Q(r) pseudized with 0 coefficients 


     PseudoPot. # 4 for Pd read from file:
     ./pseudo/Pd.pbe-spn-kjpaw_psl.1.0.0.UPF
     MD5 check sum: a60571a671f2502b8a6a4569d20a6edb
     Pseudo is Projector augmented-wave + core cor, Zval = 18.0
     Generated using 'atomic' code by A. Dal Corso  v.7.2
     Shape of augmentation charge: PSQ
     Using radial grid of 1235 points,  6 beta functions with: 
                l(1) =   0
                l(2) =   0
                l(3) =   1
                l(4) =   1
                l(5) =   2
                l(6) =   2
     Q(r) pseudized with 0 coefficients 


     atomic species   valence    mass     pseudopotential
     Mo               14.00    95.95000     Mo( 1.00)
     S                 6.00    32.06000     S ( 1.00)
     Pt               32.00   195.08400     Pt( 1.00)
     Pd               18.00   106.42000     Pd( 1.00)

     No symmetry found



   Cartesian axes

     site n.     atom                  positions (alat units)
         1        Mo     tau(   1) = (   0.0000010   0.1443372  -0.7272732  )
         2        Mo     tau(   2) = (   0.1249995   0.0721706  -0.2424038  )
         3        S      tau(   3) = (   0.0000015   0.1443386  -0.3667807  )
         4        S      tau(   4) = (   0.1250010   0.0721682  -0.6030489  )
         5        S      tau(   5) = (   0.1250010   0.0721683  -0.8514963  )
         6        S      tau(   6) = (   0.0000015   0.1443389  -0.1180260  )
         7        Mo     tau(   7) = (   0.0000005   0.1443381   0.2424561  )
         8        Mo     tau(   8) = (   0.1251981   0.0716023   0.7276027  )
         9        S      tau(   9) = (  -0.0003031   0.1454842   0.6052312  )
        10        S      tau(  10) = (   0.1249558   0.0721599   0.3668208  )
        11        S      tau(  11) = (   0.1250088   0.0721517   0.1180857  )
        12        S      tau(  12) = (  -0.0004157   0.1382876   0.8564685  )
        13        Mo     tau(  13) = (  -0.1249989   0.3608437  -0.7272732  )
        14        Mo     tau(  14) = (   0.0000030   0.2886752  -0.2424042  )
        15        S      tau(  15) = (  -0.1249977   0.3608450  -0.3667802  )
        16        S      tau(  16) = (   0.0000012   0.2886747  -0.6030489  )
        17        S      tau(  17) = (   0.0000012   0.2886748  -0.8514963  )
        18        S      tau(  18) = (  -0.1249977   0.3608454  -0.1180274  )
        19        Mo     tau(  19) = (  -0.1249623   0.3608201   0.2425155  )
        20        Mo     tau(  20) = (  -0.0007801   0.2872696   0.7308518  )
        21        S      tau(  21) = (  -0.1240398   0.3604107   0.6055268  )
        22        S      tau(  22) = (   0.0000411   0.2886546   0.3669163  )
        23        S      tau(  23) = (   0.0000035   0.2886726   0.1180964  )
        24        S      tau(  24) = (  -0.1315418   0.3638985   0.8543850  )
        25        Mo     tau(  25) = (  -0.2499987   0.5773502  -0.7272732  )
        26        Mo     tau(  26) = (  -0.1249977   0.5051839  -0.2424055  )
        27        S      tau(  27) = (  -0.2499981   0.5773518  -0.3667809  )
        28        S      tau(  28) = (  -0.1249986   0.5051812  -0.6030489  )
        29        S      tau(  29) = (  -0.1249986   0.5051813  -0.8514963  )
        30        S      tau(  30) = (  -0.2499979   0.5773512  -0.1180266  )
        31        Mo     tau(  31) = (  -0.2499787   0.5773156   0.2425145  )
        32        Mo     tau(  32) = (  -0.1271807   0.5060660   0.7281741  )
        33        S      tau(  33) = (  -0.2502658   0.5775034   0.6017985  )
        34        S      tau(  34) = (  -0.1249543   0.5051367   0.3669386  )
        35        S      tau(  35) = (  -0.1249864   0.5051552   0.1181399  )
        36        S      tau(  36) = (  -0.2525628   0.5785576   0.8514793  )
        37        Mo     tau(  37) = (  -0.3749985   0.7938567  -0.7272732  )
        38        Mo     tau(  38) = (  -0.2500001   0.7216874  -0.2424031  )
        39        S      tau(  39) = (  -0.3749980   0.7938584  -0.3667800  )
        40        S      tau(  40) = (  -0.2499984   0.7216877  -0.6030489  )
        41        S      tau(  41) = (  -0.2499984   0.7216878  -0.8514963  )
        42        S      tau(  42) = (  -0.3749982   0.7938585  -0.1180264  )
        43        Mo     tau(  43) = (  -0.3750043   0.7938372   0.2424536  )
        44        Mo     tau(  44) = (  -0.2503619   0.7218808   0.7263407  )
        45        S      tau(  45) = (  -0.3755748   0.7941519   0.6023691  )
        46        S      tau(  46) = (  -0.2500067   0.7216811   0.3668312  )
        47        S      tau(  47) = (  -0.2499793   0.7216445   0.1181126  )
        48        S      tau(  48) = (  -0.3746959   0.7932047   0.8515893  )
        49        Mo     tau(  49) = (   0.2500010   0.1443372  -0.7272732  )
        50        Mo     tau(  50) = (   0.3750034   0.0721723  -0.2424032  )
        51        S      tau(  51) = (   0.2500017   0.1443391  -0.3667788  )
        52        S      tau(  52) = (   0.3750010   0.0721682  -0.6030489  )
        53        S      tau(  53) = (   0.3750010   0.0721683  -0.8514963  )
        54        S      tau(  54) = (   0.2500016   0.1443391  -0.1180271  )
        55        Mo     tau(  55) = (   0.2500033   0.1443124   0.2424881  )
        56        Mo     tau(  56) = (   0.3752595   0.0716472   0.7255395  )
        57        S      tau(  57) = (   0.2498544   0.1431280   0.6011361  )
        58        S      tau(  58) = (   0.3750516   0.0721435   0.3668117  )
        59        S      tau(  59) = (   0.3750079   0.0721203   0.1180977  )
        60        S      tau(  60) = (   0.2517312   0.1427646   0.8506906  )
        61        Mo     tau(  61) = (   0.1250012   0.3608437  -0.7272732  )
        62        Mo     tau(  62) = (   0.2500029   0.2886782  -0.2424031  )
        63        S      tau(  63) = (   0.1250024   0.3608455  -0.3667794  )
        64        S      tau(  64) = (   0.2500012   0.2886747  -0.6030489  )
        65        S      tau(  65) = (   0.2500012   0.2886748  -0.8514963  )
        66        S      tau(  66) = (   0.1250021   0.3608455  -0.1180270  )
        67        Mo     tau(  67) = (   0.1249995   0.3608273   0.2424838  )
        68        Mo     tau(  68) = (   0.2535704   0.2866116   0.7259154  )
        69        S      tau(  69) = (   0.1241106   0.3617788   0.6079553  )
        70        S      tau(  70) = (   0.2499752   0.2886689   0.3668869  )
        71        S      tau(  71) = (   0.2500098   0.2886475   0.1181123  )
        72        S      tau(  72) = (   0.1336503   0.3523048   0.8541313  )
        73        Mo     tau(  73) = (   0.0000014   0.5773502  -0.7272732  )
        74        Mo     tau(  74) = (   0.1250045   0.5051840  -0.2424036  )
        75        S      tau(  75) = (   0.0000030   0.5773520  -0.3667799  )
        76        S      tau(  76) = (   0.1250014   0.5051812  -0.6030489  )
        77        S      tau(  77) = (   0.1250014   0.5051813  -0.8514963  )
        78        S      tau(  78) = (   0.0000026   0.5773517  -0.1180274  )
        79        Mo     tau(  79) = (   0.0000276   0.5772927   0.2425177  )
        80        Mo     tau(  80) = (   0.1255270   0.5059369   0.7313762  )
        81        S      tau(  81) = (   0.0011816   0.5764663   0.6064450  )
        82        S      tau(  82) = (   0.1250222   0.5051261   0.3669341  )
        83        S      tau(  83) = (   0.1249880   0.5051467   0.1180950  )
        84        S      tau(  84) = (  -0.0088763   0.5830479   0.8565830  )
        85        Mo     tau(  85) = (  -0.1249984   0.7938567  -0.7272732  )
        86        Mo     tau(  86) = (   0.0000069   0.7216896  -0.2424039  )
        87        S      tau(  87) = (  -0.1249975   0.7938582  -0.3667782  )
        88        S      tau(  88) = (   0.0000016   0.7216877  -0.6030489  )
        89        S      tau(  89) = (   0.0000016   0.7216878  -0.8514963  )
        90        S      tau(  90) = (  -0.1249973   0.7938582  -0.1180279  )
        91        Mo     tau(  91) = (  -0.1249699   0.7938095   0.2424907  )
        92        Mo     tau(  92) = (  -0.0004895   0.7231014   0.7275053  )
        93        S      tau(  93) = (  -0.1248847   0.7932555   0.6014963  )
        94        S      tau(  94) = (   0.0000405   0.7216116   0.3668908  )
        95        S      tau(  95) = (   0.0000242   0.7216332   0.1181249  )
        96        S      tau(  96) = (  -0.1259194   0.7949777   0.8510667  )
        97        Mo     tau(  97) = (   0.5000010   0.1443372  -0.7272732  )
        98        Mo     tau(  98) = (   0.6250001   0.0721662  -0.2424040  )
        99        S      tau(  99) = (   0.5000017   0.1443386  -0.3667801  )
       100        S      tau( 100) = (   0.6250010   0.0721682  -0.6030489  )
       101        S      tau( 101) = (   0.6250010   0.0721683  -0.8514963  )
       102        S      tau( 102) = (   0.5000020   0.1443388  -0.1180261  )
       103        Mo     tau( 103) = (   0.5000355   0.1442968   0.2424343  )
       104        Mo     tau( 104) = (   0.6251054   0.0720760   0.7269638  )
       105        S      tau( 105) = (   0.5007812   0.1439212   0.6015111  )
       106        S      tau( 106) = (   0.6250309   0.0721295   0.3668346  )
       107        S      tau( 107) = (   0.6250410   0.0721183   0.1180973  )
       108        S      tau( 108) = (   0.4998652   0.1442971   0.8504179  )
       109        Mo     tau( 109) = (   0.3750012   0.3608437  -0.7272732  )
       110        Mo     tau( 110) = (   0.4999991   0.2886761  -0.2424038  )
       111        S      tau( 111) = (   0.3750012   0.3608452  -0.3667804  )
       112        S      tau( 112) = (   0.5000012   0.2886747  -0.6030489  )
       113        S      tau( 113) = (   0.5000012   0.2886748  -0.8514963  )
       114        S      tau( 114) = (   0.3750014   0.3608455  -0.1180261  )
       115        Mo     tau( 115) = (   0.3749988   0.3608207   0.2424913  )
       116        Mo     tau( 116) = (   0.5005676   0.2886014   0.7258090  )
       117        S      tau( 117) = (   0.3761076   0.3615161   0.6013079  )
       118        S      tau( 118) = (   0.5000282   0.2886169   0.3668001  )
       119        S      tau( 119) = (   0.5000158   0.2886613   0.1180928  )
       120        S      tau( 120) = (   0.3768791   0.3600665   0.8508100  )
       121        Mo     tau( 121) = (   0.2500014   0.5773502  -0.7272732  )
       122        Mo     tau( 122) = (   0.3749983   0.5051825  -0.2424043  )
       123        S      tau( 123) = (   0.2500017   0.5773519  -0.3667810  )
       124        S      tau( 124) = (   0.3750014   0.5051812  -0.6030489  )
       125        S      tau( 125) = (   0.3750014   0.5051813  -0.8514963  )
       126        S      tau( 126) = (   0.2500018   0.5773519  -0.1180256  )
       127        Mo     tau( 127) = (   0.2499755   0.5773110   0.2424609  )
       128        Mo     tau( 128) = (   0.3758691   0.5051374   0.7277779  )
       129        S      tau( 129) = (   0.2483182   0.5768077   0.6062789  )
       130        S      tau( 130) = (   0.3749464   0.5051844   0.3668408  )
       131        S      tau( 131) = (   0.3749944   0.5051486   0.1180923  )
       132        S      tau( 132) = (   0.2574557   0.5818559   0.8585037  )
       133        Mo     tau( 133) = (   0.1250016   0.7938567  -0.7272732  )
       134        Mo     tau( 134) = (   0.2499995   0.7216883  -0.2424036  )
       135        S      tau( 135) = (   0.1250024   0.7938578  -0.3667813  )
       136        S      tau( 136) = (   0.2500016   0.7216877  -0.6030489  )
       137        S      tau( 137) = (   0.2500016   0.7216878  -0.8514963  )
       138        S      tau( 138) = (   0.1250024   0.7938579  -0.1180253  )
       139        Mo     tau( 139) = (   0.1250229   0.7938069   0.2425006  )
       140        Mo     tau( 140) = (   0.2504358   0.7224862   0.7284223  )
       141        S      tau( 141) = (   0.1254429   0.7935457   0.6029055  )
       142        S      tau( 142) = (   0.2500049   0.7216116   0.3668842  )
       143        S      tau( 143) = (   0.2500022   0.7216616   0.1181021  )
       144        S      tau( 144) = (   0.1246626   0.7944127   0.8519137  )
       145        Mo     tau( 145) = (   0.7500010   0.1443372  -0.7272732  )
       146        Mo     tau( 146) = (   0.8750038   0.0721696  -0.2424038  )
       147        S      tau( 147) = (   0.7500016   0.1443382  -0.3667789  )
       148        S      tau( 148) = (   0.8750010   0.0721682  -0.6030489  )
       149        S      tau( 149) = (   0.8750010   0.0721683  -0.8514963  )
       150        S      tau( 150) = (   0.7500016   0.1443384  -0.1180279  )
       151        Mo     tau( 151) = (   0.7500289   0.1443141   0.2424936  )
       152        Mo     tau( 152) = (   0.8748115   0.0715393   0.7280420  )
       153        S      tau( 153) = (   0.7503587   0.1440662   0.6027403  )
       154        S      tau( 154) = (   0.8750369   0.0721618   0.3668742  )
       155        S      tau( 155) = (   0.8750002   0.0721408   0.1181001  )
       156        S      tau( 156) = (   0.7494385   0.1444101   0.8516821  )
       157        Mo     tau( 157) = (   0.6250012   0.3608437  -0.7272732  )
       158        Mo     tau( 158) = (   0.7500028   0.2886769  -0.2424041  )
       159        S      tau( 159) = (   0.6250015   0.3608451  -0.3667792  )
       160        S      tau( 160) = (   0.7500012   0.2886747  -0.6030489  )
       161        S      tau( 161) = (   0.7500012   0.2886748  -0.8514963  )
       162        S      tau( 162) = (   0.6250016   0.3608454  -0.1180280  )
       163        Mo     tau( 163) = (   0.6250302   0.3608127   0.2424760  )
       164        Mo     tau( 164) = (   0.7487590   0.2885376   0.7272130  )
       165        S      tau( 165) = (   0.6254237   0.3608917   0.6015174  )
       166        S      tau( 166) = (   0.7500486   0.2886525   0.3668797  )
       167        S      tau( 167) = (   0.7500385   0.2886557   0.1181169  )
       168        S      tau( 168) = (   0.6239430   0.3610912   0.8510113  )
       169        Mo     tau( 169) = (   0.5000014   0.5773502  -0.7272732  )
       170        Mo     tau( 170) = (   0.6250029   0.5051841  -0.2424047  )
       171        S      tau( 171) = (   0.5000014   0.5773518  -0.3667794  )
       172        S      tau( 172) = (   0.6250014   0.5051812  -0.6030489  )
       173        S      tau( 173) = (   0.6250014   0.5051813  -0.8514963  )
       174        S      tau( 174) = (   0.5000016   0.5773516  -0.1180277  )
       175        Mo     tau( 175) = (   0.4999859   0.5773250   0.2424709  )
       176        Mo     tau( 176) = (   0.6245890   0.5053660   0.7261562  )
       177        S      tau( 177) = (   0.4993068   0.5776651   0.6022414  )
       178        S      tau( 178) = (   0.6249823   0.5051501   0.3668388  )
       179        S      tau( 179) = (   0.6250205   0.5051637   0.1181147  )
       180        S      tau( 180) = (   0.5009766   0.5773609   0.8515797  )
       181        Mo     tau( 181) = (   0.3750016   0.7938567  -0.7272732  )
       182        Mo     tau( 182) = (   0.5000025   0.7216901  -0.2424039  )
       183        S      tau( 183) = (   0.3750019   0.7938578  -0.3667793  )
       184        S      tau( 184) = (   0.5000016   0.7216877  -0.6030489  )
       185        S      tau( 185) = (   0.5000016   0.7216878  -0.8514963  )
       186        S      tau( 186) = (   0.3750020   0.7938579  -0.1180272  )
       187        Mo     tau( 187) = (   0.3749951   0.7938323   0.2424893  )
       188        Mo     tau( 188) = (   0.4998599   0.7217391   0.7271366  )
       189        S      tau( 189) = (   0.3746033   0.7939741   0.6029663  )
       190        S      tau( 190) = (   0.4999946   0.7216688   0.3668260  )
       191        S      tau( 191) = (   0.4999891   0.7216628   0.1180901  )
       192        S      tau( 192) = (   0.3755955   0.7938624   0.8526444  )
       193        Pt     tau( 193) = (   0.1194898   0.4990527   0.9549993  )
       194        Pd     tau( 194) = (   0.0026419   0.2990244   0.9662205  )
       195        Pt     tau( 195) = (   0.0026180   0.2990093   1.1566083  )

     --------------------------------------------
     DFT-D3 Dispersion Correction (3-body terms):
     --------------------------------------------
       Reference C6 values for interpolation: 

         atom   Coordination number   C6
         S          0.000           268.01
         S          0.995           261.99
         S          1.990           251.62
         Mo         0.000          1691.79
         Mo         1.942          1004.01
         Mo        11.056           674.22
         Pd         0.000          1217.01
         Pd         1.863           573.90
         Pd         5.710           531.75
         Pt         0.000           782.29
         Pt         1.919           692.72
         Pt         6.667           673.75

       Values used:

         atom   Coordination number  R0_AB[au]  C6      C8
         Mo        10.208            3.547    674.22  77634.20
         Mo        10.221            3.547    674.22  77634.20
         S          3.858            3.128    251.62  12327.25
         S          3.859            3.128    251.62  12327.25
         S          3.758            3.128    251.62  12327.25
         S          3.859            3.128    251.62  12327.25
         Mo        10.221            3.547    674.22  77634.20
         Mo        10.229            3.547    674.22  77634.20
         S          3.849            3.128    251.62  12327.25
         S          3.859            3.128    251.62  12327.25
         S          3.859            3.128    251.62  12327.25
         S          4.626            3.128    251.62  12327.25
         Mo        10.208            3.547    674.22  77634.20
         Mo        10.221            3.547    674.22  77634.20
         S          3.858            3.128    251.62  12327.25
         S          3.859            3.128    251.62  12327.25
         S          3.758            3.128    251.62  12327.25
         S          3.859            3.128    251.62  12327.25
         Mo        10.222            3.547    674.22  77634.20
         Mo        10.722            3.547    674.22  77634.20
         S          3.862            3.128    251.62  12327.25
         S          3.850            3.128    251.62  12327.25
         S          3.859            3.128    251.62  12327.25
         S          4.673            3.128    251.62  12327.25
         Mo        10.208            3.547    674.22  77634.20
         Mo        10.221            3.547    674.22  77634.20
         S          3.858            3.128    251.62  12327.25
         S          3.859            3.128    251.62  12327.25
         S          3.758            3.128    251.62  12327.25
         S          3.859            3.128    251.62  12327.25
         Mo        10.220            3.547    674.22  77634.20
         Mo        10.171            3.547    674.22  77634.20
         S          3.842            3.128    251.62  12327.25
         S          3.853            3.128    251.62  12327.25
         S          3.859            3.128    251.62  12327.25
         S          3.843            3.128    251.62  12327.25
         Mo        10.208            3.547    674.22  77634.20
         Mo        10.220            3.547    674.22  77634.20
         S          3.858            3.128    251.62  12327.25
         S          3.859            3.128    251.62  12327.25
         S          3.758            3.128    251.62  12327.25
         S          3.859            3.128    251.62  12327.25
         Mo        10.220            3.547    674.22  77634.20
         Mo        10.260            3.547    674.22  77634.20
         S          3.856            3.128    251.62  12327.25
         S          3.861            3.128    251.62  12327.25
         S          3.859            3.128    251.62  12327.25
         S          3.808            3.128    251.62  12327.25
         Mo        10.208            3.547    674.22  77634.20
         Mo        10.221            3.547    674.22  77634.20
         S          3.858            3.128    251.62  12327.25
         S          3.859            3.128    251.62  12327.25
         S          3.758            3.128    251.62  12327.25
         S          3.859            3.128    251.62  12327.25
         Mo        10.220            3.547    674.22  77634.20
         Mo        10.278            3.547    674.22  77634.20
         S          3.837            3.128    251.62  12327.25
         S          3.863            3.128    251.62  12327.25
         S          3.859            3.128    251.62  12327.25
         S          3.842            3.128    251.62  12327.25
         Mo        10.208            3.547    674.22  77634.20
         Mo        10.221            3.547    674.22  77634.20
         S          3.858            3.128    251.62  12327.25
         S          3.859            3.128    251.62  12327.25
         S          3.758            3.128    251.62  12327.25
         S          3.859            3.128    251.62  12327.25
         Mo        10.222            3.547    674.22  77634.20
         Mo        10.177            3.547    674.22  77634.20
         S          3.873            3.128    251.62  12327.25
         S          3.855            3.128    251.62  12327.25
         S          3.859            3.128    251.62  12327.25
         S          5.648            3.128    251.62  12327.25
         Mo        10.208            3.547    674.22  77634.20
         Mo        10.221            3.547    674.22  77634.20
         S          3.858            3.128    251.62  12327.25
         S          3.859            3.128    251.62  12327.25
         S          3.758            3.128    251.62  12327.25
         S          3.859            3.128    251.62  12327.25
         Mo        10.222            3.547    674.22  77634.20
         Mo        10.867            3.547    674.22  77634.20
         S          3.860            3.128    251.62  12327.25
         S          3.850            3.128    251.62  12327.25
         S          3.859            3.128    251.62  12327.25
         S          4.673            3.128    251.62  12327.25
         Mo        10.208            3.547    674.22  77634.20
         Mo        10.221            3.547    674.22  77634.20
         S          3.858            3.128    251.62  12327.25
         S          3.859            3.128    251.62  12327.25
         S          3.758            3.128    251.62  12327.25
         S          3.859            3.128    251.62  12327.25
         Mo        10.220            3.547    674.22  77634.20
         Mo        10.214            3.547    674.22  77634.20
         S          3.850            3.128    251.62  12327.25
         S          3.856            3.128    251.62  12327.25
         S          3.859            3.128    251.62  12327.25
         S          3.827            3.128    251.62  12327.25
         Mo        10.208            3.547    674.22  77634.20
         Mo        10.221            3.547    674.22  77634.20
         S          3.858            3.128    251.62  12327.25
         S          3.859            3.128    251.62  12327.25
         S          3.758            3.128    251.62  12327.25
         S          3.859            3.128    251.62  12327.25
         Mo        10.220            3.547    674.22  77634.20
         Mo        10.250            3.547    674.22  77634.20
         S          3.856            3.128    251.62  12327.25
         S          3.861            3.128    251.62  12327.25
         S          3.859            3.128    251.62  12327.25
         S          3.790            3.128    251.62  12327.25
         Mo        10.208            3.547    674.22  77634.20
         Mo        10.221            3.547    674.22  77634.20
         S          3.858            3.128    251.62  12327.25
         S          3.859            3.128    251.62  12327.25
         S          3.758            3.128    251.62  12327.25
         S          3.859            3.128    251.62  12327.25
         Mo        10.220            3.547    674.22  77634.20
         Mo        10.277            3.547    674.22  77634.20
         S          3.839            3.128    251.62  12327.25
         S          3.863            3.128    251.62  12327.25
         S          3.859            3.128    251.62  12327.25
         S          3.819            3.128    251.62  12327.25
         Mo        10.208            3.547    674.22  77634.20
         Mo        10.221            3.547    674.22  77634.20
         S          3.858            3.128    251.62  12327.25
         S          3.859            3.128    251.62  12327.25
         S          3.758            3.128    251.62  12327.25
         S          3.859            3.128    251.62  12327.25
         Mo        10.222            3.547    674.22  77634.20
         Mo        10.220            3.547    674.22  77634.20
         S          3.850            3.128    251.62  12327.25
         S          3.858            3.128    251.62  12327.25
         S          3.859            3.128    251.62  12327.25
         S          4.642            3.128    251.62  12327.25
         Mo        10.208            3.547    674.22  77634.20
         Mo        10.221            3.547    674.22  77634.20
         S          3.858            3.128    251.62  12327.25
         S          3.859            3.128    251.62  12327.25
         S          3.758            3.128    251.62  12327.25
         S          3.859            3.128    251.62  12327.25
         Mo        10.221            3.547    674.22  77634.20
         Mo        10.226            3.547    674.22  77634.20
         S          3.863            3.128    251.62  12327.25
         S          3.856            3.128    251.62  12327.25
         S          3.859            3.128    251.62  12327.25
         S          3.764            3.128    251.62  12327.25
         Mo        10.208            3.547    674.22  77634.20
         Mo        10.221            3.547    674.22  77634.20
         S          3.858            3.128    251.62  12327.25
         S          3.859            3.128    251.62  12327.25
         S          3.758            3.128    251.62  12327.25
         S          3.859            3.128    251.62  12327.25
         Mo        10.221            3.547    674.22  77634.20
         Mo        10.241            3.547    674.22  77634.20
         S          3.864            3.128    251.62  12327.25
         S          3.857            3.128    251.62  12327.25
         S          3.859            3.128    251.62  12327.25
         S          3.767            3.128    251.62  12327.25
         Mo        10.208            3.547    674.22  77634.20
         Mo        10.220            3.547    674.22  77634.20
         S          3.858            3.128    251.62  12327.25
         S          3.859            3.128    251.62  12327.25
         S          3.758            3.128    251.62  12327.25
         S          3.859            3.128    251.62  12327.25
         Mo        10.220            3.547    674.22  77634.20
         Mo        10.226            3.547    674.22  77634.20
         S          3.854            3.128    251.62  12327.25
         S          3.857            3.128    251.62  12327.25
         S          3.859            3.128    251.62  12327.25
         S          3.809            3.128    251.62  12327.25
         Mo        10.208            3.547    674.22  77634.20
         Mo        10.221            3.547    674.22  77634.20
         S          3.858            3.128    251.62  12327.25
         S          3.859            3.128    251.62  12327.25
         S          3.758            3.128    251.62  12327.25
         S          3.859            3.128    251.62  12327.25
         Mo        10.220            3.547    674.22  77634.20
         Mo        10.267            3.547    674.22  77634.20
         S          3.853            3.128    251.62  12327.25
         S          3.861            3.128    251.62  12327.25
         S          3.859            3.128    251.62  12327.25
         S          3.821            3.128    251.62  12327.25
         Mo        10.208            3.547    674.22  77634.20
         Mo        10.221            3.547    674.22  77634.20
         S          3.858            3.128    251.62  12327.25
         S          3.859            3.128    251.62  12327.25
         S          3.758            3.128    251.62  12327.25
         S          3.859            3.128    251.62  12327.25
         Mo        10.221            3.547    674.22  77634.20
         Mo        10.250            3.547    674.22  77634.20
         S          3.853            3.128    251.62  12327.25
         S          3.860            3.128    251.62  12327.25
         S          3.859            3.128    251.62  12327.25
         S          3.823            3.128    251.62  12327.25
         Pt         4.486            3.168    673.76  70063.16
         Pd         5.086            3.168    531.75  48720.73
         Pt         1.024            3.168    715.58  74412.39

         Molecular C6 ( Ry / a.u.^6 ) =  14177457.35


     number of k points=     4  Gaussian smearing, width (Ry)=  0.0100
                       cart. coord. in units 2pi/alat
        k(    1) = (   0.0000000   0.0000000   0.0000000), wk =   0.5000000
        k(    2) = (   0.0000000  -0.5773499   0.0000000), wk =   0.5000000
        k(    3) = (  -0.5000000  -0.2886744   0.0000000), wk =   0.5000000
        k(    4) = (  -0.5000000  -0.8660242   0.0000000), wk =   0.5000000

     Dense  grid:  7154885 G-vectors     FFT dimensions: ( 180, 180, 512)

     Smooth grid:  3090769 G-vectors     FFT dimensions: ( 135, 135, 400)

     Estimated max dynamical RAM per process >       4.33 GB

     Estimated total dynamical RAM >     155.86 GB

     Initial potential from superposition of free atoms

     starting charge    1745.9388, renormalised to    1746.0000

     negative rho (up, down):  7.355E-04 0.000E+00
     Starting wfcs are 1196 randomized atomic wfcs
     Checking if some PAW data can be deallocated... 

     total cpu time spent up to now is      183.7 secs

     Self-consistent Calculation

     iteration #  1     ecut=    77.00 Ry     beta= 0.20
     Davidson diagonalization with overlap
     ethr =  1.00E-02,  avg # of iterations =  2.0

     Threshold (ethr) on eigenvalues was too large:
     Diagonalizing with lowered threshold

     Davidson diagonalization with overlap
     ethr =  2.04E-04,  avg # of iterations = 16.0

     negative rho (up, down):  1.530E-04 0.000E+00

     total cpu time spent up to now is     2118.1 secs

     total energy              =  -35654.48043374 Ry
     estimated scf accuracy    <       6.19269855 Ry

     iteration #  2     ecut=    77.00 Ry     beta= 0.20
     Davidson diagonalization with overlap
     ethr =  3.55E-04,  avg # of iterations =  8.0

     negative rho (up, down):  1.509E-04 0.000E+00

     total cpu time spent up to now is     2567.6 secs

     total energy              =  -35651.11339486 Ry
     estimated scf accuracy    <      66.02805374 Ry

     iteration #  3     ecut=    77.00 Ry     beta= 0.20
     Davidson diagonalization with overlap
     c_bands:  3 eigenvalues not converged
     c_bands:  3 eigenvalues not converged
     c_bands:  3 eigenvalues not converged
     ethr =  3.55E-04,  avg # of iterations = 16.8

     negative rho (up, down):  1.752E-04 0.000E+00

     total cpu time spent up to now is     3058.0 secs

     total energy              =  -35649.78823689 Ry
     estimated scf accuracy    <     282.37593149 Ry

     iteration #  4     ecut=    77.00 Ry     beta= 0.20
     Davidson diagonalization with overlap
     ethr =  3.55E-04,  avg # of iterations =  7.5

     negative rho (up, down):  3.519E-05 0.000E+00

     total cpu time spent up to now is     3497.3 secs

     total energy              =  -35654.09385891 Ry
     estimated scf accuracy    <       3.90089726 Ry

     iteration #  5     ecut=    77.00 Ry     beta= 0.20
     Davidson diagonalization with overlap
     ethr =  2.23E-04,  avg # of iterations = 10.2

     negative rho (up, down):  1.549E-05 0.000E+00

     total cpu time spent up to now is     3960.8 secs

     total energy              =  -35653.95136651 Ry
     estimated scf accuracy    <       1.85669053 Ry

     iteration #  6     ecut=    77.00 Ry     beta= 0.20
     Davidson diagonalization with overlap
     ethr =  1.06E-04,  avg # of iterations = 11.5

     negative rho (up, down):  1.121E-05 0.000E+00

     total cpu time spent up to now is     4469.1 secs

     total energy              =  -35654.05978034 Ry
     estimated scf accuracy    <       1.39731901 Ry

     iteration #  7     ecut=    77.00 Ry     beta= 0.20
     Davidson diagonalization with overlap
     ethr =  8.00E-05,  avg # of iterations = 14.5

     negative rho (up, down):  1.550E-05 0.000E+00

     total cpu time spent up to now is     5243.0 secs

     total energy              =  -35654.66554885 Ry
     estimated scf accuracy    <       0.88846293 Ry

     iteration #  8     ecut=    77.00 Ry     beta= 0.20
     Davidson diagonalization with overlap
     c_bands:  1 eigenvalues not converged
     ethr =  5.09E-05,  avg # of iterations = 11.8

     negative rho (up, down):  1.929E-05 0.000E+00

     total cpu time spent up to now is     5738.7 secs

     total energy              =  -35654.70164681 Ry
     estimated scf accuracy    <       0.66220088 Ry

     iteration #  9     ecut=    77.00 Ry     beta= 0.20
     Davidson diagonalization with overlap
     ethr =  3.79E-05,  avg # of iterations =  7.2

     negative rho (up, down):  9.358E-05 0.000E+00

     total cpu time spent up to now is     6197.5 secs

     total energy              =  -35654.62717916 Ry
     estimated scf accuracy    <       0.58988526 Ry

     iteration # 10     ecut=    77.00 Ry     beta= 0.20
     Davidson diagonalization with overlap
     ethr =  3.38E-05,  avg # of iterations =  8.2

     negative rho (up, down):  4.259E-04 0.000E+00

     total cpu time spent up to now is     6647.4 secs

     total energy              =  -35654.62907761 Ry
     estimated scf accuracy    <       0.13772919 Ry

     iteration # 11     ecut=    77.00 Ry     beta= 0.20
     Davidson diagonalization with overlap
     c_bands:  1 eigenvalues not converged
     c_bands:  2 eigenvalues not converged
     c_bands:  3 eigenvalues not converged
     c_bands:  2 eigenvalues not converged
     ethr =  7.89E-06,  avg # of iterations = 20.0

     negative rho (up, down):  2.440E-04 0.000E+00

     total cpu time spent up to now is     8090.0 secs

     total energy              =  -35654.76880543 Ry
     estimated scf accuracy    <       0.93241977 Ry

     iteration # 12     ecut=    77.00 Ry     beta= 0.20
     Davidson diagonalization with overlap
     c_bands:  2 eigenvalues not converged
     c_bands:  5 eigenvalues not converged
     c_bands:  2 eigenvalues not converged
     ethr =  7.89E-06,  avg # of iterations = 51.2

     negative rho (up, down):  2.728E-04 0.000E+00

     total cpu time spent up to now is     9298.9 secs

     total energy              =  -35654.78040792 Ry
     estimated scf accuracy    <       0.11401499 Ry

     iteration # 13     ecut=    77.00 Ry     beta= 0.20
     Davidson diagonalization with overlap
     c_bands:  2 eigenvalues not converged
     c_bands:  3 eigenvalues not converged
     c_bands:  4 eigenvalues not converged
     ethr =  6.53E-06,  avg # of iterations = 36.2

     negative rho (up, down):  2.479E-04 0.000E+00

     total cpu time spent up to now is    10198.8 secs

     total energy              =  -35654.77845909 Ry
     estimated scf accuracy    <       0.08694939 Ry

     iteration # 14     ecut=    77.00 Ry     beta= 0.20
     Davidson diagonalization with overlap
     c_bands:  1 eigenvalues not converged
     c_bands:  1 eigenvalues not converged
     c_bands:  2 eigenvalues not converged
     ethr =  4.98E-06,  avg # of iterations = 17.5

     negative rho (up, down):  2.576E-04 0.000E+00

     total cpu time spent up to now is    10690.8 secs

     total energy              =  -35654.78206243 Ry
     estimated scf accuracy    <       0.01820379 Ry

     iteration # 15     ecut=    77.00 Ry     beta= 0.20
     Davidson diagonalization with overlap
     ethr =  1.04E-06,  avg # of iterations = 21.8

     negative rho (up, down):  3.133E-04 0.000E+00

     total cpu time spent up to now is    13348.5 secs

     total energy              =  -35654.82218254 Ry
     estimated scf accuracy    <       0.11331576 Ry

     iteration # 16     ecut=    77.00 Ry     beta= 0.20
     Davidson diagonalization with overlap
     ethr =  1.04E-06,  avg # of iterations =  1.8

     negative rho (up, down):  3.622E-04 0.000E+00

     total cpu time spent up to now is    13765.5 secs

     total energy              =  -35654.81271375 Ry
     estimated scf accuracy    <       0.04672480 Ry

     iteration # 17     ecut=    77.00 Ry     beta= 0.20
     Davidson diagonalization with overlap
     ethr =  1.04E-06,  avg # of iterations =  4.2

     negative rho (up, down):  5.367E-04 0.000E+00

     total cpu time spent up to now is    14228.8 secs

     total energy              =  -35654.79997470 Ry
     estimated scf accuracy    <       0.02474626 Ry

     iteration # 18     ecut=    77.00 Ry     beta= 0.20
     Davidson diagonalization with overlap
     ethr =  1.04E-06,  avg # of iterations = 11.8

     negative rho (up, down):  5.601E-04 0.000E+00

     total cpu time spent up to now is    15074.6 secs

     total energy              =  -35654.81676809 Ry
     estimated scf accuracy    <       0.02531428 Ry

     iteration # 19     ecut=    77.00 Ry     beta= 0.20
     Davidson diagonalization with overlap
     ethr =  1.04E-06,  avg # of iterations =  1.2

     negative rho (up, down):  6.446E-04 0.000E+00

     total cpu time spent up to now is    15465.8 secs

     total energy              =  -35654.81791043 Ry
     estimated scf accuracy    <       0.00200682 Ry

     iteration # 20     ecut=    77.00 Ry     beta= 0.20
     Davidson diagonalization with overlap
     ethr =  1.15E-07,  avg # of iterations = 16.2

     negative rho (up, down):  6.654E-04 0.000E+00

     total cpu time spent up to now is    16280.7 secs

     total energy              =  -35654.81843315 Ry
     estimated scf accuracy    <       0.00275504 Ry

     iteration # 21     ecut=    77.00 Ry     beta= 0.20
     Davidson diagonalization with overlap
     ethr =  1.15E-07,  avg # of iterations =  4.2

     negative rho (up, down):  6.949E-04 0.000E+00

     total cpu time spent up to now is    16714.5 secs

     total energy              =  -35654.81829327 Ry
     estimated scf accuracy    <       0.00084036 Ry

     iteration # 22     ecut=    77.00 Ry     beta= 0.20
     Davidson diagonalization with overlap
     ethr =  4.81E-08,  avg # of iterations = 12.8

     negative rho (up, down):  7.187E-04 0.000E+00

     total cpu time spent up to now is    17406.1 secs

     total energy              =  -35654.81876080 Ry
     estimated scf accuracy    <       0.00009588 Ry

     iteration # 23     ecut=    77.00 Ry     beta= 0.20
     Davidson diagonalization with overlap
     c_bands:  1 eigenvalues not converged
     c_bands:  3 eigenvalues not converged
     c_bands:  1 eigenvalues not converged
     ethr =  5.49E-09,  avg # of iterations = 48.2

     negative rho (up, down):  7.316E-04 0.000E+00

     total cpu time spent up to now is    19799.5 secs

     total energy              =  -35654.81900782 Ry
     estimated scf accuracy    <       0.00014298 Ry

     iteration # 24     ecut=    77.00 Ry     beta= 0.20
     Davidson diagonalization with overlap
     c_bands:  3 eigenvalues not converged
     ethr =  5.49E-09,  avg # of iterations =  9.0

     negative rho (up, down):  7.484E-04 0.000E+00

     total cpu time spent up to now is    20255.2 secs

     total energy              =  -35654.81899237 Ry
     estimated scf accuracy    <       0.00003165 Ry

     iteration # 25     ecut=    77.00 Ry     beta= 0.20
     Davidson diagonalization with overlap
     ethr =  1.81E-09,  avg # of iterations = 13.0

     negative rho (up, down):  7.599E-04 0.000E+00

     total cpu time spent up to now is    21247.9 secs

     total energy              =  -35654.81902752 Ry
     estimated scf accuracy    <       0.00002914 Ry

     iteration # 26     ecut=    77.00 Ry     beta= 0.20
     Davidson diagonalization with overlap
     ethr =  1.67E-09,  avg # of iterations =  2.5

     negative rho (up, down):  7.688E-04 0.000E+00

     total cpu time spent up to now is    21669.8 secs

     total energy              =  -35654.81901511 Ry
     estimated scf accuracy    <       0.00003560 Ry

     iteration # 27     ecut=    77.00 Ry     beta= 0.20
     Davidson diagonalization with overlap
     ethr =  1.67E-09,  avg # of iterations =  1.0

     negative rho (up, down):  7.706E-04 0.000E+00

     total cpu time spent up to now is    22050.2 secs

     total energy              =  -35654.81900934 Ry
     estimated scf accuracy    <       0.00001252 Ry

     iteration # 28     ecut=    77.00 Ry     beta= 0.20
     Davidson diagonalization with overlap
     ethr =  7.17E-10,  avg # of iterations = 13.8

     negative rho (up, down):  7.707E-04 0.000E+00

     total cpu time spent up to now is    22640.9 secs

     total energy              =  -35654.81901196 Ry
     estimated scf accuracy    <       0.00000202 Ry

     iteration # 29     ecut=    77.00 Ry     beta= 0.20
     Davidson diagonalization with overlap
     c_bands:  3 eigenvalues not converged
     c_bands:  3 eigenvalues not converged
     ethr =  1.16E-10,  avg # of iterations = 20.8

     negative rho (up, down):  7.700E-04 0.000E+00

     total cpu time spent up to now is    24288.3 secs

     total energy              =  -35654.81901818 Ry
     estimated scf accuracy    <       0.00000314 Ry

     iteration # 30     ecut=    77.00 Ry     beta= 0.20
     Davidson diagonalization with overlap
     ethr =  1.16E-10,  avg # of iterations =  1.5

     negative rho (up, down):  7.708E-04 0.000E+00

     total cpu time spent up to now is    24687.0 secs

     total energy              =  -35654.81901709 Ry
     estimated scf accuracy    <       0.00000173 Ry

     iteration # 31     ecut=    77.00 Ry     beta= 0.20
     Davidson diagonalization with overlap
     ethr =  9.91E-11,  avg # of iterations =  1.8

     negative rho (up, down):  7.736E-04 0.000E+00

     total cpu time spent up to now is    25095.7 secs

     End of self-consistent calculation

          k = 0.0000 0.0000 0.0000 (386245 PWs)   bands (ev):

  -103.4081-101.3798 -89.7886 -71.7681 -71.7619 -71.7345 -71.6947 -71.6899
   -71.6623 -71.6577 -69.8517 -69.8501 -69.7954 -69.7621 -69.7486 -69.6252
   -69.6249 -66.9165 -66.9102 -66.9099 -66.9083 -66.9032 -66.8991 -66.8927
   -66.8892 -66.8891 -66.8890 -66.8888 -66.8887 -66.8886 -66.8886 -66.8886
   -66.8886 -66.8886 -66.8886 -66.8886 -66.8870 -66.8870 -66.8870 -66.8870
   -66.8870 -66.8870 -66.8843 -66.8807 -66.8757 -66.8685 -66.8680 -66.8677
   -66.8677 -66.8676 -66.8675 -66.8674 -66.8673 -66.8672 -66.8672 -66.8672
   -66.8672 -66.8672 -66.8672 -66.8672 -66.8672 -66.8672 -66.8672 -66.8670
   -66.8656 -66.8656 -66.8656 -66.8656 -66.8656 -66.8656 -66.8656 -66.8656
   -66.8656 -66.8653 -66.8627 -66.8577 -66.8509 -66.8462 -66.8418 -66.8366
   -66.8305 -57.7110 -57.6327 -57.5173 -56.0887 -55.6008 -55.5233 -55.3881
   -55.3498 -55.2979 -41.2377 -41.2375 -41.2373 -41.2373 -41.2373 -41.2373
   -41.2364 -41.2364 -41.2364 -41.2289 -41.2265 -41.2208 -41.1625 -41.1624
   -41.1623 -41.1621 -41.1621 -41.1620 -41.1620 -41.1620 -41.1620 -41.1620
   -41.1620 -41.1619 -41.1610 -41.1610 -41.1610 -41.1610 -41.1610 -41.1610
   -41.1577 -41.1528 -41.1492 -41.1469 -41.1428 -41.1391 -41.1341 -41.0923
   -41.0705 -41.0699 -41.0695 -41.0686 -41.0506 -41.0361 -41.0360 -41.0359
   -41.0358 -41.0357 -41.0357 -41.0357 -41.0357 -41.0357 -41.0356 -41.0356
   -41.0356 -41.0345 -41.0345 -41.0345 -41.0345 -41.0345 -41.0345 -41.0321
   -41.0299 -41.0296 -41.0285 -41.0283 -41.0282 -41.0281 -41.0280 -41.0278
   -41.0278 -41.0278 -41.0278 -41.0278 -41.0278 -41.0278 -41.0268 -41.0268
   -41.0268 -41.0268 -41.0268 -41.0268 -41.0256 -41.0247 -41.0214 -41.0198
   -41.0185 -41.0098 -41.0057 -41.0040 -41.0011 -41.0010 -41.0009 -41.0008
   -41.0007 -41.0006 -41.0006 -41.0006 -41.0006 -41.0006 -41.0006 -41.0006
   -40.9994 -40.9994 -40.9994 -40.9994 -40.9994 -40.9994 -40.9949 -40.9920
   -40.9911 -40.9887 -40.9866 -40.9866 -40.9865 -40.9864 -40.9863 -40.9862
   -40.9861 -40.9860 -40.9859 -40.9859 -40.9859 -40.9859 -40.9858 -40.9858
   -40.9858 -40.9858 -40.9858 -40.9858 -40.9858 -40.9848 -40.9848 -40.9848
   -40.9848 -40.9848 -40.9848 -40.9847 -40.9847 -40.9847 -40.9846 -40.9821
   -40.9808 -40.9796 -40.9777 -40.9719 -40.9709 -40.9694 -40.9226 -40.9225
   -40.9224 -40.9223 -40.9223 -40.9223 -40.9210 -40.9210 -40.9210 -40.9123
   -40.9075 -40.9024 -40.8757 -40.8756 -40.8755 -40.8753 -40.8752 -40.8752
   -40.8752 -40.8752 -40.8752 -40.8751 -40.8751 -40.8751 -40.8739 -40.8739
   -40.8739 -40.8739 -40.8738 -40.8738 -40.8680 -40.8657 -40.8597 -40.8574
   -40.8520 -40.8458 -40.8278 -40.8278 -40.8276 -40.8275 -40.8262 -40.8262
   -40.8108 -40.8075 -20.5034 -20.3876 -20.2866 -20.1776 -19.9657 -19.6194
   -19.5971 -19.5397 -19.5378 -19.5330 -19.5238 -19.5176 -19.5155 -19.4874
   -19.4826 -19.4692 -19.4382 -19.4270 -19.4247 -19.4046 -19.3995 -19.3830
   -19.3330 -19.3262 -19.3250 -19.3185 -19.3165 -19.3089 -19.1972 -19.1049
   -19.0489 -18.9217 -18.8694 -18.8471 -18.7983 -18.7874 -18.7642 -18.7544
   -18.7350 -18.7209 -18.7065 -18.6961 -18.6785 -18.6467 -18.6221 -18.6137
   -18.5732 -18.5708 -18.5617 -18.5357 -18.5273 -18.5261 -18.4747 -18.4708
   -18.4686 -18.4599 -18.4594 -18.4591 -18.4200 -18.4115 -18.4076 -18.4069
   -18.4056 -18.4051 -18.4021 -18.3876 -18.3763 -18.3735 -18.3703 -18.3684
   -18.3662 -18.3629 -18.3623 -18.3603 -18.3487 -18.3353 -18.3352 -18.3325
   -18.3307 -18.3256 -18.3193 -18.3144 -18.3121 -18.3026 -18.2953 -18.2891
   -18.2883 -18.2832 -18.2811 -18.2726 -18.2705 -18.2672 -18.2500 -18.2406
   -18.2342 -18.2199 -18.2051 -18.2042 -18.1999 -18.1987 -18.1984 -18.1849
   -18.1801 -18.1773 -18.1688 -18.1610 -18.1556 -18.1535 -18.1493 -18.1489
   -18.1431 -18.1418 -18.1406 -18.1272 -18.1264 -18.1259 -18.1172 -18.1139
   -18.1107 -18.1063 -18.1060 -18.1041 -18.0833 -18.0829 -18.0816 -18.0806
   -18.0798 -18.0791 -12.5397 -12.3850 -12.2610 -12.1896 -12.1073 -12.0866
   -12.0751 -12.0706 -11.9724 -11.9680 -11.9545 -11.8823 -11.8485 -11.8405
   -11.8340 -11.7292 -11.6722 -11.6495 -11.5683 -11.5367 -11.5313 -11.5229
   -11.5229 -11.5199 -11.4945 -11.4837 -11.4464 -11.4251 -11.4185 -11.4172
   -11.4156 -11.4116 -11.4099 -11.3856 -11.3631 -11.3577 -11.3556 -11.3464
   -11.3451 -11.3409 -11.3392 -11.3344 -11.3323 -11.3197 -11.3127 -11.3008
   -11.2684 -11.2582 -11.2509 -11.2391 -11.2313 -11.2218 -11.2055 -11.1955
   -11.1874 -11.1805 -11.1771 -11.1702 -11.1641 -11.1539 -11.1362 -11.1350
   -11.1307 -11.1280 -11.1194 -11.1170 -11.1161 -11.1146 -11.1136 -11.1098
   -11.1003 -11.0920 -11.0902 -11.0887 -11.0881 -11.0856 -11.0687 -11.0671
   -11.0646 -11.0625 -11.0616 -11.0564 -11.0530 -11.0409 -11.0394 -11.0238
   -11.0235 -11.0229 -11.0227 -11.0189 -11.0181 -10.9684 -10.9514 -10.9442
   -10.9169 -10.8905 -10.8797 -10.8736 -10.8647 -10.8622 -10.8477 -10.7675
   -10.6026 -10.4926 -10.4623 -10.4360 -10.4132 -10.2618 -10.2525 -10.2481
   -10.2032 -10.1341 -10.1117 -10.0968 -10.0912 -10.0837 -10.0810 -10.0663
   -10.0617 -10.0599 -10.0566 -10.0554 -10.0503 -10.0476 -10.0442 -10.0375
   -10.0363 -10.0335 -10.0239 -10.0198 -10.0145  -9.9964  -9.9873  -9.9689
    -9.9309  -9.9190  -9.9161  -9.9142  -9.9107  -9.9079  -9.9041  -9.9038
    -9.9030  -9.9023  -9.8998  -9.8993  -9.8959  -9.8844  -9.8655  -9.8423
    -9.8309  -9.8273  -9.8269  -9.8266  -9.8263  -9.8262  -9.8254  -9.8229
    -9.8045  -9.8036  -9.7910  -9.7840  -9.7621  -9.7588  -9.7392  -9.7325
    -9.7177  -9.6555  -9.6513  -9.6471  -9.6424  -9.6380  -9.6345  -9.6237
    -9.6176  -9.6088  -9.5947  -9.5921  -9.5873  -9.5684  -9.5441  -9.5391
    -9.5324  -9.5106  -9.5087  -9.5003  -9.4793  -9.4729  -9.4692  -9.4657
    -9.4650  -9.4631  -9.4579  -9.4238  -9.4196  -9.4075  -9.3925  -9.3899
    -9.3732  -9.3644  -9.3253  -9.2684  -9.2679  -9.2657  -9.2548  -9.2454
    -9.2404  -9.2402  -9.2339  -9.2237  -9.2153  -9.2068  -9.2028  -9.2027
    -9.2015  -9.1943  -9.1899  -9.1852  -9.1768  -9.1564  -9.1182  -9.1070
    -9.1067  -9.1064  -9.1063  -9.1060  -9.1055  -9.0475  -9.0429  -9.0341
    -9.0306  -9.0232  -9.0169  -8.9632  -8.9560  -8.9557  -8.9503  -8.9441
    -8.9396  -8.8929  -8.8878  -8.8790  -8.8784  -8.8764  -8.8760  -8.8633
    -8.8539  -8.7744  -8.7325  -8.7037  -8.6565  -8.6519  -8.6518  -8.6472
    -8.6468  -8.6410  -8.6407  -8.6360  -8.6354  -8.5919  -8.5659  -8.5630
    -8.5612  -8.5612  -8.5608  -8.5594  -8.5488  -8.5418  -8.5345  -8.5343
    -8.5337  -8.5318  -8.5263  -8.5203  -8.5065  -8.5063  -8.5060  -8.5052
    -8.5042  -8.5023  -8.4050  -8.3092  -8.2814  -8.2299  -8.1594  -8.1465
    -8.1451  -8.1264  -8.0705  -8.0644  -8.0570  -8.0267  -7.9951  -7.9816
    -7.9659  -7.9375  -7.9276  -7.9257  -7.9205  -7.9127  -7.9075  -7.8966
    -7.8889  -7.8866  -7.8742  -7.8501  -7.8432  -7.8304  -7.8273  -7.8213
    -7.8205  -7.8204  -7.8197  -7.8172  -7.8137  -7.8105  -7.7985  -7.7973
    -7.7935  -7.7927  -7.7910  -7.7889  -7.7877  -7.7820  -7.7685  -7.7682
    -7.7678  -7.7675  -7.7672  -7.7658  -7.7463  -7.7419  -7.7273  -7.7170
    -7.7122  -7.7058  -7.6980  -7.6930  -7.6889  -7.6829  -7.6770  -7.6698
    -7.6436  -7.6388  -7.6288  -7.6084  -7.5997  -7.5888  -7.5851  -7.5814
    -7.5775  -7.5727  -7.5710  -7.5689  -7.5514  -7.5487  -7.5360  -7.5352
    -7.5176  -7.5169  -7.4993  -7.4991  -7.4947  -7.4766  -7.4200  -7.4060
    -7.3951  -7.3694  -7.3655  -7.3342  -7.2734  -7.2070  -7.1875  -7.1630
    -7.1542  -7.1406  -7.1211  -7.0941  -7.0783  -7.0674  -7.0638  -7.0478
    -7.0361  -7.0319  -6.9938  -6.9899  -6.9767  -6.9684  -6.9397  -6.9183
    -6.9103  -6.9059  -6.9029  -6.8941  -6.8897  -6.8814  -6.8631  -6.8593
    -6.8452  -6.8319  -6.8258  -6.8236  -6.8105  -6.8010  -6.7979  -6.7976
    -6.7958  -6.7934  -6.7930  -6.7917  -6.7893  -6.7838  -6.7830  -6.7828
    -6.7826  -6.7826  -6.7820  -6.7767  -6.7518  -6.7460  -6.7398  -6.7235
    -6.7105  -6.6988  -6.6949  -6.6920  -6.6725  -6.6564  -6.6394  -6.6226
    -6.6217  -6.6181  -6.6174  -6.6144  -6.6104  -6.5934  -6.5918  -6.5800
    -6.5785  -6.5739  -6.5708  -6.5611  -6.5585  -6.5414  -6.5406  -6.5379
    -6.5368  -6.5348  -6.5333  -6.5145  -6.4963  -6.4524  -6.3207  -6.1305
    -5.9870  -5.8705  -5.6315  -5.4525  -5.3674  -5.3371  -5.3172  -5.2796
    -5.2452  -5.1232  -4.3478  -4.1388  -4.1357  -4.1330  -4.1308  -4.1247
    -4.1146  -4.1123  -4.1105  -4.1080  -4.1075  -4.1042  -4.0803  -3.9877
    -3.9856  -3.9788  -3.9750  -3.9707  -3.9647  -3.9610  -3.9590  -3.9567
    -3.9557  -3.9403  -3.8590  -3.8063  -3.7994  -3.7941  -3.7927  -3.7812
    -3.7753  -3.7686  -3.7597  -3.7563  -3.7551  -3.7530  -3.7508  -3.7423
    -3.7401  -3.7347  -3.7284  -3.7280  -3.7274  -3.7273  -3.7247  -3.7245
    -3.7151  -3.7129  -3.7113  -3.7051  -3.7022  -3.6943  -3.6937  -3.6912
    -3.6887  -3.6851  -3.6849  -3.6779  -3.6756  -3.6716  -3.6459  -3.6369
    -3.6316  -3.6314  -3.6290  -3.6283  -3.6267  -3.6216  -3.6174  -3.6071
    -3.5993  -3.5896  -3.5743  -3.5730  -3.5685  -3.5632  -3.5603  -3.5479
    -3.5149  -3.5095  -3.4985  -3.4888  -3.4821  -3.4787  -3.3745  -3.3627
    -3.3554  -3.3464  -3.3456  -3.3437  -3.3346  -3.3307  -3.3279  -3.3261
    -3.2892  -3.2807  -3.2690  -3.2643  -3.2611  -3.2572  -3.2568  -3.2556
    -3.2541  -3.2485  -3.2479  -3.2478  -3.2464  -3.2402  -3.2384  -3.2364
    -3.2303  -3.2234  -3.2223  -3.2188  -3.2183  -3.2169  -3.2150  -3.2131
    -3.2130  -3.2125  -3.2076  -3.2065  -3.1891  -3.1717  -3.1665  -3.1604
    -3.1526  -3.1481  -3.1397  -3.1341  -3.1074  -3.0911  -3.0909  -3.0902
    -3.0895  -3.0895  -3.0894  -3.0891  -3.0886  -3.0870  -3.0717  -3.0702
    -3.0517  -3.0380  -3.0364  -3.0198  -3.0154  -3.0082  -3.0048  -2.9984
    -2.9546  -2.9513  -2.9244  -2.9225  -2.9192  -2.9102  -2.9083  -2.9055
    -2.9024  -2.9012  -2.8679  -2.8489  -2.8438  -2.8282  -2.8203  -2.8143
    -2.7494  -2.7430  -2.7066  -2.7007  -2.6981  -2.6929  -2.6898  -2.6876

          k = 0.0000-0.5773 0.0000 (386352 PWs)   bands (ev):

  -103.4081-101.3798 -89.7886 -71.7681 -71.7619 -71.7345 -71.6947 -71.6899
   -71.6623 -71.6577 -69.8517 -69.8501 -69.7954 -69.7621 -69.7486 -69.6252
   -69.6250 -66.9157 -66.9042 -66.9040 -66.9039 -66.9037 -66.9037 -66.9021
   -66.9021 -66.8993 -66.8933 -66.8933 -66.8930 -66.8930 -66.8928 -66.8914
   -66.8914 -66.8870 -66.8783 -66.8783 -66.8781 -66.8781 -66.8779 -66.8779
   -66.8779 -66.8779 -66.8771 -66.8763 -66.8763 -66.8763 -66.8763 -66.8738
   -66.8737 -66.8735 -66.8735 -66.8734 -66.8719 -66.8718 -66.8701 -66.8676
   -66.8675 -66.8675 -66.8673 -66.8672 -66.8672 -66.8672 -66.8672 -66.8670
   -66.8656 -66.8656 -66.8656 -66.8656 -66.8630 -66.8630 -66.8628 -66.8628
   -66.8621 -66.8611 -66.8611 -66.8572 -66.8512 -66.8472 -66.8407 -66.8370
   -66.8304 -57.7110 -57.6327 -57.5173 -56.0887 -55.6008 -55.5233 -55.3881
   -55.3498 -55.2979 -41.2060 -41.2059 -41.2059 -41.2058 -41.2057 -41.2057
   -41.2057 -41.2057 -41.2047 -41.2047 -41.2047 -41.2047 -41.2037 -41.1974
   -41.1914 -41.1813 -41.1792 -41.1790 -41.1789 -41.1789 -41.1779 -41.1779
   -41.1756 -41.1673 -41.1670 -41.1670 -41.1668 -41.1668 -41.1658 -41.1658
   -41.1502 -41.1436 -41.1360 -41.1164 -41.1164 -41.1163 -41.1163 -41.1161
   -41.1161 -41.1161 -41.1161 -41.1151 -41.1151 -41.1151 -41.1151 -41.1039
   -41.1021 -41.1015 -41.0965 -41.0913 -41.0690 -41.0577 -41.0576 -41.0573
   -41.0573 -41.0564 -41.0564 -41.0499 -41.0481 -41.0480 -41.0479 -41.0478
   -41.0467 -41.0467 -41.0401 -41.0369 -41.0368 -41.0365 -41.0365 -41.0360
   -41.0355 -41.0355 -41.0282 -41.0219 -41.0136 -41.0073 -41.0072 -41.0072
   -41.0071 -41.0069 -41.0069 -41.0069 -41.0068 -41.0058 -41.0058 -41.0058
   -41.0058 -41.0055 -41.0014 -40.9985 -40.9984 -40.9981 -40.9981 -40.9971
   -40.9971 -40.9940 -40.9922 -40.9877 -40.9866 -40.9866 -40.9864 -40.9864
   -40.9863 -40.9862 -40.9862 -40.9860 -40.9858 -40.9858 -40.9858 -40.9858
   -40.9852 -40.9852 -40.9848 -40.9848 -40.9848 -40.9848 -40.9817 -40.9796
   -40.9776 -40.9775 -40.9774 -40.9771 -40.9771 -40.9761 -40.9761 -40.9729
   -40.9679 -40.9654 -40.9558 -40.9556 -40.9556 -40.9555 -40.9554 -40.9554
   -40.9554 -40.9554 -40.9542 -40.9542 -40.9542 -40.9542 -40.9502 -40.9436
   -40.9380 -40.9362 -40.9209 -40.9209 -40.9209 -40.9209 -40.9207 -40.9207
   -40.9207 -40.9207 -40.9194 -40.9194 -40.9194 -40.9194 -40.9109 -40.9088
   -40.9087 -40.9085 -40.9085 -40.9085 -40.9073 -40.9072 -40.9059 -40.8994
   -40.8936 -40.8895 -40.8893 -40.8892 -40.8892 -40.8879 -40.8879 -40.8812
   -40.8801 -40.8725 -40.8724 -40.8722 -40.8722 -40.8709 -40.8709 -40.8673
   -40.8565 -40.8499 -40.8418 -40.8417 -40.8416 -40.8415 -40.8402 -40.8402
   -40.8271 -40.8177 -20.4005 -20.1761 -20.1550 -20.1188 -20.0588 -20.0267
   -19.9482 -19.9337 -19.8246 -19.7517 -19.7175 -19.6993 -19.6291 -19.6080
   -19.5253 -19.5112 -19.4314 -19.1768 -19.1063 -19.0700 -19.0375 -19.0271
   -19.0098 -19.0059 -19.0038 -18.9970 -18.9722 -18.9484 -18.9389 -18.9330
   -18.9233 -18.9066 -18.8792 -18.8660 -18.8578 -18.8400 -18.8373 -18.8317
   -18.8170 -18.8052 -18.7966 -18.7682 -18.7623 -18.7595 -18.7543 -18.7203
   -18.6989 -18.6948 -18.6884 -18.6620 -18.6596 -18.6508 -18.6211 -18.6080
   -18.6030 -18.5797 -18.5391 -18.5349 -18.5313 -18.5165 -18.4850 -18.4795
   -18.4655 -18.4496 -18.4189 -18.4035 -18.4014 -18.3948 -18.3871 -18.3858
   -18.3830 -18.3821 -18.3681 -18.3599 -18.3573 -18.3553 -18.3519 -18.3510
   -18.3396 -18.3365 -18.3320 -18.3238 -18.3214 -18.3111 -18.2953 -18.2950
   -18.2890 -18.2863 -18.2839 -18.2815 -18.2770 -18.2725 -18.2699 -18.2606
   -18.2360 -18.2304 -18.2219 -18.2187 -18.2105 -18.2024 -18.1786 -18.1759
   -18.1660 -18.1582 -18.1346 -18.1324 -18.1283 -18.1234 -18.1137 -18.1055
   -18.1045 -18.1040 -18.1034 -18.1020 -18.1009 -18.0958 -18.0883 -18.0858
   -18.0698 -18.0674 -18.0463 -18.0441 -18.0275 -18.0246 -18.0124 -18.0107
   -18.0040 -18.0038 -12.4575 -12.2889 -12.0519 -12.0222 -11.9983 -11.9100
   -11.8419 -11.8067 -11.7867 -11.7854 -11.7815 -11.7693 -11.7623 -11.7567
   -11.7461 -11.6953 -11.6912 -11.6740 -11.6709 -11.6678 -11.6485 -11.6212
   -11.6093 -11.6045 -11.5835 -11.5716 -11.5660 -11.5584 -11.5526 -11.5456
   -11.5440 -11.5372 -11.5336 -11.4979 -11.4892 -11.4818 -11.4804 -11.4740
   -11.4583 -11.4527 -11.4518 -11.4454 -11.4315 -11.4309 -11.4261 -11.4014
   -11.3869 -11.3764 -11.3638 -11.3486 -11.3471 -11.3222 -11.2817 -11.2689
   -11.2431 -11.2312 -11.2191 -11.2043 -11.1964 -11.1962 -11.1758 -11.1462
   -11.1340 -11.1237 -11.1190 -11.1138 -11.1046 -11.0979 -11.0967 -11.0962
   -11.0941 -11.0923 -11.0891 -11.0854 -11.0800 -11.0785 -11.0770 -11.0760
   -11.0695 -11.0688 -11.0661 -11.0617 -11.0301 -11.0284 -11.0274 -11.0269
   -11.0028 -10.9350 -10.8603 -10.8290 -10.8150 -10.8124 -10.7969 -10.7699
   -10.7302 -10.6883 -10.6552 -10.5885 -10.5434 -10.5177 -10.4556 -10.4364
   -10.4207 -10.4173 -10.3987 -10.3955 -10.3776 -10.3718 -10.3403 -10.3357
   -10.3218 -10.3196 -10.3185 -10.3131 -10.3056 -10.2978 -10.2710 -10.2595
   -10.2229 -10.2166 -10.2144 -10.1981 -10.1942 -10.1816 -10.1769 -10.1725
   -10.1543 -10.1501 -10.1374 -10.1310 -10.1087 -10.0812 -10.0706 -10.0646
   -10.0530 -10.0504 -10.0250 -10.0180 -10.0064  -9.9864  -9.9708  -9.9667
    -9.9446  -9.9410  -9.9135  -9.9041  -9.9028  -9.8952  -9.8833  -9.8570
    -9.8474  -9.8430  -9.8308  -9.8193  -9.8170  -9.8122  -9.7817  -9.7763
    -9.7733  -9.7592  -9.7580  -9.7532  -9.7521  -9.7435  -9.7391  -9.7330
    -9.7184  -9.7095  -9.6835  -9.6732  -9.6464  -9.6340  -9.6035  -9.5831
    -9.5577  -9.5163  -9.5033  -9.5010  -9.4910  -9.4886  -9.4851  -9.4562
    -9.4468  -9.4363  -9.4279  -9.4188  -9.4151  -9.3967  -9.3749  -9.3666
    -9.3541  -9.3349  -9.3304  -9.3237  -9.3202  -9.3102  -9.3006  -9.2794
    -9.2664  -9.2606  -9.2447  -9.2382  -9.2307  -9.2268  -9.2187  -9.2108
    -9.1902  -9.1823  -9.1758  -9.1731  -9.1725  -9.1700  -9.1623  -9.1562
    -9.1542  -9.1519  -9.1517  -9.1477  -9.1426  -9.1380  -9.1325  -9.1248
    -9.1244  -9.1236  -9.1001  -9.0948  -9.0782  -9.0761  -9.0759  -9.0735
    -9.0695  -9.0678  -9.0596  -9.0476  -9.0458  -9.0254  -9.0182  -9.0160
    -9.0129  -9.0096  -8.9890  -8.9548  -8.9425  -8.9272  -8.9131  -8.9025
    -8.8415  -8.8145  -8.7890  -8.7873  -8.7539  -8.7298  -8.7158  -8.7087
    -8.6448  -8.6357  -8.5881  -8.5688  -8.5372  -8.4808  -8.4348  -8.4120
    -8.4118  -8.4031  -8.4026  -8.3918  -8.3916  -8.3787  -8.3560  -8.3454
    -8.3290  -8.2790  -8.2569  -8.2524  -8.2315  -8.1665  -8.1638  -8.1366
    -8.1273  -8.1243  -8.1165  -8.1088  -8.1010  -8.0983  -8.0924  -8.0888
    -8.0866  -8.0832  -8.0786  -8.0780  -8.0714  -8.0668  -8.0658  -8.0629
    -8.0595  -8.0541  -8.0532  -8.0512  -8.0497  -8.0486  -8.0470  -8.0429
    -8.0424  -8.0388  -8.0283  -8.0207  -8.0172  -8.0143  -8.0116  -8.0052
    -7.9854  -7.9820  -7.9812  -7.9805  -7.9799  -7.9538  -7.9509  -7.9497
    -7.9493  -7.9490  -7.9420  -7.9345  -7.9254  -7.9096  -7.9045  -7.8948
    -7.8928  -7.8906  -7.8891  -7.8814  -7.8746  -7.8699  -7.8675  -7.8537
    -7.8486  -7.8480  -7.8435  -7.8320  -7.8308  -7.8268  -7.8128  -7.7488
    -7.7444  -7.7422  -7.7395  -7.7177  -7.6988  -7.6629  -7.6386  -7.6134
    -7.6004  -7.4708  -7.4624  -7.4545  -7.4535  -7.4437  -7.4236  -7.4169
    -7.4059  -7.4050  -7.3850  -7.3754  -7.3554  -7.3515  -7.3378  -7.3305
    -7.3066  -7.2984  -7.2935  -7.2887  -7.2654  -7.2607  -7.2423  -7.2196
    -7.2079  -7.2007  -7.1849  -7.1782  -7.1675  -7.1583  -7.1524  -7.1445
    -7.1370  -7.1133  -7.0964  -7.0629  -7.0526  -7.0436  -7.0346  -7.0044
    -6.9834  -6.9675  -6.9613  -6.9283  -6.9235  -6.9042  -6.9016  -6.8905
    -6.8896  -6.8888  -6.8874  -6.8729  -6.8724  -6.8715  -6.8709  -6.8638
    -6.8634  -6.8632  -6.8632  -6.8589  -6.8350  -6.8249  -6.7884  -6.7601
    -6.7390  -6.7151  -6.6884  -6.6713  -6.6131  -6.6084  -6.6081  -6.6033
    -6.5868  -6.5799  -6.5645  -6.5617  -6.5612  -6.5572  -6.5566  -6.5561
    -6.5507  -6.5388  -6.5267  -6.5207  -6.5093  -6.5055  -6.4992  -6.4884
    -6.4824  -6.4787  -6.4766  -6.3277  -6.2916  -6.2826  -6.2579  -6.2432
    -6.2108  -6.1910  -6.1712  -6.1430  -6.1320  -6.1251  -6.0271  -5.9777
    -5.9433  -5.8897  -5.8757  -5.7925  -5.3789  -5.3365  -5.3187  -5.2820
    -5.2381  -5.0987  -4.4067  -4.3760  -4.3734  -4.3580  -4.3106  -4.2190
    -4.2083  -4.2022  -4.1980  -4.1632  -4.1381  -4.1259  -4.1232  -4.1141
    -4.1102  -4.0978  -4.0940  -4.0829  -4.0819  -4.0685  -4.0219  -3.9727
    -3.9684  -3.9383  -3.9152  -3.8945  -3.8875  -3.8831  -3.8814  -3.8780
    -3.8398  -3.8347  -3.8324  -3.8207  -3.8084  -3.8048  -3.7982  -3.7930
    -3.7856  -3.7694  -3.7662  -3.7596  -3.7556  -3.7541  -3.7482  -3.7478
    -3.7364  -3.7319  -3.7217  -3.7153  -3.7066  -3.7019  -3.6959  -3.6853
    -3.6631  -3.6377  -3.6352  -3.6311  -3.6287  -3.6270  -3.6249  -3.6208
    -3.6129  -3.5893  -3.5795  -3.5769  -3.5733  -3.5701  -3.5632  -3.5625
    -3.5586  -3.5565  -3.5521  -3.5359  -3.5279  -3.5273  -3.5181  -3.5146
    -3.5133  -3.5048  -3.4945  -3.4917  -3.4911  -3.4784  -3.4683  -3.4654
    -3.4594  -3.4578  -3.4522  -3.4459  -3.4442  -3.4442  -3.4334  -3.4312
    -3.3975  -3.3868  -3.3656  -3.3533  -3.3511  -3.3494  -3.3467  -3.3435
    -3.3104  -3.3070  -3.3060  -3.3049  -3.3041  -3.3027  -3.2955  -3.2927
    -3.2902  -3.2893  -3.2876  -3.2821  -3.2731  -3.2711  -3.2665  -3.2609
    -3.2576  -3.2536  -3.2518  -3.2486  -3.2415  -3.2393  -3.2324  -3.2297
    -3.2277  -3.2241  -3.2163  -3.2139  -3.2065  -3.2005  -3.1866  -3.1750
    -3.1695  -3.1661  -3.1605  -3.1557  -3.1517  -3.1312  -3.0801  -3.0775
    -3.0718  -3.0674  -3.0319  -3.0121  -2.9998  -2.9934  -2.9073  -2.8936
    -2.8790  -2.8592  -2.8549  -2.8447  -2.8344  -2.8238  -2.8223  -2.8130
    -2.8110  -2.8078  -2.8061  -2.8023  -2.7495  -2.7005  -2.6863  -2.6810
    -2.6766  -2.6710  -2.6648  -2.6596  -2.6522  -2.6465  -2.6344  -2.6233

          k =-0.5000-0.2887 0.0000 (386352 PWs)   bands (ev):

  -103.4081-101.3798 -89.7886 -71.7681 -71.7619 -71.7345 -71.6947 -71.6899
   -71.6623 -71.6577 -69.8517 -69.8501 -69.7954 -69.7621 -69.7486 -69.6252
   -69.6250 -66.9158 -66.9040 -66.9039 -66.9037 -66.9037 -66.9029 -66.9021
   -66.9021 -66.9011 -66.8933 -66.8933 -66.8930 -66.8930 -66.8924 -66.8914
   -66.8914 -66.8867 -66.8784 -66.8783 -66.8781 -66.8780 -66.8779 -66.8779
   -66.8779 -66.8779 -66.8774 -66.8763 -66.8763 -66.8763 -66.8763 -66.8738
   -66.8737 -66.8735 -66.8735 -66.8725 -66.8719 -66.8719 -66.8708 -66.8677
   -66.8676 -66.8674 -66.8672 -66.8672 -66.8672 -66.8672 -66.8672 -66.8670
   -66.8656 -66.8656 -66.8656 -66.8656 -66.8631 -66.8630 -66.8628 -66.8628
   -66.8620 -66.8611 -66.8611 -66.8576 -66.8508 -66.8471 -66.8408 -66.8371
   -66.8303 -57.7110 -57.6327 -57.5173 -56.0887 -55.6008 -55.5233 -55.3881
   -55.3498 -55.2979 -41.2060 -41.2060 -41.2060 -41.2057 -41.2057 -41.2057
   -41.2057 -41.2056 -41.2047 -41.2047 -41.2047 -41.2047 -41.2008 -41.1948
   -41.1914 -41.1901 -41.1792 -41.1790 -41.1789 -41.1789 -41.1779 -41.1779
   -41.1770 -41.1671 -41.1670 -41.1668 -41.1668 -41.1661 -41.1658 -41.1658
   -41.1521 -41.1394 -41.1345 -41.1164 -41.1164 -41.1163 -41.1163 -41.1161
   -41.1161 -41.1161 -41.1161 -41.1151 -41.1151 -41.1151 -41.1151 -41.1076
   -41.1007 -41.0981 -41.0949 -41.0910 -41.0705 -41.0578 -41.0576 -41.0573
   -41.0573 -41.0564 -41.0564 -41.0486 -41.0481 -41.0480 -41.0479 -41.0478
   -41.0467 -41.0467 -41.0403 -41.0375 -41.0369 -41.0368 -41.0365 -41.0365
   -41.0355 -41.0355 -41.0281 -41.0229 -41.0114 -41.0076 -41.0075 -41.0073
   -41.0071 -41.0070 -41.0069 -41.0069 -41.0068 -41.0068 -41.0058 -41.0058
   -41.0058 -41.0058 -41.0019 -40.9986 -40.9984 -40.9981 -40.9981 -40.9971
   -40.9971 -40.9947 -40.9890 -40.9885 -40.9866 -40.9866 -40.9864 -40.9864
   -40.9864 -40.9862 -40.9861 -40.9859 -40.9858 -40.9858 -40.9858 -40.9858
   -40.9852 -40.9852 -40.9848 -40.9848 -40.9848 -40.9848 -40.9829 -40.9795
   -40.9779 -40.9775 -40.9774 -40.9771 -40.9771 -40.9761 -40.9761 -40.9740
   -40.9678 -40.9670 -40.9558 -40.9557 -40.9556 -40.9555 -40.9554 -40.9554
   -40.9554 -40.9554 -40.9542 -40.9542 -40.9542 -40.9542 -40.9523 -40.9433
   -40.9380 -40.9335 -40.9209 -40.9209 -40.9209 -40.9209 -40.9207 -40.9207
   -40.9207 -40.9207 -40.9194 -40.9194 -40.9194 -40.9194 -40.9128 -40.9088
   -40.9087 -40.9085 -40.9085 -40.9073 -40.9072 -40.9068 -40.9045 -40.9019
   -40.8942 -40.8895 -40.8894 -40.8892 -40.8892 -40.8879 -40.8879 -40.8826
   -40.8794 -40.8725 -40.8724 -40.8722 -40.8722 -40.8709 -40.8709 -40.8630
   -40.8561 -40.8468 -40.8419 -40.8417 -40.8416 -40.8415 -40.8402 -40.8402
   -40.8265 -40.8223 -20.4025 -20.1740 -20.1550 -20.1147 -20.0587 -20.0232
   -19.9484 -19.9323 -19.8433 -19.7500 -19.7180 -19.6985 -19.6293 -19.6077
   -19.5245 -19.5112 -19.4185 -19.1585 -19.1409 -19.0602 -19.0433 -19.0217
   -19.0100 -19.0056 -19.0047 -18.9874 -18.9792 -18.9474 -18.9416 -18.9351
   -18.9214 -18.9052 -18.8842 -18.8638 -18.8583 -18.8401 -18.8386 -18.8303
   -18.8170 -18.8068 -18.7996 -18.7671 -18.7621 -18.7586 -18.7528 -18.7203
   -18.6988 -18.6931 -18.6910 -18.6716 -18.6601 -18.6364 -18.6199 -18.6052
   -18.6034 -18.5723 -18.5442 -18.5379 -18.5322 -18.5159 -18.4852 -18.4807
   -18.4693 -18.4450 -18.4181 -18.4048 -18.4000 -18.3943 -18.3879 -18.3857
   -18.3831 -18.3809 -18.3721 -18.3596 -18.3565 -18.3550 -18.3527 -18.3506
   -18.3389 -18.3370 -18.3331 -18.3250 -18.3218 -18.3100 -18.2955 -18.2937
   -18.2906 -18.2863 -18.2840 -18.2816 -18.2777 -18.2724 -18.2684 -18.2605
   -18.2340 -18.2310 -18.2220 -18.2187 -18.2133 -18.2007 -18.1777 -18.1764
   -18.1685 -18.1562 -18.1347 -18.1325 -18.1292 -18.1214 -18.1141 -18.1053
   -18.1043 -18.1042 -18.1037 -18.1018 -18.1009 -18.0963 -18.0881 -18.0861
   -18.0694 -18.0678 -18.0459 -18.0444 -18.0272 -18.0250 -18.0122 -18.0109
   -18.0040 -18.0039 -12.4748 -12.2691 -12.0322 -12.0132 -12.0031 -11.9132
   -11.8531 -11.8031 -11.7899 -11.7834 -11.7806 -11.7743 -11.7591 -11.7546
   -11.7356 -11.7080 -11.6984 -11.6769 -11.6659 -11.6567 -11.6468 -11.6250
   -11.6172 -11.6041 -11.5914 -11.5719 -11.5685 -11.5557 -11.5521 -11.5467
   -11.5434 -11.5390 -11.5341 -11.5004 -11.4902 -11.4841 -11.4782 -11.4641
   -11.4591 -11.4533 -11.4526 -11.4457 -11.4356 -11.4313 -11.4300 -11.4035
   -11.3908 -11.3806 -11.3595 -11.3514 -11.3453 -11.3107 -11.2963 -11.2586
   -11.2409 -11.2253 -11.2122 -11.2111 -11.1949 -11.1848 -11.1715 -11.1664
   -11.1552 -11.1223 -11.1182 -11.1148 -11.1083 -11.0977 -11.0968 -11.0961
   -11.0954 -11.0939 -11.0929 -11.0827 -11.0793 -11.0790 -11.0770 -11.0759
   -11.0692 -11.0682 -11.0662 -11.0652 -11.0301 -11.0279 -11.0277 -11.0272
   -11.0007 -10.9627 -10.8276 -10.8250 -10.8142 -10.8098 -10.7765 -10.7564
   -10.7095 -10.6857 -10.6659 -10.6237 -10.5470 -10.5368 -10.4507 -10.4412
   -10.4170 -10.4156 -10.3964 -10.3925 -10.3720 -10.3676 -10.3393 -10.3358
   -10.3223 -10.3160 -10.3154 -10.3126 -10.3052 -10.2964 -10.2725 -10.2586
   -10.2305 -10.2145 -10.2110 -10.1997 -10.1909 -10.1830 -10.1782 -10.1672
   -10.1582 -10.1490 -10.1416 -10.1223 -10.1025 -10.0832 -10.0765 -10.0673
   -10.0514 -10.0498 -10.0240 -10.0200 -10.0101  -9.9815  -9.9721  -9.9645
    -9.9424  -9.9416  -9.9080  -9.9043  -9.9019  -9.8944  -9.8816  -9.8589
    -9.8511  -9.8369  -9.8275  -9.8208  -9.8157  -9.8089  -9.7839  -9.7763
    -9.7739  -9.7587  -9.7570  -9.7535  -9.7493  -9.7445  -9.7387  -9.7296
    -9.7178  -9.7084  -9.6962  -9.6693  -9.6491  -9.6370  -9.6025  -9.5899
    -9.5480  -9.5251  -9.5072  -9.5020  -9.4909  -9.4858  -9.4791  -9.4576
    -9.4470  -9.4407  -9.4267  -9.4245  -9.4101  -9.3971  -9.3796  -9.3715
    -9.3521  -9.3344  -9.3257  -9.3245  -9.3175  -9.3114  -9.2985  -9.2776
    -9.2663  -9.2626  -9.2485  -9.2386  -9.2336  -9.2302  -9.2178  -9.2136
    -9.1887  -9.1772  -9.1757  -9.1742  -9.1719  -9.1661  -9.1614  -9.1562
    -9.1544  -9.1523  -9.1499  -9.1485  -9.1426  -9.1373  -9.1344  -9.1245
    -9.1242  -9.1168  -9.1035  -9.0974  -9.0791  -9.0763  -9.0757  -9.0744
    -9.0698  -9.0682  -9.0617  -9.0471  -9.0454  -9.0217  -9.0181  -9.0171
    -9.0144  -9.0121  -8.9837  -8.9686  -8.9417  -8.9316  -8.9228  -8.8859
    -8.8615  -8.7995  -8.7886  -8.7789  -8.7434  -8.7311  -8.7240  -8.7042
    -8.6472  -8.6344  -8.5891  -8.5707  -8.5535  -8.4925  -8.4128  -8.4121
    -8.4089  -8.4032  -8.4018  -8.3919  -8.3915  -8.3739  -8.3576  -8.3448
    -8.3410  -8.2874  -8.2548  -8.2536  -8.2239  -8.1779  -8.1491  -8.1354
    -8.1257  -8.1234  -8.1169  -8.1057  -8.0984  -8.0959  -8.0932  -8.0877
    -8.0855  -8.0826  -8.0796  -8.0779  -8.0741  -8.0676  -8.0658  -8.0642
    -8.0593  -8.0539  -8.0529  -8.0511  -8.0497  -8.0487  -8.0460  -8.0429
    -8.0426  -8.0357  -8.0271  -8.0205  -8.0157  -8.0142  -8.0076  -8.0026
    -7.9874  -7.9818  -7.9811  -7.9803  -7.9791  -7.9554  -7.9524  -7.9504
    -7.9500  -7.9486  -7.9458  -7.9323  -7.9281  -7.9107  -7.9056  -7.8972
    -7.8925  -7.8916  -7.8852  -7.8815  -7.8749  -7.8696  -7.8685  -7.8499
    -7.8486  -7.8483  -7.8441  -7.8379  -7.8330  -7.8265  -7.8021  -7.7530
    -7.7461  -7.7412  -7.7396  -7.7230  -7.6981  -7.6832  -7.6656  -7.6012
    -7.5105  -7.4732  -7.4594  -7.4548  -7.4530  -7.4411  -7.4314  -7.4260
    -7.4116  -7.3975  -7.3863  -7.3828  -7.3758  -7.3596  -7.3392  -7.3200
    -7.3097  -7.3044  -7.3020  -7.2841  -7.2781  -7.2607  -7.2516  -7.2262
    -7.2083  -7.2005  -7.1860  -7.1767  -7.1683  -7.1564  -7.1447  -7.1417
    -7.1318  -7.1110  -7.1076  -7.0778  -7.0616  -7.0447  -7.0087  -6.9999
    -6.9882  -6.9681  -6.9472  -6.9427  -6.9138  -6.9076  -6.9027  -6.8951
    -6.8900  -6.8887  -6.8872  -6.8850  -6.8722  -6.8714  -6.8705  -6.8704
    -6.8633  -6.8632  -6.8631  -6.8630  -6.8236  -6.8097  -6.7941  -6.7647
    -6.7332  -6.7086  -6.6901  -6.6290  -6.6107  -6.6095  -6.6074  -6.6025
    -6.5887  -6.5758  -6.5653  -6.5618  -6.5610  -6.5587  -6.5569  -6.5558
    -6.5524  -6.5372  -6.5237  -6.5224  -6.5090  -6.5054  -6.4981  -6.4875
    -6.4825  -6.4791  -6.4785  -6.3924  -6.2965  -6.2798  -6.2629  -6.2314
    -6.2044  -6.1771  -6.1651  -6.1407  -6.1327  -6.1247  -6.0154  -5.9746
    -5.9458  -5.8884  -5.8764  -5.8077  -5.3766  -5.3377  -5.3169  -5.2807
    -5.2432  -5.1058  -4.4084  -4.3767  -4.3734  -4.3605  -4.3003  -4.2179
    -4.2068  -4.2028  -4.1998  -4.1677  -4.1350  -4.1253  -4.1198  -4.1099
    -4.1074  -4.0976  -4.0930  -4.0830  -4.0816  -4.0581  -4.0280  -3.9733
    -3.9692  -3.9419  -3.9192  -3.8873  -3.8862  -3.8815  -3.8804  -3.8660
    -3.8431  -3.8383  -3.8333  -3.8115  -3.8083  -3.8040  -3.7979  -3.7934
    -3.7924  -3.7696  -3.7676  -3.7587  -3.7584  -3.7555  -3.7498  -3.7462
    -3.7361  -3.7322  -3.7222  -3.7099  -3.7057  -3.7005  -3.6957  -3.6813
    -3.6683  -3.6461  -3.6350  -3.6338  -3.6301  -3.6279  -3.6242  -3.6222
    -3.6147  -3.5887  -3.5847  -3.5784  -3.5726  -3.5686  -3.5667  -3.5620
    -3.5593  -3.5584  -3.5531  -3.5367  -3.5294  -3.5250  -3.5192  -3.5132
    -3.5103  -3.5077  -3.4947  -3.4931  -3.4914  -3.4790  -3.4733  -3.4674
    -3.4591  -3.4563  -3.4516  -3.4446  -3.4443  -3.4439  -3.4423  -3.4266
    -3.3918  -3.3841  -3.3695  -3.3555  -3.3505  -3.3500  -3.3474  -3.3410
    -3.3093  -3.3076  -3.3062  -3.3050  -3.3038  -3.3036  -3.2955  -3.2937
    -3.2917  -3.2897  -3.2861  -3.2812  -3.2740  -3.2722  -3.2664  -3.2612
    -3.2587  -3.2537  -3.2510  -3.2498  -3.2428  -3.2406  -3.2317  -3.2298
    -3.2272  -3.2240  -3.2164  -3.2134  -3.2052  -3.1962  -3.1871  -3.1794
    -3.1691  -3.1648  -3.1598  -3.1582  -3.1547  -3.1394  -3.0840  -3.0763
    -3.0713  -3.0681  -3.0328  -3.0154  -3.0021  -2.9916  -2.9120  -2.8931
    -2.8821  -2.8674  -2.8576  -2.8487  -2.8408  -2.8293  -2.8194  -2.8112
    -2.8084  -2.8058  -2.8042  -2.7984  -2.7346  -2.7250  -2.6922  -2.6856
    -2.6803  -2.6768  -2.6702  -2.6648  -2.6547  -2.6497  -2.6243  -2.6213

          k =-0.5000-0.8660 0.0000 (386352 PWs)   bands (ev):

  -103.4081-101.3798 -89.7886 -71.7681 -71.7619 -71.7345 -71.6947 -71.6899
   -71.6623 -71.6577 -69.8517 -69.8501 -69.7954 -69.7622 -69.7486 -69.6252
   -69.6250 -66.9157 -66.9041 -66.9041 -66.9039 -66.9037 -66.9037 -66.9021
   -66.9021 -66.9002 -66.8934 -66.8933 -66.8930 -66.8930 -66.8914 -66.8914
   -66.8914 -66.8854 -66.8814 -66.8786 -66.8784 -66.8780 -66.8779 -66.8779
   -66.8779 -66.8779 -66.8778 -66.8763 -66.8763 -66.8763 -66.8763 -66.8739
   -66.8737 -66.8735 -66.8735 -66.8726 -66.8719 -66.8718 -66.8696 -66.8680
   -66.8676 -66.8673 -66.8672 -66.8672 -66.8672 -66.8672 -66.8671 -66.8656
   -66.8656 -66.8656 -66.8656 -66.8653 -66.8631 -66.8630 -66.8629 -66.8628
   -66.8628 -66.8611 -66.8611 -66.8571 -66.8510 -66.8470 -66.8422 -66.8361
   -66.8304 -57.7110 -57.6327 -57.5173 -56.0887 -55.6008 -55.5233 -55.3881
   -55.3498 -55.2979 -41.2073 -41.2062 -41.2061 -41.2058 -41.2057 -41.2057
   -41.2057 -41.2057 -41.2056 -41.2047 -41.2047 -41.2047 -41.2047 -41.2031
   -41.1812 -41.1802 -41.1792 -41.1790 -41.1789 -41.1789 -41.1779 -41.1779
   -41.1751 -41.1671 -41.1670 -41.1668 -41.1668 -41.1658 -41.1658 -41.1606
   -41.1528 -41.1486 -41.1359 -41.1164 -41.1164 -41.1163 -41.1163 -41.1161
   -41.1161 -41.1161 -41.1161 -41.1151 -41.1151 -41.1151 -41.1151 -41.1076
   -41.1063 -41.0987 -41.0949 -41.0907 -41.0713 -41.0577 -41.0576 -41.0573
   -41.0573 -41.0564 -41.0564 -41.0481 -41.0480 -41.0479 -41.0478 -41.0467
   -41.0467 -41.0451 -41.0387 -41.0369 -41.0368 -41.0365 -41.0365 -41.0364
   -41.0355 -41.0355 -41.0282 -41.0267 -41.0140 -41.0075 -41.0074 -41.0070
   -41.0069 -41.0069 -41.0069 -41.0069 -41.0068 -41.0058 -41.0058 -41.0058
   -41.0058 -41.0020 -41.0004 -40.9986 -40.9984 -40.9981 -40.9981 -40.9971
[...]
Mo               7.8782949364        4.5480902140        3.0568701547
Mo               9.4124023214        3.6362686574        9.1199874002
S                7.8690480093        4.5532583926        7.5579141291
S                9.4544614218        3.6388863654        4.6254259948
S                9.4544625125        3.6383537092        1.4896086304
S                7.8636441362        4.5489304022       10.7254544179
Mo               6.3024965959        7.2774749019       -9.1672481230    0   0   0
Mo               7.8781361655        6.3678242352       -3.0555014130    0   0   0
S                6.3024973331        7.2774953556       -4.6232392528    0   0   0
S                7.8781167680        6.3677884239       -7.6014065489    0   0   0
S                7.8781172217        6.3677895528      -10.7330757790    0   0   0
S                6.3024989866        7.2774929744       -1.4877349119    0   0   0
Mo               6.3023311102        7.2772777467        3.0573158108
Mo               7.8707067402        6.3648240350        9.1485565465
S                6.2735093083        7.2712072103        7.6038220811
S                7.8784521326        6.3673847727        4.6241510063
S                7.8780065402        6.3674442371        1.4889650328
S                6.3162049825        7.2750546192       10.7342008582
Mo               4.7268792535       10.0065304219       -9.1672481230    0   0   0
Mo               6.3025111524        9.0968738021       -3.0554915260    0   0   0
S                4.7268840634       10.0065452125       -4.6232380477    0   0   0
S                6.3024994256        9.0968439439       -7.6014065489    0   0   0
S                6.3024998793        9.0968450728      -10.7330757790    0   0   0
S                4.7268847312       10.0065459141       -1.4877283294    0   0   0
Mo               4.7267647150       10.0059744099        3.0571232532
Mo               6.2913878569        9.0929788885        9.1645350660
S                4.6919138464        9.9783376623        7.6024997896
S                6.3021544174        9.0969874513        4.6247398257
S                6.3025438726        9.0964298544        1.4890477880
S                4.7290860643        9.9953593610       10.7551426588
Pt               1.4235166227        5.9092148581       12.3615274826
Pd               0.1210070302        3.5164531777       12.0236172767
Pt               0.4551293228        4.4533144901       14.5580823769



     Writing config-only to output data dir ./outdir/pwscf.save/ :
     XML data file
     NEW-OLD atomic charge density approx. for the potential

     negative rho (up, down):  8.124E-04 0.000E+00

     total cpu time spent up to now is   224554.4 secs

     Self-consistent Calculation

     iteration #  1     ecut=    77.00 Ry     beta= 0.20
     Davidson diagonalization with overlap
     c_bands:  3 eigenvalues not converged
     c_bands:  5 eigenvalues not converged
     c_bands:  3 eigenvalues not converged
     ethr =  1.00E-06,  avg # of iterations = 50.5

     negative rho (up, down):  8.034E-04 0.000E+00

     total cpu time spent up to now is   228199.1 secs

     total energy              =  -35666.01389300 Ry
     estimated scf accuracy    <      13.02557432 Ry

     iteration #  2     ecut=    77.00 Ry     beta= 0.20
     Davidson diagonalization with overlap
     ethr =  7.46E-04,  avg # of iterations =  6.5

     negative rho (up, down):  8.080E-04 0.000E+00

     total cpu time spent up to now is   228648.2 secs

     total energy              =  -35649.81440029 Ry
     estimated scf accuracy    <     244.27382841 Ry

     iteration #  3     ecut=    77.00 Ry     beta= 0.20
     Davidson diagonalization with overlap
     ethr =  7.46E-04,  avg # of iterations = 76.5

     negative rho (up, down):  7.807E-04 0.000E+00

     total cpu time spent up to now is   231006.2 secs

     total energy              =  -35630.15983240 Ry
     estimated scf accuracy    <    8762.09350186 Ry

     iteration #  4     ecut=    77.00 Ry     beta= 0.20
     Davidson diagonalization with overlap
     ethr =  7.46E-04,  avg # of iterations = 16.0

     negative rho (up, down):  6.961E-04 0.000E+00

     total cpu time spent up to now is   231490.6 secs

     total energy              =  -35663.02671314 Ry
     estimated scf accuracy    <      41.72267675 Ry

     iteration #  5     ecut=    77.00 Ry     beta= 0.20
     Davidson diagonalization with overlap
     ethr =  7.46E-04,  avg # of iterations =  2.0

     negative rho (up, down):  6.744E-04 0.000E+00

     total cpu time spent up to now is   231909.2 secs

     total energy              =  -35660.05813404 Ry
     estimated scf accuracy    <       5.16076798 Ry

     iteration #  6     ecut=    77.00 Ry     beta= 0.20
     Davidson diagonalization with overlap
     c_bands:  1 eigenvalues not converged
     c_bands:  2 eigenvalues not converged
     c_bands:  3 eigenvalues not converged
     ethr =  2.96E-04,  avg # of iterations = 26.8

     negative rho (up, down):  6.655E-04 0.000E+00

     total cpu time spent up to now is   232647.3 secs

     total energy              =  -35658.99508171 Ry
     estimated scf accuracy    <       0.39666506 Ry

     iteration #  7     ecut=    77.00 Ry     beta= 0.20
     Davidson diagonalization with overlap
     c_bands:  1 eigenvalues not converged
     c_bands:  1 eigenvalues not converged
     c_bands:  3 eigenvalues not converged
     ethr =  2.27E-05,  avg # of iterations =112.0

     negative rho (up, down):  6.702E-04 0.000E+00

     total cpu time spent up to now is   236429.3 secs

     total energy              =  -35658.67019450 Ry
     estimated scf accuracy    <       0.30298065 Ry

     iteration #  8     ecut=    77.00 Ry     beta= 0.20
     Davidson diagonalization with overlap
     ethr =  1.74E-05,  avg # of iterations =  7.0

     negative rho (up, down):  6.770E-04 0.000E+00

     total cpu time spent up to now is   236867.9 secs

     total energy              =  -35658.39125335 Ry
     estimated scf accuracy    <       0.22216910 Ry

     iteration #  9     ecut=    77.00 Ry     beta= 0.20
     Davidson diagonalization with overlap
     ethr =  1.27E-05,  avg # of iterations =  2.0

     negative rho (up, down):  6.801E-04 0.000E+00

     total cpu time spent up to now is   237285.7 secs

     total energy              =  -35656.89130135 Ry
     estimated scf accuracy    <       0.16423960 Ry

     iteration # 10     ecut=    77.00 Ry     beta= 0.20
     Davidson diagonalization with overlap
     c_bands:  5 eigenvalues not converged
     c_bands:  5 eigenvalues not converged
     c_bands:  1 eigenvalues not converged
     ethr =  9.41E-06,  avg # of iterations = 44.2

     negative rho (up, down):  6.785E-04 0.000E+00

     total cpu time spent up to now is   238365.4 secs

     total energy              =  -35657.07412177 Ry
     estimated scf accuracy    <       0.23010593 Ry

     iteration # 11     ecut=    77.00 Ry     beta= 0.20
     Davidson diagonalization with overlap
     c_bands:  3 eigenvalues not converged
     c_bands:  1 eigenvalues not converged
     ethr =  9.41E-06,  avg # of iterations = 32.5

     negative rho (up, down):  6.845E-04 0.000E+00

     total cpu time spent up to now is   239264.4 secs

     total energy              =  -35655.90257738 Ry
     estimated scf accuracy    <       0.33163697 Ry

     iteration # 12     ecut=    77.00 Ry     beta= 0.20
     Davidson diagonalization with overlap
     c_bands:  3 eigenvalues not converged
     c_bands:  5 eigenvalues not converged
     ethr =  9.41E-06,  avg # of iterations = 39.0

     negative rho (up, down):  6.778E-04 0.000E+00

     total cpu time spent up to now is   240361.0 secs

     total energy              =  -35656.49123171 Ry
     estimated scf accuracy    <       0.29081057 Ry

     iteration # 13     ecut=    77.00 Ry     beta= 0.20
     Davidson diagonalization with overlap
     c_bands:  4 eigenvalues not converged
     c_bands:  5 eigenvalues not converged
     c_bands: 18 eigenvalues not converged
     ethr =  9.41E-06,  avg # of iterations = 69.2

     negative rho (up, down):  6.814E-04 0.000E+00

     total cpu time spent up to now is   242122.1 secs

     total energy              =  -35656.66477528 Ry
     estimated scf accuracy    <      13.08015586 Ry

     iteration # 14     ecut=    77.00 Ry     beta= 0.20
     Davidson diagonalization with overlap
     c_bands:  1 eigenvalues not converged
     ethr =  9.41E-06,  avg # of iterations = 11.2

     negative rho (up, down):  6.812E-04 0.000E+00

     total cpu time spent up to now is   242581.7 secs

     total energy              =  -35657.08245694 Ry
     estimated scf accuracy    <       0.19475263 Ry

     iteration # 15     ecut=    77.00 Ry     beta= 0.20
     Davidson diagonalization with overlap
     ethr =  9.41E-06,  avg # of iterations =  2.0

     negative rho (up, down):  6.845E-04 0.000E+00

     total cpu time spent up to now is   243000.1 secs

     total energy              =  -35656.31125058 Ry
     estimated scf accuracy    <       0.36602696 Ry

     iteration # 16     ecut=    77.00 Ry     beta= 0.20
     Davidson diagonalization with overlap
     ethr =  9.41E-06,  avg # of iterations =  5.0

     negative rho (up, down):  6.888E-04 0.000E+00

     total cpu time spent up to now is   243435.6 secs

     total energy              =  -35656.06872671 Ry
     estimated scf accuracy    <       0.35236163 Ry

     iteration # 17     ecut=    77.00 Ry     beta= 0.20
     Davidson diagonalization with overlap
     ethr =  9.41E-06,  avg # of iterations =  4.0

     negative rho (up, down):  7.030E-04 0.000E+00

     total cpu time spent up to now is   243864.1 secs

     total energy              =  -35655.38844353 Ry
     estimated scf accuracy    <       0.17957149 Ry

     iteration # 18     ecut=    77.00 Ry     beta= 0.20
     Davidson diagonalization with overlap
     ethr =  9.41E-06,  avg # of iterations = 10.0

     negative rho (up, down):  7.234E-04 0.000E+00

     total cpu time spent up to now is   244329.6 secs

     total energy              =  -35655.03120786 Ry
     estimated scf accuracy    <       0.07471233 Ry

     iteration # 19     ecut=    77.00 Ry     beta= 0.20
     Davidson diagonalization with overlap
     c_bands:  3 eigenvalues not converged
     c_bands:  2 eigenvalues not converged
     c_bands:  3 eigenvalues not converged
     c_bands:  4 eigenvalues not converged
     ethr =  4.28E-06,  avg # of iterations = 90.0

     negative rho (up, down):  7.310E-04 0.000E+00

     total cpu time spent up to now is   246747.7 secs

     total energy              =  -35655.02189164 Ry
     estimated scf accuracy    <       1.51360300 Ry

     iteration # 20     ecut=    77.00 Ry     beta= 0.20
     Davidson diagonalization with overlap
     c_bands:  2 eigenvalues not converged
     ethr =  4.28E-06,  avg # of iterations = 11.8

     negative rho (up, down):  7.415E-04 0.000E+00

     total cpu time spent up to now is   247206.2 secs

     total energy              =  -35654.97078406 Ry
     estimated scf accuracy    <       1.85591114 Ry

     iteration # 21     ecut=    77.00 Ry     beta= 0.20
     Davidson diagonalization with overlap
     ethr =  4.28E-06,  avg # of iterations =  5.0

     negative rho (up, down):  7.481E-04 0.000E+00

     total cpu time spent up to now is   247641.4 secs

     total energy              =  -35654.91270792 Ry
     estimated scf accuracy    <       2.09383674 Ry

     iteration # 22     ecut=    77.00 Ry     beta= 0.20
     Davidson diagonalization with overlap
     c_bands:  2 eigenvalues not converged
     ethr =  4.28E-06,  avg # of iterations = 11.0

     negative rho (up, down):  7.539E-04 0.000E+00

     total cpu time spent up to now is   248098.3 secs

     total energy              =  -35654.86054970 Ry
     estimated scf accuracy    <       1.04699404 Ry

     iteration # 23     ecut=    77.00 Ry     beta= 0.20
     Davidson diagonalization with overlap
     c_bands:  1 eigenvalues not converged
     ethr =  4.28E-06,  avg # of iterations = 12.5

     negative rho (up, down):  7.490E-04 0.000E+00

     total cpu time spent up to now is   248584.4 secs

     total energy              =  -35654.88141743 Ry
     estimated scf accuracy    <       0.29672416 Ry

     iteration # 24     ecut=    77.00 Ry     beta= 0.20
     Davidson diagonalization with overlap
     c_bands:  1 eigenvalues not converged
     ethr =  4.28E-06,  avg # of iterations =  8.0

     negative rho (up, down):  7.395E-04 0.000E+00

     total cpu time spent up to now is   249024.4 secs

     total energy              =  -35654.90056912 Ry
     estimated scf accuracy    <       0.23247973 Ry

     iteration # 25     ecut=    77.00 Ry     beta= 0.20
     Davidson diagonalization with overlap
     ethr =  4.28E-06,  avg # of iterations =  9.2

     negative rho (up, down):  7.346E-04 0.000E+00

     total cpu time spent up to now is   249477.2 secs

     total energy              =  -35654.93799802 Ry
     estimated scf accuracy    <       0.20060035 Ry

     iteration # 26     ecut=    77.00 Ry     beta= 0.20
     Davidson diagonalization with overlap
     c_bands:  2 eigenvalues not converged
     c_bands:  4 eigenvalues not converged
     ethr =  4.28E-06,  avg # of iterations = 23.2

     negative rho (up, down):  7.365E-04 0.000E+00

     total cpu time spent up to now is   250170.3 secs

     total energy              =  -35655.01261408 Ry
     estimated scf accuracy    <       1.28447210 Ry

     iteration # 27     ecut=    77.00 Ry     beta= 0.20
     Davidson diagonalization with overlap
     c_bands:  3 eigenvalues not converged
     c_bands:  3 eigenvalues not converged
     ethr =  4.28E-06,  avg # of iterations = 16.0

     negative rho (up, down):  7.342E-04 0.000E+00

     total cpu time spent up to now is   250732.4 secs

     total energy              =  -35655.22556007 Ry
     estimated scf accuracy    <       2.32892453 Ry

     iteration # 28     ecut=    77.00 Ry     beta= 0.20
     Davidson diagonalization with overlap
     c_bands:  2 eigenvalues not converged
     ethr =  4.28E-06,  avg # of iterations = 18.5

     negative rho (up, down):  7.478E-04 0.000E+00

     total cpu time spent up to now is   251271.5 secs

     total energy              =  -35654.76381521 Ry
     estimated scf accuracy    <       1.68391702 Ry

     iteration # 29     ecut=    77.00 Ry     beta= 0.20
     Davidson diagonalization with overlap
     ethr =  4.28E-06,  avg # of iterations = 15.2

     negative rho (up, down):  7.586E-04 0.000E+00

     total cpu time spent up to now is   251802.6 secs

     total energy              =  -35654.90213560 Ry
     estimated scf accuracy    <       1.90128376 Ry

     iteration # 30     ecut=    77.00 Ry     beta= 0.20
     Davidson diagonalization with overlap
     ethr =  4.28E-06,  avg # of iterations =  2.0

     negative rho (up, down):  7.909E-04 0.000E+00

     total cpu time spent up to now is   252219.6 secs

     total energy              =  -35654.90704914 Ry
     estimated scf accuracy    <       0.58382876 Ry

     iteration # 31     ecut=    77.00 Ry     beta= 0.20
     Davidson diagonalization with overlap
     ethr =  4.28E-06,  avg # of iterations =  8.0

     negative rho (up, down):  8.381E-04 0.000E+00

     total cpu time spent up to now is   252668.7 secs

     total energy              =  -35654.84980468 Ry
     estimated scf accuracy    <       1.96429604 Ry

     iteration # 32     ecut=    77.00 Ry     beta= 0.20
     Davidson diagonalization with overlap
     c_bands:  2 eigenvalues not converged
     ethr =  4.28E-06,  avg # of iterations = 11.0

     negative rho (up, down):  8.277E-04 0.000E+00

     total cpu time spent up to now is   253135.3 secs

     total energy              =  -35654.87419010 Ry
     estimated scf accuracy    <       0.12994924 Ry

     iteration # 33     ecut=    77.00 Ry     beta= 0.20
     Davidson diagonalization with overlap
     ethr =  4.28E-06,  avg # of iterations =  2.0

     negative rho (up, down):  8.171E-04 0.000E+00

     total cpu time spent up to now is   253552.1 secs

     total energy              =  -35654.86544806 Ry
     estimated scf accuracy    <       0.04762060 Ry

     iteration # 34     ecut=    77.00 Ry     beta= 0.20
     Davidson diagonalization with overlap
     c_bands:  5 eigenvalues not converged
     ethr =  2.73E-06,  avg # of iterations =  8.0

     negative rho (up, down):  8.244E-04 0.000E+00

     total cpu time spent up to now is   253994.3 secs

     total energy              =  -35654.85623704 Ry
     estimated scf accuracy    <       0.02633408 Ry

     iteration # 35     ecut=    77.00 Ry     beta= 0.20
     Davidson diagonalization with overlap
     c_bands:  2 eigenvalues not converged
     c_bands:  3 eigenvalues not converged
     ethr =  1.51E-06,  avg # of iterations = 29.8

     negative rho (up, down):  8.282E-04 0.000E+00

     total cpu time spent up to now is   254870.1 secs

     total energy              =  -35654.86415602 Ry
     estimated scf accuracy    <       0.11807364 Ry

     iteration # 36     ecut=    77.00 Ry     beta= 0.20
     Davidson diagonalization with overlap
     ethr =  1.51E-06,  avg # of iterations =  1.8

     negative rho (up, down):  8.286E-04 0.000E+00

     total cpu time spent up to now is   255275.6 secs

     total energy              =  -35654.86536499 Ry
     estimated scf accuracy    <       0.11399345 Ry

     iteration # 37     ecut=    77.00 Ry     beta= 0.20
     Davidson diagonalization with overlap
     ethr =  1.51E-06,  avg # of iterations =  1.0

     negative rho (up, down):  8.288E-04 0.000E+00

     total cpu time spent up to now is   255652.9 secs

     total energy              =  -35654.86697651 Ry
     estimated scf accuracy    <       0.08901732 Ry

     iteration # 38     ecut=    77.00 Ry     beta= 0.20
     Davidson diagonalization with overlap
     ethr =  1.51E-06,  avg # of iterations =  2.0

     negative rho (up, down):  8.181E-04 0.000E+00

     total cpu time spent up to now is   256069.1 secs

     total energy              =  -35654.85962961 Ry
     estimated scf accuracy    <       0.05413887 Ry

     iteration # 39     ecut=    77.00 Ry     beta= 0.20
     Davidson diagonalization with overlap
     ethr =  1.51E-06,  avg # of iterations =  2.0

     negative rho (up, down):  8.120E-04 0.000E+00

     total cpu time spent up to now is   256484.6 secs

     total energy              =  -35654.85822626 Ry
     estimated scf accuracy    <       0.00560098 Ry

     iteration # 40     ecut=    77.00 Ry     beta= 0.20
     Davidson diagonalization with overlap
     c_bands:  3 eigenvalues not converged
     ethr =  3.21E-07,  avg # of iterations = 41.2

     negative rho (up, down):  8.087E-04 0.000E+00

     total cpu time spent up to now is   257869.6 secs

     total energy              =  -35654.85982050 Ry
     estimated scf accuracy    <       0.00638791 Ry

     iteration # 41     ecut=    77.00 Ry     beta= 0.20
     Davidson diagonalization with overlap
     c_bands:  1 eigenvalues not converged
     ethr =  3.21E-07,  avg # of iterations =  6.5

     negative rho (up, down):  8.074E-04 0.000E+00

     total cpu time spent up to now is   258299.7 secs

     total energy              =  -35654.85939743 Ry
     estimated scf accuracy    <       0.00514127 Ry

     iteration # 42     ecut=    77.00 Ry     beta= 0.20
     Davidson diagonalization with overlap
     c_bands:  1 eigenvalues not converged
     ethr =  2.94E-07,  avg # of iterations =  6.5

     negative rho (up, down):  8.065E-04 0.000E+00

     total cpu time spent up to now is   258729.8 secs

     total energy              =  -35654.85866522 Ry
     estimated scf accuracy    <       0.00389454 Ry

     iteration # 43     ecut=    77.00 Ry     beta= 0.20
     Davidson diagonalization with overlap
