
     Program PWSCF v.7.3 starts on 15Mar2024 at  3:29: 9 

     This program is part of the open-source Quantum ESPRESSO suite
     for quantum simulation of materials; please cite
         "P. Giannozzi et al., J. Phys.:Condens. Matter 21 395502 (2009);
         "P. Giannozzi et al., J. Phys.:Condens. Matter 29 465901 (2017);
         "P. Giannozzi et al., J. Chem. Phys. 152 154105 (2020);
          URL http://www.quantum-espresso.org", 
     in publications or presentations arising from this work. More details at
     http://www.quantum-espresso.org/quote

     Parallel version (MPI & OpenMP), running on      36 processor cores
     Number of MPI processes:                36
     Threads/MPI process:                     1

     MPI processes distributed on     1 nodes
     561031 MiB available memory on the printing compute node when the environment starts
 
     Waiting for input...
     Reading input from standard input
Warning: card &CELL ignored
Warning: card / ignored

     Current dimensions of program PWSCF are:
     Max number of different atomic species (ntypx) = 10
     Max number of k-points (npk) =  40000
     Max angular momentum in pseudopotentials (lmaxx) =  4
     file Mo.pbe-spn-kjpaw_psl.1.0.0.UPF: wavefunction(s)  4S 4D renormalized
     file S.pbe-n-kjpaw_psl.1.0.0.UPF: wavefunction(s)  3S 3P renormalized
     file Pd.pbe-spn-kjpaw_psl.1.0.0.UPF: wavefunction(s)  4S 5S 4D renormalized
     file Pt.pbe-spfn-kjpaw_psl.1.0.0.UPF: wavefunction(s)  5P 4F renormalized
 
     R & G space division:  proc/nbgrp/npool/nimage =      36
     Subspace diagonalization in iterative solution of the eigenvalue problem:
     one sub-group per band group will be used
     scalapack distributed-memory algorithm (size of sub-group:  6*  6 procs)

 
     Parallelization info
     --------------------
     sticks:   dense  smooth     PW     G-vecs:    dense   smooth      PW
     Min         585     334     89               198743    85850   11735
     Max         586     335     90               198750    85861   11748
     Sum       21073   12049   3205              7154885  3090769  422587
 
     Using Slab Decomposition
 


     bravais-lattice index     =            0
     lattice parameter (alat)  =      23.8199  a.u.
     unit-cell volume          =   33861.0370 (a.u.)^3
     number of atoms/cell      =          194
     number of atomic types    =            4
     number of electrons       =      1714.00
     number of Kohn-Sham states=         1028
     kinetic-energy cutoff     =      77.0000  Ry
     charge density cutoff     =     539.0000  Ry
     scf convergence threshold =      1.0E-06
     mixing beta               =       0.2000
     number of iterations used =            8  plain     mixing
     energy convergence thresh.=      1.0E-04
     force convergence thresh. =      1.0E-03
     Exchange-correlation= SLA  PW   PBX  PBC
                           (   1   4   3   4   0   0   0)
     nstep                     =         1000


     Effective Screening Medium Method
     =================================
     Boundary Conditions: Vacuum-Slab-Vacuum
     total charge in unit cell        =   0.0000
     grid points for fit at edges     =        4 
 

     celldm(1)=  23.819920  celldm(2)=   0.000000  celldm(3)=   0.000000
     celldm(4)=   0.000000  celldm(5)=   0.000000  celldm(6)=   0.000000

     crystal axes: (cart. coord. in units of alat)
               a(1) = (   1.000000   0.000000   0.000000 )  
               a(2) = (  -0.499999   0.866026   0.000000 )  
               a(3) = (   0.000000   0.000000   2.893000 )  

     reciprocal axes: (cart. coord. in units 2 pi/alat)
               b(1) = (  1.000000  0.577349  0.000000 )  
               b(2) = (  0.000000  1.154700  0.000000 )  
               b(3) = (  0.000000  0.000000  0.345662 )  


     PseudoPot. # 1 for Mo read from file:
     ./pseudo/Mo.pbe-spn-kjpaw_psl.1.0.0.UPF
     MD5 check sum: 317bf72632116215fd98f72de1686f13
     Pseudo is Projector augmented-wave + core cor, Zval = 14.0
     Generated using 'atomic' code by A. Dal Corso  v.7.2
     Shape of augmentation charge: PSQ
     Using radial grid of 1229 points,  6 beta functions with: 
                l(1) =   0
                l(2) =   0
                l(3) =   1
                l(4) =   1
                l(5) =   2
                l(6) =   2
     Q(r) pseudized with 0 coefficients 


     PseudoPot. # 2 for S  read from file:
     ./pseudo/S.pbe-n-kjpaw_psl.1.0.0.UPF
     MD5 check sum: 8b7b5302570d38d5e87fed6a1065abda
     Pseudo is Projector augmented-wave + core cor, Zval =  6.0
     Generated using 'atomic' code by A. Dal Corso  v.7.2
     Shape of augmentation charge: PSQ
     Using radial grid of 1151 points,  6 beta functions with: 
                l(1) =   0
                l(2) =   0
                l(3) =   1
                l(4) =   1
                l(5) =   2
                l(6) =   2
     Q(r) pseudized with 0 coefficients 


     PseudoPot. # 3 for Pd read from file:
     ./pseudo/Pd.pbe-spn-kjpaw_psl.1.0.0.UPF
     MD5 check sum: a60571a671f2502b8a6a4569d20a6edb
     Pseudo is Projector augmented-wave + core cor, Zval = 18.0
     Generated using 'atomic' code by A. Dal Corso  v.7.2
     Shape of augmentation charge: PSQ
     Using radial grid of 1235 points,  6 beta functions with: 
                l(1) =   0
                l(2) =   0
                l(3) =   1
                l(4) =   1
                l(5) =   2
                l(6) =   2
     Q(r) pseudized with 0 coefficients 


     PseudoPot. # 4 for Pt read from file:
     ./pseudo/Pt.pbe-spfn-kjpaw_psl.1.0.0.UPF
     MD5 check sum: 620096ebf4e6ebacc94de60fd67efcb5
     Pseudo is Projector augmented-wave + core cor, Zval = 32.0
     Generated using 'atomic' code by A. Dal Corso  v.7.2
     Shape of augmentation charge: PSQ
     Using radial grid of 1277 points,  8 beta functions with: 
                l(1) =   0
                l(2) =   0
                l(3) =   1
                l(4) =   1
                l(5) =   2
                l(6) =   2
                l(7) =   3
                l(8) =   3
     Q(r) pseudized with 0 coefficients 


     atomic species   valence    mass     pseudopotential
     Mo               14.00    95.95000     Mo( 1.00)
     S                 6.00    32.06000     S ( 1.00)
     Pd               18.00   106.42000     Pd( 1.00)
     Pt               32.00   195.08400     Pt( 1.00)

     No symmetry found



   Cartesian axes

     site n.     atom                  positions (alat units)
         1        Mo     tau(   1) = (   0.0000010   0.1443372  -0.7272732  )
         2        Mo     tau(   2) = (   0.1249995   0.0721706  -0.2424038  )
         3        S      tau(   3) = (   0.0000015   0.1443386  -0.3667807  )
         4        S      tau(   4) = (   0.1250010   0.0721682  -0.6030489  )
         5        S      tau(   5) = (   0.1250010   0.0721683  -0.8514963  )
         6        S      tau(   6) = (   0.0000015   0.1443389  -0.1180260  )
         7        Mo     tau(   7) = (   0.0000007   0.1443589   0.2424205  )
         8        Mo     tau(   8) = (   0.1250041   0.0720322   0.7266168  )
         9        S      tau(   9) = (   0.0000742   0.1444871   0.6020949  )
        10        S      tau(  10) = (   0.1250024   0.0721701   0.3667478  )
        11        S      tau(  11) = (   0.1250035   0.0721876   0.1180348  )
        12        S      tau(  12) = (  -0.0004118   0.1430864   0.8514340  )
        13        Mo     tau(  13) = (  -0.1249989   0.3608437  -0.7272732  )
        14        Mo     tau(  14) = (   0.0000030   0.2886752  -0.2424042  )
        15        S      tau(  15) = (  -0.1249977   0.3608450  -0.3667802  )
        16        S      tau(  16) = (   0.0000012   0.2886747  -0.6030489  )
        17        S      tau(  17) = (   0.0000012   0.2886748  -0.8514963  )
        18        S      tau(  18) = (  -0.1249977   0.3608454  -0.1180274  )
        19        Mo     tau(  19) = (  -0.1249729   0.3608584   0.2424608  )
        20        Mo     tau(  20) = (  -0.0007193   0.2876626   0.7275440  )
        21        S      tau(  21) = (  -0.1251115   0.3607789   0.6027257  )
        22        S      tau(  22) = (   0.0000621   0.2887099   0.3668377  )
        23        S      tau(  23) = (  -0.0000096   0.2886902   0.1180527  )
        24        S      tau(  24) = (  -0.1254673   0.3605734   0.8517408  )
        25        Mo     tau(  25) = (  -0.2499987   0.5773502  -0.7272732  )
        26        Mo     tau(  26) = (  -0.1249977   0.5051839  -0.2424055  )
        27        S      tau(  27) = (  -0.2499981   0.5773518  -0.3667809  )
        28        S      tau(  28) = (  -0.1249986   0.5051812  -0.6030489  )
        29        S      tau(  29) = (  -0.1249986   0.5051813  -0.8514963  )
        30        S      tau(  30) = (  -0.2499979   0.5773512  -0.1180266  )
        31        Mo     tau(  31) = (  -0.2499795   0.5773389   0.2424205  )
        32        Mo     tau(  32) = (  -0.1262356   0.5050639   0.7275441  )
        33        S      tau(  33) = (  -0.2498323   0.5773390   0.6020948  )
        34        S      tau(  34) = (  -0.1249376   0.5052159   0.3668377  )
        35        S      tau(  35) = (  -0.1249905   0.5051638   0.1180531  )
        36        S      tau(  36) = (  -0.2512883   0.5776183   0.8514340  )
        37        Mo     tau(  37) = (  -0.3749985   0.7938567  -0.7272732  )
        38        Mo     tau(  38) = (  -0.2500001   0.7216874  -0.2424031  )
        39        S      tau(  39) = (  -0.3749980   0.7938584  -0.3667800  )
        40        S      tau(  40) = (  -0.2499984   0.7216877  -0.6030489  )
        41        S      tau(  41) = (  -0.2499984   0.7216878  -0.8514963  )
        42        S      tau(  42) = (  -0.3749982   0.7938585  -0.1180264  )
        43        Mo     tau(  43) = (  -0.3749962   0.7938568   0.2423838  )
        44        Mo     tau(  44) = (  -0.2501148   0.7217588   0.7266170  )
        45        S      tau(  45) = (  -0.3749945   0.7938590   0.6021274  )
        46        S      tau(  46) = (  -0.2499958   0.7216877   0.3667488  )
        47        S      tau(  47) = (  -0.2499810   0.7216794   0.1180323  )
        48        S      tau(  48) = (  -0.3749953   0.7938585   0.8511588  )
        49        Mo     tau(  49) = (   0.2500010   0.1443372  -0.7272732  )
        50        Mo     tau(  50) = (   0.3750034   0.0721723  -0.2424032  )
        51        S      tau(  51) = (   0.2500017   0.1443391  -0.3667788  )
        52        S      tau(  52) = (   0.3750010   0.0721682  -0.6030489  )
        53        S      tau(  53) = (   0.3750010   0.0721683  -0.8514963  )
        54        S      tau(  54) = (   0.2500016   0.1443391  -0.1180271  )
        55        Mo     tau(  55) = (   0.2500054   0.1443594   0.2424211  )
        56        Mo     tau(  56) = (   0.3749279   0.0721263   0.7263991  )
        57        S      tau(  57) = (   0.2499344   0.1444864   0.6020948  )
        58        S      tau(  58) = (   0.3750316   0.0721860   0.3667597  )
        59        S      tau(  59) = (   0.3749924   0.0721644   0.1180346  )
        60        S      tau(  60) = (   0.2504199   0.1430865   0.8514340  )
        61        Mo     tau(  61) = (   0.1250012   0.3608437  -0.7272732  )
        62        Mo     tau(  62) = (   0.2500029   0.2886782  -0.2424031  )
        63        S      tau(  63) = (   0.1250024   0.3608455  -0.3667794  )
        64        S      tau(  64) = (   0.2500012   0.2886747  -0.6030489  )
        65        S      tau(  65) = (   0.2500012   0.2886748  -0.8514963  )
        66        S      tau(  66) = (   0.1250021   0.3608455  -0.1180270  )
        67        Mo     tau(  67) = (   0.1250038   0.3608653   0.2423963  )
        68        Mo     tau(  68) = (   0.2507284   0.2876625   0.7275438  )
        69        S      tau(  69) = (   0.1250046   0.3627170   0.6061948  )
        70        S      tau(  70) = (   0.2499461   0.2887116   0.3668373  )
        71        S      tau(  71) = (   0.2500171   0.2886900   0.1180543  )
        72        S      tau(  72) = (   0.1250046   0.3519103   0.8557806  )
        73        Mo     tau(  73) = (   0.0000014   0.5773502  -0.7272732  )
        74        Mo     tau(  74) = (   0.1250045   0.5051840  -0.2424036  )
        75        S      tau(  75) = (   0.0000030   0.5773520  -0.3667799  )
        76        S      tau(  76) = (   0.1250014   0.5051812  -0.6030489  )
        77        S      tau(  77) = (   0.1250014   0.5051813  -0.8514963  )
        78        S      tau(  78) = (   0.0000026   0.5773517  -0.1180274  )
        79        Mo     tau(  79) = (   0.0000222   0.5773400   0.2423964  )
        80        Mo     tau(  80) = (   0.1250047   0.5051836   0.7321380  )
        81        S      tau(  81) = (   0.0016251   0.5764170   0.6061946  )
        82        S      tau(  82) = (   0.1250047   0.5051815   0.3667777  )
        83        S      tau(  83) = (   0.1250048   0.5051819   0.1179962  )
        84        S      tau(  84) = (  -0.0077335   0.5818202   0.8557807  )
        85        Mo     tau(  85) = (  -0.1249984   0.7938567  -0.7272732  )
        86        Mo     tau(  86) = (   0.0000069   0.7216896  -0.2424039  )
        87        S      tau(  87) = (  -0.1249975   0.7938582  -0.3667782  )
        88        S      tau(  88) = (   0.0000016   0.7216877  -0.6030489  )
        89        S      tau(  89) = (   0.0000016   0.7216878  -0.8514963  )
        90        S      tau(  90) = (  -0.1249973   0.7938582  -0.1180279  )
        91        Mo     tau(  91) = (  -0.1249774   0.7938494   0.2424207  )
        92        Mo     tau(  92) = (  -0.0005116   0.7228241   0.7275438  )
        93        S      tau(  93) = (  -0.1249026   0.7937246   0.6020948  )
        94        S      tau(  94) = (   0.0000043   0.7216209   0.3668361  )
        95        S      tau(  95) = (   0.0000226   0.7216928   0.1180549  )
        96        S      tau(  96) = (  -0.1258721   0.7948451   0.8514341  )
        97        Mo     tau(  97) = (   0.5000010   0.1443372  -0.7272732  )
        98        Mo     tau(  98) = (   0.6250001   0.0721662  -0.2424040  )
        99        S      tau(  99) = (   0.5000017   0.1443386  -0.3667801  )
       100        S      tau( 100) = (   0.6250010   0.0721682  -0.6030489  )
       101        S      tau( 101) = (   0.6250010   0.0721683  -0.8514963  )
       102        S      tau( 102) = (   0.5000020   0.1443388  -0.1180261  )
       103        Mo     tau( 103) = (   0.5000075   0.1443411   0.2423793  )
       104        Mo     tau( 104) = (   0.6250042   0.0723339   0.7270464  )
       105        S      tau( 105) = (   0.5002366   0.1444733   0.6023595  )
       106        S      tau( 106) = (   0.6250029   0.0721787   0.3667562  )
       107        S      tau( 107) = (   0.6250040   0.0721260   0.1180315  )
       108        S      tau( 108) = (   0.4998752   0.1442648   0.8512770  )
       109        Mo     tau( 109) = (   0.3750012   0.3608437  -0.7272732  )
       110        Mo     tau( 110) = (   0.4999991   0.2886761  -0.2424038  )
       111        S      tau( 111) = (   0.3750012   0.3608452  -0.3667804  )
       112        S      tau( 112) = (   0.5000012   0.2886747  -0.6030489  )
       113        S      tau( 113) = (   0.5000012   0.2886748  -0.8514963  )
       114        S      tau( 114) = (   0.3750014   0.3608455  -0.1180261  )
       115        Mo     tau( 115) = (   0.3749795   0.3608597   0.2424601  )
       116        Mo     tau( 116) = (   0.5001461   0.2885951   0.7270464  )
       117        S      tau( 117) = (   0.3751205   0.3607791   0.6027254  )
       118        S      tau( 118) = (   0.5000105   0.2886721   0.3667569  )
       119        S      tau( 119) = (   0.4999655   0.2886989   0.1180297  )
       120        S      tau( 120) = (   0.3754765   0.3605739   0.8517402  )
       121        Mo     tau( 121) = (   0.2500014   0.5773502  -0.7272732  )
       122        Mo     tau( 122) = (   0.3749983   0.5051825  -0.2424043  )
       123        S      tau( 123) = (   0.2500017   0.5773519  -0.3667810  )
       124        S      tau( 124) = (   0.3750014   0.5051812  -0.6030489  )
       125        S      tau( 125) = (   0.3750014   0.5051813  -0.8514963  )
       126        S      tau( 126) = (   0.2500018   0.5773519  -0.1180256  )
       127        Mo     tau( 127) = (   0.2499863   0.5773402   0.2423965  )
       128        Mo     tau( 128) = (   0.3762454   0.5050642   0.7275433  )
       129        S      tau( 129) = (   0.2483844   0.5764169   0.6061944  )
       130        S      tau( 130) = (   0.3749442   0.5052158   0.3668400  )
       131        S      tau( 131) = (   0.3749972   0.5051650   0.1180510  )
       132        S      tau( 132) = (   0.2577438   0.5818204   0.8557797  )
       133        Mo     tau( 133) = (   0.1250016   0.7938567  -0.7272732  )
       134        Mo     tau( 134) = (   0.2499995   0.7216883  -0.2424036  )
       135        S      tau( 135) = (   0.1250024   0.7938578  -0.3667813  )
       136        S      tau( 136) = (   0.2500016   0.7216877  -0.6030489  )
       137        S      tau( 137) = (   0.2500016   0.7216878  -0.8514963  )
       138        S      tau( 138) = (   0.1250024   0.7938579  -0.1180253  )
       139        Mo     tau( 139) = (   0.1250047   0.7938294   0.2424606  )
       140        Mo     tau( 140) = (   0.2505220   0.7228241   0.7275433  )
       141        S      tau( 141) = (   0.1250053   0.7939926   0.6027252  )
       142        S      tau( 142) = (   0.2500048   0.7216200   0.3668387  )
       143        S      tau( 143) = (   0.2499864   0.7216915   0.1180524  )
       144        S      tau( 144) = (   0.1250054   0.7944033   0.8517402  )
       145        Mo     tau( 145) = (   0.7500010   0.1443372  -0.7272732  )
       146        Mo     tau( 146) = (   0.8750038   0.0721696  -0.2424038  )
       147        S      tau( 147) = (   0.7500016   0.1443382  -0.3667789  )
       148        S      tau( 148) = (   0.8750010   0.0721682  -0.6030489  )
       149        S      tau( 149) = (   0.8750010   0.0721683  -0.8514963  )
       150        S      tau( 150) = (   0.7500016   0.1443384  -0.1180279  )
       151        Mo     tau( 151) = (   0.7499986   0.1443409   0.2423802  )
       152        Mo     tau( 152) = (   0.8750804   0.0721266   0.7263988  )
       153        S      tau( 153) = (   0.7497713   0.1444738   0.6023592  )
       154        S      tau( 154) = (   0.8749758   0.0721848   0.3667595  )
       155        S      tau( 155) = (   0.8750127   0.0721632   0.1180342  )
       156        S      tau( 156) = (   0.7501331   0.1442647   0.8512770  )
       157        Mo     tau( 157) = (   0.6250012   0.3608437  -0.7272732  )
       158        Mo     tau( 158) = (   0.7500028   0.2886769  -0.2424041  )
       159        S      tau( 159) = (   0.6250015   0.3608451  -0.3667792  )
       160        S      tau( 160) = (   0.7500012   0.2886747  -0.6030489  )
       161        S      tau( 161) = (   0.7500012   0.2886748  -0.8514963  )
       162        S      tau( 162) = (   0.6250016   0.3608454  -0.1180280  )
       163        Mo     tau( 163) = (   0.6250032   0.3608391   0.2423797  )
       164        Mo     tau( 164) = (   0.7498627   0.2885951   0.7270467  )
       165        S      tau( 165) = (   0.6250046   0.3605769   0.6023590  )
       166        S      tau( 166) = (   0.7499943   0.2886711   0.3667569  )
       167        S      tau( 167) = (   0.7500399   0.2886970   0.1180318  )
       168        S      tau( 168) = (   0.6250043   0.3609947   0.8512770  )
       169        Mo     tau( 169) = (   0.5000014   0.5773502  -0.7272732  )
       170        Mo     tau( 170) = (   0.6250029   0.5051841  -0.2424047  )
       171        S      tau( 171) = (   0.5000014   0.5773518  -0.3667794  )
       172        S      tau( 172) = (   0.6250014   0.5051812  -0.6030489  )
       173        S      tau( 173) = (   0.6250014   0.5051813  -0.8514963  )
       174        S      tau( 174) = (   0.5000016   0.5773516  -0.1180277  )
       175        Mo     tau( 175) = (   0.4999855   0.5773383   0.2424207  )
       176        Mo     tau( 176) = (   0.6250049   0.5052713   0.7263986  )
       177        S      tau( 177) = (   0.4998428   0.5773389   0.6020941  )
       178        S      tau( 178) = (   0.6250030   0.5051500   0.3667588  )
       179        S      tau( 179) = (   0.6250025   0.5051935   0.1180351  )
       180        S      tau( 180) = (   0.5012979   0.5776190   0.8514332  )
       181        Mo     tau( 181) = (   0.3750016   0.7938567  -0.7272732  )
       182        Mo     tau( 182) = (   0.5000025   0.7216901  -0.2424039  )
       183        S      tau( 183) = (   0.3750019   0.7938578  -0.3667793  )
       184        S      tau( 184) = (   0.5000016   0.7216877  -0.6030489  )
       185        S      tau( 185) = (   0.5000016   0.7216878  -0.8514963  )
       186        S      tau( 186) = (   0.3750020   0.7938579  -0.1180272  )
       187        Mo     tau( 187) = (   0.3749848   0.7938487   0.2424206  )
       188        Mo     tau( 188) = (   0.5001249   0.7217591   0.7266160  )
       189        S      tau( 189) = (   0.3749125   0.7937251   0.6020942  )
       190        S      tau( 190) = (   0.5000021   0.7216868   0.3667472  )
       191        S      tau( 191) = (   0.4999874   0.7216780   0.1180346  )
       192        S      tau( 192) = (   0.3758826   0.7948451   0.8514332  )
       193        Pd     tau( 193) = (   0.1250063   0.5051842   0.9601361  )
       194        Pt     tau( 194) = (   0.2527577   0.4314440   1.0779091  )

     --------------------------------------------
     DFT-D3 Dispersion Correction (3-body terms):
     --------------------------------------------
       Reference C6 values for interpolation: 

         atom   Coordination number   C6
         S          0.000           268.01
         S          0.995           261.99
         S          1.990           251.62
         Mo         0.000          1691.79
         Mo         1.942          1004.01
         Mo        11.056           674.22
         Pd         0.000          1217.01
         Pd         1.863           573.90
         Pd         5.710           531.75
         Pt         0.000           782.29
         Pt         1.919           692.72
         Pt         6.667           673.75

       Values used:

         atom   Coordination number  R0_AB[au]  C6      C8
         Mo        10.208            3.547    674.22  77634.20
         Mo        10.221            3.547    674.22  77634.20
         S          3.858            3.128    251.62  12327.25
         S          3.859            3.128    251.62  12327.25
         S          3.758            3.128    251.62  12327.25
         S          3.859            3.128    251.62  12327.25
         Mo        10.220            3.547    674.22  77634.20
         Mo        10.234            3.547    674.22  77634.20
         S          3.847            3.128    251.62  12327.25
         S          3.861            3.128    251.62  12327.25
         S          3.859            3.128    251.62  12327.25
         S          3.805            3.128    251.62  12327.25
         Mo        10.208            3.547    674.22  77634.20
         Mo        10.221            3.547    674.22  77634.20
         S          3.858            3.128    251.62  12327.25
         S          3.859            3.128    251.62  12327.25
         S          3.758            3.128    251.62  12327.25
         S          3.859            3.128    251.62  12327.25
         Mo        10.221            3.547    674.22  77634.20
         Mo        10.192            3.547    674.22  77634.20
         S          3.855            3.128    251.62  12327.25
         S          3.856            3.128    251.62  12327.25
         S          3.859            3.128    251.62  12327.25
         S          3.757            3.128    251.62  12327.25
         Mo        10.208            3.547    674.22  77634.20
         Mo        10.221            3.547    674.22  77634.20
         S          3.858            3.128    251.62  12327.25
         S          3.859            3.128    251.62  12327.25
         S          3.758            3.128    251.62  12327.25
         S          3.859            3.128    251.62  12327.25
         Mo        10.220            3.547    674.22  77634.20
         Mo        10.191            3.547    674.22  77634.20
         S          3.847            3.128    251.62  12327.25
         S          3.856            3.128    251.62  12327.25
         S          3.859            3.128    251.62  12327.25
         S          3.805            3.128    251.62  12327.25
         Mo        10.208            3.547    674.21  77634.20
         Mo        10.221            3.547    674.22  77634.20
         S          3.858            3.128    251.62  12327.25
         S          3.859            3.128    251.62  12327.25
         S          3.758            3.128    251.62  12327.25
         S          3.859            3.128    251.62  12327.25
         Mo        10.219            3.547    674.22  77634.20
         Mo        10.233            3.547    674.22  77634.20
         S          3.856            3.128    251.62  12327.25
         S          3.861            3.128    251.62  12327.25
         S          3.859            3.128    251.62  12327.25
         S          3.782            3.128    251.62  12327.25
         Mo        10.208            3.547    674.22  77634.20
         Mo        10.221            3.547    674.22  77634.20
         S          3.858            3.128    251.62  12327.25
         S          3.859            3.128    251.62  12327.25
         S          3.758            3.128    251.62  12327.25
         S          3.859            3.128    251.62  12327.25
         Mo        10.220            3.547    674.22  77634.20
         Mo        10.244            3.547    674.22  77634.20
         S          3.847            3.128    251.62  12327.25
         S          3.860            3.128    251.62  12327.25
         S          3.859            3.128    251.62  12327.25
         S          3.807            3.128    251.62  12327.25
         Mo        10.208            3.547    674.22  77634.20
         Mo        10.221            3.547    674.22  77634.20
         S          3.858            3.128    251.62  12327.25
         S          3.859            3.128    251.62  12327.25
         S          3.758            3.128    251.62  12327.25
         S          3.859            3.128    251.62  12327.25
         Mo        10.222            3.547    674.22  77634.20
         Mo        10.195            3.547    674.22  77634.20
         S          3.865            3.128    251.62  12327.25
         S          3.856            3.128    251.62  12327.25
         S          3.859            3.128    251.62  12327.25
         S          4.728            3.128    251.62  12327.25
         Mo        10.208            3.547    674.22  77634.20
         Mo        10.221            3.547    674.22  77634.20
         S          3.858            3.128    251.62  12327.25
         S          3.859            3.128    251.62  12327.25
         S          3.758            3.128    251.62  12327.25
         S          3.859            3.128    251.62  12327.25
         Mo        10.222            3.547    674.22  77634.20
         Mo        10.826            3.547    674.22  77634.20
         S          3.865            3.128    251.62  12327.25
         S          3.853            3.128    251.62  12327.25
         S          3.859            3.128    251.62  12327.25
         S          4.654            3.128    251.62  12327.25
         Mo        10.208            3.547    674.22  77634.20
         Mo        10.221            3.547    674.22  77634.20
         S          3.858            3.128    251.62  12327.25
         S          3.859            3.128    251.62  12327.25
         S          3.758            3.128    251.62  12327.25
         S          3.859            3.128    251.62  12327.25
         Mo        10.220            3.547    674.22  77634.20
         Mo        10.191            3.547    674.22  77634.20
         S          3.847            3.128    251.62  12327.25
         S          3.856            3.128    251.62  12327.25
         S          3.859            3.128    251.62  12327.25
         S          3.805            3.128    251.62  12327.25
         Mo        10.208            3.547    674.22  77634.20
         Mo        10.221            3.547    674.22  77634.20
         S          3.858            3.128    251.62  12327.25
         S          3.859            3.128    251.62  12327.25
         S          3.758            3.128    251.62  12327.25
         S          3.859            3.128    251.62  12327.25
         Mo        10.220            3.547    674.22  77634.20
         Mo        10.229            3.547    674.22  77634.20
         S          3.862            3.128    251.62  12327.25
         S          3.860            3.128    251.62  12327.25
         S          3.859            3.128    251.62  12327.25
         S          3.765            3.128    251.62  12327.25
         Mo        10.208            3.547    674.22  77634.20
         Mo        10.221            3.547    674.22  77634.20
         S          3.858            3.128    251.62  12327.25
         S          3.859            3.128    251.62  12327.25
         S          3.758            3.128    251.62  12327.25
         S          3.859            3.128    251.62  12327.25
         Mo        10.221            3.547    674.22  77634.20
         Mo        10.230            3.547    674.22  77634.20
         S          3.855            3.128    251.62  12327.25
         S          3.860            3.128    251.62  12327.25
         S          3.859            3.128    251.62  12327.25
         S          3.837            3.128    251.62  12327.25
         Mo        10.208            3.547    674.22  77634.20
         Mo        10.221            3.547    674.22  77634.20
         S          3.858            3.128    251.62  12327.25
         S          3.859            3.128    251.62  12327.25
         S          3.758            3.128    251.62  12327.25
         S          3.859            3.128    251.62  12327.25
         Mo        10.222            3.547    674.22  77634.20
         Mo        10.195            3.547    674.22  77634.20
         S          3.865            3.128    251.62  12327.25
         S          3.856            3.128    251.62  12327.25
         S          3.859            3.128    251.62  12327.25
         S          4.728            3.128    251.62  12327.25
         Mo        10.208            3.547    674.22  77634.20
         Mo        10.221            3.547    674.22  77634.20
         S          3.858            3.128    251.62  12327.25
         S          3.859            3.128    251.62  12327.25
         S          3.758            3.128    251.62  12327.25
         S          3.859            3.128    251.62  12327.25
         Mo        10.221            3.547    674.22  77634.20
         Mo        10.192            3.547    674.22  77634.20
         S          3.855            3.128    251.62  12327.25
         S          3.856            3.128    251.62  12327.25
         S          3.859            3.128    251.62  12327.25
         S          3.757            3.128    251.62  12327.25
         Mo        10.208            3.547    674.22  77634.20
         Mo        10.221            3.547    674.22  77634.20
         S          3.858            3.128    251.62  12327.25
         S          3.859            3.128    251.62  12327.25
         S          3.758            3.128    251.62  12327.25
         S          3.859            3.128    251.62  12327.25
         Mo        10.220            3.547    674.22  77634.20
         Mo        10.244            3.547    674.22  77634.20
         S          3.862            3.128    251.62  12327.25
         S          3.860            3.128    251.62  12327.25
         S          3.859            3.128    251.62  12327.25
         S          3.765            3.128    251.62  12327.25
         Mo        10.208            3.547    674.22  77634.20
         Mo        10.220            3.547    674.22  77634.20
         S          3.858            3.128    251.62  12327.25
         S          3.859            3.128    251.62  12327.25
         S          3.758            3.128    251.62  12327.25
         S          3.859            3.128    251.62  12327.25
         Mo        10.220            3.547    674.22  77634.20
         Mo        10.229            3.547    674.22  77634.20
         S          3.862            3.128    251.62  12327.25
         S          3.860            3.128    251.62  12327.25
         S          3.859            3.128    251.62  12327.25
         S          3.765            3.128    251.62  12327.25
         Mo        10.208            3.547    674.22  77634.20
         Mo        10.221            3.547    674.22  77634.20
         S          3.858            3.128    251.62  12327.25
         S          3.859            3.128    251.62  12327.25
         S          3.758            3.128    251.62  12327.25
         S          3.859            3.128    251.62  12327.25
         Mo        10.220            3.547    674.22  77634.20
         Mo        10.244            3.547    674.22  77634.20
         S          3.847            3.128    251.62  12327.25
         S          3.860            3.128    251.62  12327.25
         S          3.859            3.128    251.62  12327.25
         S          3.807            3.128    251.62  12327.25
         Mo        10.208            3.547    674.22  77634.20
         Mo        10.221            3.547    674.22  77634.20
         S          3.858            3.128    251.62  12327.25
         S          3.859            3.128    251.62  12327.25
         S          3.758            3.128    251.62  12327.25
         S          3.859            3.128    251.62  12327.25
         Mo        10.220            3.547    674.21  77634.20
         Mo        10.234            3.547    674.22  77634.20
         S          3.847            3.128    251.62  12327.25
         S          3.861            3.128    251.62  12327.25
         S          3.859            3.128    251.62  12327.25
         S          3.805            3.128    251.62  12327.25
         Pd         4.743            3.168    531.75  48720.73
         Pt         1.240            3.168    693.83  72150.05

         Molecular C6 ( Ry / a.u.^6 ) =  13979993.97


     number of k points=     4  Gaussian smearing, width (Ry)=  0.0100
                       cart. coord. in units 2pi/alat
        k(    1) = (   0.0000000   0.0000000   0.0000000), wk =   0.5000000
        k(    2) = (   0.0000000  -0.5773499   0.0000000), wk =   0.5000000
        k(    3) = (  -0.5000000  -0.2886744   0.0000000), wk =   0.5000000
        k(    4) = (  -0.5000000  -0.8660242   0.0000000), wk =   0.5000000

     Dense  grid:  7154885 G-vectors     FFT dimensions: ( 180, 180, 512)

     Smooth grid:  3090769 G-vectors     FFT dimensions: ( 135, 135, 400)

     Estimated max dynamical RAM per process >       4.31 GB

     Estimated total dynamical RAM >     155.10 GB

     Initial potential from superposition of free atoms

     starting charge    1713.9389, renormalised to    1714.0000

     negative rho (up, down):  8.187E-04 0.000E+00
     Starting wfcs are 1179 randomized atomic wfcs
     Checking if some PAW data can be deallocated... 

     total cpu time spent up to now is      181.8 secs

     Self-consistent Calculation

     iteration #  1     ecut=    77.00 Ry     beta= 0.20
     Davidson diagonalization with overlap
     ethr =  1.00E-02,  avg # of iterations =  2.0

     Threshold (ethr) on eigenvalues was too large:
     Diagonalizing with lowered threshold

     Davidson diagonalization with overlap
     ethr =  1.80E-04,  avg # of iterations = 16.8

     negative rho (up, down):  2.110E-04 0.000E+00

     total cpu time spent up to now is     2186.7 secs

     total energy              =  -33980.06325658 Ry
     estimated scf accuracy    <       6.36322729 Ry

     iteration #  2     ecut=    77.00 Ry     beta= 0.20
     Davidson diagonalization with overlap
     ethr =  3.71E-04,  avg # of iterations =  5.0

     negative rho (up, down):  2.099E-04 0.000E+00

     total cpu time spent up to now is     2615.9 secs

     total energy              =  -33976.87158044 Ry
     estimated scf accuracy    <      62.35558817 Ry

     iteration #  3     ecut=    77.00 Ry     beta= 0.20
     Davidson diagonalization with overlap
     ethr =  3.71E-04,  avg # of iterations =  7.5

     negative rho (up, down):  2.217E-04 0.000E+00

     total cpu time spent up to now is     3055.3 secs

     total energy              =  -33977.22821881 Ry
     estimated scf accuracy    <      85.07646553 Ry

     iteration #  4     ecut=    77.00 Ry     beta= 0.20
     Davidson diagonalization with overlap
     ethr =  3.71E-04,  avg # of iterations =  4.0

     negative rho (up, down):  3.321E-05 0.000E+00

     total cpu time spent up to now is     3479.2 secs

     total energy              =  -33979.32390457 Ry
     estimated scf accuracy    <       3.70073479 Ry

     iteration #  5     ecut=    77.00 Ry     beta= 0.20
     Davidson diagonalization with overlap
     ethr =  2.16E-04,  avg # of iterations = 10.8

     negative rho (up, down):  1.739E-05 0.000E+00

     total cpu time spent up to now is     3957.0 secs

     total energy              =  -33979.36737448 Ry
     estimated scf accuracy    <       1.66153903 Ry

     iteration #  6     ecut=    77.00 Ry     beta= 0.20
     Davidson diagonalization with overlap
     ethr =  9.69E-05,  avg # of iterations =  8.0

     negative rho (up, down):  2.187E-05 0.000E+00

     total cpu time spent up to now is     4635.8 secs

     total energy              =  -33979.94879481 Ry
     estimated scf accuracy    <       1.94477368 Ry

     iteration #  7     ecut=    77.00 Ry     beta= 0.20
     Davidson diagonalization with overlap
     ethr =  9.69E-05,  avg # of iterations =  1.5

     negative rho (up, down):  2.905E-05 0.000E+00

     total cpu time spent up to now is     5031.3 secs

     total energy              =  -33979.98135444 Ry
     estimated scf accuracy    <       0.81230986 Ry

     iteration #  8     ecut=    77.00 Ry     beta= 0.20
     Davidson diagonalization with overlap
     ethr =  4.74E-05,  avg # of iterations = 15.0

     negative rho (up, down):  5.664E-05 0.000E+00

     total cpu time spent up to now is     5579.5 secs

     total energy              =  -33979.95275878 Ry
     estimated scf accuracy    <       0.66975145 Ry

     iteration #  9     ecut=    77.00 Ry     beta= 0.20
     Davidson diagonalization with overlap
     ethr =  3.91E-05,  avg # of iterations =  9.0

     negative rho (up, down):  1.087E-04 0.000E+00

     total cpu time spent up to now is     6028.8 secs

     total energy              =  -33979.95096374 Ry
     estimated scf accuracy    <       0.27950024 Ry

     iteration # 10     ecut=    77.00 Ry     beta= 0.20
     Davidson diagonalization with overlap
     ethr =  1.63E-05,  avg # of iterations = 13.2

     negative rho (up, down):  1.204E-04 0.000E+00

     total cpu time spent up to now is     6791.4 secs

     total energy              =  -33980.07158067 Ry
     estimated scf accuracy    <       0.16219729 Ry

     iteration # 11     ecut=    77.00 Ry     beta= 0.20
     Davidson diagonalization with overlap
     ethr =  9.46E-06,  avg # of iterations =  8.8

     negative rho (up, down):  1.576E-04 0.000E+00

     total cpu time spent up to now is     7308.1 secs

     total energy              =  -33980.10416390 Ry
     estimated scf accuracy    <       0.02907943 Ry

     iteration # 12     ecut=    77.00 Ry     beta= 0.20
     Davidson diagonalization with overlap
     c_bands:  7 eigenvalues not converged
     c_bands: 12 eigenvalues not converged
     c_bands: 11 eigenvalues not converged
     ethr =  1.70E-06,  avg # of iterations =102.8

     negative rho (up, down):  1.695E-04 0.000E+00

     total cpu time spent up to now is    10785.6 secs

     total energy              =  -33980.16938384 Ry
     estimated scf accuracy    <       0.01970900 Ry

     iteration # 13     ecut=    77.00 Ry     beta= 0.20
     Davidson diagonalization with overlap
     c_bands:  1 eigenvalues not converged
     c_bands:  1 eigenvalues not converged
     c_bands:  3 eigenvalues not converged
     ethr =  1.15E-06,  avg # of iterations = 30.2

     negative rho (up, down):  2.390E-04 0.000E+00

     total cpu time spent up to now is    11549.9 secs

     total energy              =  -33980.16695232 Ry
     estimated scf accuracy    <       0.01433807 Ry

     iteration # 14     ecut=    77.00 Ry     beta= 0.20
     Davidson diagonalization with overlap
     ethr =  8.37E-07,  avg # of iterations =  1.8

     negative rho (up, down):  4.863E-04 0.000E+00

     total cpu time spent up to now is    11954.1 secs

     total energy              =  -33980.16368946 Ry
     estimated scf accuracy    <       0.01164075 Ry

     iteration # 15     ecut=    77.00 Ry     beta= 0.20
     Davidson diagonalization with overlap
     ethr =  6.79E-07,  avg # of iterations =  9.5

     negative rho (up, down):  6.250E-04 0.000E+00

     total cpu time spent up to now is    12429.1 secs

     total energy              =  -33980.16542702 Ry
     estimated scf accuracy    <       0.02202019 Ry

     iteration # 16     ecut=    77.00 Ry     beta= 0.20
     Davidson diagonalization with overlap
     ethr =  6.79E-07,  avg # of iterations =  4.2

     negative rho (up, down):  6.653E-04 0.000E+00

     total cpu time spent up to now is    12853.4 secs

     total energy              =  -33980.16649637 Ry
     estimated scf accuracy    <       0.00204348 Ry

     iteration # 17     ecut=    77.00 Ry     beta= 0.20
     Davidson diagonalization with overlap
     ethr =  1.19E-07,  avg # of iterations = 18.8

     negative rho (up, down):  6.547E-04 0.000E+00

     total cpu time spent up to now is    14079.2 secs

     total energy              =  -33980.17055417 Ry
     estimated scf accuracy    <       0.00185868 Ry

     iteration # 18     ecut=    77.00 Ry     beta= 0.20
     Davidson diagonalization with overlap
     ethr =  1.08E-07,  avg # of iterations =  1.0

     negative rho (up, down):  6.150E-04 0.000E+00

     total cpu time spent up to now is    14453.8 secs

     total energy              =  -33980.17020855 Ry
     estimated scf accuracy    <       0.00186912 Ry

     iteration # 19     ecut=    77.00 Ry     beta= 0.20
     Davidson diagonalization with overlap
     ethr =  1.08E-07,  avg # of iterations =  1.0

     negative rho (up, down):  7.830E-04 0.000E+00

     total cpu time spent up to now is    14829.1 secs

     total energy              =  -33980.16981132 Ry
     estimated scf accuracy    <       0.00129033 Ry

     iteration # 20     ecut=    77.00 Ry     beta= 0.20
     Davidson diagonalization with overlap
     ethr =  7.53E-08,  avg # of iterations =  6.0

     negative rho (up, down):  7.956E-04 0.000E+00

     total cpu time spent up to now is    15259.8 secs

     total energy              =  -33980.16975226 Ry
     estimated scf accuracy    <       0.00055207 Ry

     iteration # 21     ecut=    77.00 Ry     beta= 0.20
     Davidson diagonalization with overlap
     ethr =  3.22E-08,  avg # of iterations = 12.8

     negative rho (up, down):  7.989E-04 0.000E+00

     total cpu time spent up to now is    16051.9 secs

     total energy              =  -33980.17023509 Ry
     estimated scf accuracy    <       0.00016096 Ry

     iteration # 22     ecut=    77.00 Ry     beta= 0.20
     Davidson diagonalization with overlap
     ethr =  9.39E-09,  avg # of iterations = 14.5

     negative rho (up, down):  8.108E-04 0.000E+00

     total cpu time spent up to now is    16934.8 secs

     total energy              =  -33980.17034976 Ry
     estimated scf accuracy    <       0.00010006 Ry

     iteration # 23     ecut=    77.00 Ry     beta= 0.20
     Davidson diagonalization with overlap
     ethr =  5.84E-09,  avg # of iterations = 12.5

     negative rho (up, down):  8.404E-04 0.000E+00

     total cpu time spent up to now is    17401.3 secs

     total energy              =  -33980.17031984 Ry
     estimated scf accuracy    <       0.00008541 Ry

     iteration # 24     ecut=    77.00 Ry     beta= 0.20
     Davidson diagonalization with overlap
     ethr =  4.98E-09,  avg # of iterations = 12.5

     negative rho (up, down):  8.547E-04 0.000E+00

     total cpu time spent up to now is    17904.6 secs

     total energy              =  -33980.17031484 Ry
     estimated scf accuracy    <       0.00003380 Ry

     iteration # 25     ecut=    77.00 Ry     beta= 0.20
     Davidson diagonalization with overlap
     ethr =  1.97E-09,  avg # of iterations = 15.2

     negative rho (up, down):  8.481E-04 0.000E+00

     total cpu time spent up to now is    18832.7 secs

     total energy              =  -33980.17035641 Ry
     estimated scf accuracy    <       0.00001798 Ry

     iteration # 26     ecut=    77.00 Ry     beta= 0.20
     Davidson diagonalization with overlap
     ethr =  1.05E-09,  avg # of iterations =  4.8

     negative rho (up, down):  8.501E-04 0.000E+00

     total cpu time spent up to now is    19264.1 secs

     total energy              =  -33980.17035387 Ry
     estimated scf accuracy    <       0.00000746 Ry

     iteration # 27     ecut=    77.00 Ry     beta= 0.20
     Davidson diagonalization with overlap
     ethr =  4.36E-10,  avg # of iterations = 16.2

     negative rho (up, down):  8.428E-04 0.000E+00

     total cpu time spent up to now is    20293.7 secs

     total energy              =  -33980.17036620 Ry
     estimated scf accuracy    <       0.00000338 Ry

     iteration # 28     ecut=    77.00 Ry     beta= 0.20
     Davidson diagonalization with overlap
     ethr =  1.97E-10,  avg # of iterations = 15.5

     negative rho (up, down):  8.522E-04 0.000E+00

     total cpu time spent up to now is    21051.7 secs

     total energy              =  -33980.17036101 Ry
     estimated scf accuracy    <       0.00000619 Ry

     iteration # 29     ecut=    77.00 Ry     beta= 0.20
     Davidson diagonalization with overlap
     ethr =  1.97E-10,  avg # of iterations =  6.8

     negative rho (up, down):  8.503E-04 0.000E+00

     total cpu time spent up to now is    21481.7 secs

     total energy              =  -33980.17036131 Ry
     estimated scf accuracy    <       0.00000153 Ry

     iteration # 30     ecut=    77.00 Ry     beta= 0.20
     Davidson diagonalization with overlap
     ethr =  8.92E-11,  avg # of iterations = 14.0

     negative rho (up, down):  8.500E-04 0.000E+00

     total cpu time spent up to now is    22278.6 secs

     End of self-consistent calculation

          k = 0.0000 0.0000 0.0000 (386245 PWs)   bands (ev):

  -101.1511 -89.7091 -69.6084 -69.6021 -69.5192 -69.5092 -69.4891 -69.3964
   -69.3959 -66.8395 -66.8193 -66.8189 -66.8185 -66.8156 -66.7995 -66.7985
   -66.7985 -66.7980 -66.7980 -66.7980 -66.7980 -66.7980 -66.7980 -66.7978
   -66.7978 -66.7977 -66.7975 -66.7974 -66.7972 -66.7972 -66.7972 -66.7972
   -66.7972 -66.7972 -66.7972 -66.7924 -66.7880 -66.7834 -66.7796 -66.7767
   -66.7767 -66.7767 -66.7766 -66.7766 -66.7766 -66.7766 -66.7766 -66.7766
   -66.7766 -66.7765 -66.7764 -66.7763 -66.7761 -66.7761 -66.7761 -66.7760
   -66.7758 -66.7758 -66.7758 -66.7758 -66.7758 -66.7757 -66.7757 -66.7757
   -66.7757 -66.7757 -66.7757 -66.7742 -66.7708 -66.7707 -66.7631 -66.7521
   -66.7499 -55.9659 -55.4504 -55.3617 -55.3541 -55.2470 -55.0912 -41.1467
   -41.1467 -41.1467 -41.1466 -41.1466 -41.1466 -41.1464 -41.1463 -41.1462
   -41.1430 -41.1413 -41.1398 -41.0714 -41.0714 -41.0714 -41.0714 -41.0714
   -41.0714 -41.0712 -41.0712 -41.0712 -41.0712 -41.0712 -41.0712 -41.0712
   -41.0711 -41.0710 -41.0710 -41.0708 -41.0708 -41.0702 -41.0688 -41.0655
   -41.0628 -41.0626 -41.0599 -41.0175 -40.9790 -40.9788 -40.9785 -40.9740
   -40.9476 -40.9475 -40.9451 -40.9451 -40.9451 -40.9451 -40.9451 -40.9450
   -40.9449 -40.9447 -40.9447 -40.9447 -40.9447 -40.9447 -40.9447 -40.9447
   -40.9447 -40.9446 -40.9445 -40.9444 -40.9444 -40.9437 -40.9410 -40.9394
   -40.9376 -40.9374 -40.9373 -40.9373 -40.9372 -40.9372 -40.9372 -40.9372
   -40.9371 -40.9371 -40.9370 -40.9370 -40.9370 -40.9370 -40.9370 -40.9370
   -40.9369 -40.9367 -40.9367 -40.9366 -40.9361 -40.9310 -40.9275 -40.9135
   -40.9126 -40.9101 -40.9101 -40.9101 -40.9100 -40.9100 -40.9100 -40.9098
   -40.9097 -40.9097 -40.9096 -40.9096 -40.9096 -40.9096 -40.9096 -40.9096
   -40.9095 -40.9094 -40.9094 -40.9082 -40.9075 -40.9052 -40.9040 -40.9024
   -40.8980 -40.8975 -40.8953 -40.8953 -40.8953 -40.8953 -40.8953 -40.8953
   -40.8953 -40.8952 -40.8952 -40.8952 -40.8952 -40.8951 -40.8951 -40.8950
   -40.8950 -40.8950 -40.8950 -40.8950 -40.8950 -40.8949 -40.8949 -40.8949
   -40.8949 -40.8948 -40.8947 -40.8946 -40.8946 -40.8945 -40.8944 -40.8940
   -40.8895 -40.8823 -40.8815 -40.8317 -40.8317 -40.8317 -40.8313 -40.8313
   -40.8312 -40.8312 -40.8312 -40.8312 -40.8280 -40.8265 -40.8217 -40.7846
   -40.7846 -40.7846 -40.7846 -40.7846 -40.7846 -40.7844 -40.7843 -40.7843
   -40.7841 -40.7841 -40.7841 -40.7841 -40.7841 -40.7841 -40.7840 -40.7839
   -40.7838 -40.7838 -40.7814 -40.7811 -40.7741 -40.7729 -40.7688 -40.7370
   -40.7370 -40.7365 -40.7365 -40.7364 -40.7364 -40.7284 -40.7276 -20.3197
   -20.2575 -20.1649 -20.0750 -19.4807 -19.4618 -19.4592 -19.4430 -19.4425
   -19.4419 -19.4202 -19.4128 -19.4109 -19.3796 -19.3788 -19.3771 -19.3299
   -19.3256 -19.3244 -19.2925 -19.2923 -19.2903 -19.2332 -19.2316 -19.2312
   -19.2177 -19.2176 -19.2167 -19.0880 -18.9665 -18.8200 -18.7355 -18.7320
   -18.7132 -18.6749 -18.6628 -18.6626 -18.6618 -18.6160 -18.6151 -18.6001
   -18.5551 -18.5544 -18.5529 -18.4910 -18.4901 -18.4750 -18.4456 -18.4444
   -18.4429 -18.3981 -18.3958 -18.3783 -18.3693 -18.3687 -18.3681 -18.3566
   -18.3530 -18.3188 -18.3169 -18.3167 -18.3167 -18.3135 -18.3135 -18.2904
   -18.2844 -18.2841 -18.2835 -18.2768 -18.2762 -18.2732 -18.2710 -18.2707
   -18.2490 -18.2459 -18.2452 -18.2429 -18.2370 -18.2359 -18.2352 -18.2215
   -18.2209 -18.2112 -18.2032 -18.2029 -18.1929 -18.1885 -18.1885 -18.1885
   -18.1753 -18.1746 -18.1730 -18.1473 -18.1452 -18.1176 -18.1124 -18.1104
   -18.1074 -18.1058 -18.1053 -18.1043 -18.0890 -18.0885 -18.0795 -18.0687
   -18.0675 -18.0596 -18.0564 -18.0556 -18.0549 -18.0501 -18.0495 -18.0494
   -18.0361 -18.0360 -18.0346 -18.0227 -18.0215 -18.0177 -18.0145 -18.0124
   -18.0117 -17.9920 -17.9919 -17.9902 -17.9890 -17.9884 -17.9877 -12.1790
   -12.0729 -12.0219 -12.0191 -11.9841 -11.9504 -11.9453 -11.9340 -11.8608
   -11.8418 -11.8381 -11.7497 -11.7429 -11.7417 -11.6199 -11.4739 -11.4460
   -11.4404 -11.4327 -11.4319 -11.4316 -11.4037 -11.3754 -11.3538 -11.3315
   -11.3295 -11.3294 -11.3230 -11.3203 -11.3159 -11.2848 -11.2653 -11.2640
   -11.2623 -11.2583 -11.2561 -11.2560 -11.2494 -11.2477 -11.2476 -11.2267
   -11.2223 -11.2152 -11.1814 -11.1733 -11.1715 -11.1581 -11.1515 -11.1325
   -11.1118 -11.1093 -11.1084 -11.0934 -11.0892 -11.0742 -11.0602 -11.0593
   -11.0450 -11.0438 -11.0435 -11.0383 -11.0366 -11.0273 -11.0266 -11.0221
   -11.0200 -11.0173 -11.0058 -11.0029 -10.9981 -10.9977 -10.9957 -10.9946
   -10.9925 -10.9910 -10.9907 -10.9734 -10.9723 -10.9656 -10.9648 -10.9631
   -10.9560 -10.9385 -10.9381 -10.9375 -10.9326 -10.9325 -10.9274 -10.9250
   -10.9244 -10.9238 -10.8477 -10.8470 -10.8456 -10.7941 -10.7788 -10.7774
   -10.7695 -10.7680 -10.7670 -10.6006 -10.5481 -10.3922 -10.3502 -10.3362
   -10.1897 -10.1434 -10.1324 -10.0360 -10.0140 -10.0043 -10.0028  -9.9936
    -9.9933  -9.9892  -9.9748  -9.9638  -9.9637  -9.9631  -9.9628  -9.9622
    -9.9537  -9.9512  -9.9498  -9.9426  -9.9422  -9.9401  -9.9206  -9.9175
    -9.9137  -9.8530  -9.8267  -9.8245  -9.8223  -9.8212  -9.8181  -9.8178
    -9.8125  -9.8121  -9.8119  -9.8116  -9.8113  -9.8105  -9.7983  -9.7968
    -9.7739  -9.7696  -9.7690  -9.7376  -9.7374  -9.7370  -9.7363  -9.7362
    -9.7362  -9.7233  -9.7173  -9.7154  -9.7142  -9.7076  -9.7073  -9.6879
    -9.6859  -9.6483  -9.6383  -9.6371  -9.6360  -9.5588  -9.5495  -9.5445
    -9.5297  -9.5296  -9.5232  -9.5230  -9.5121  -9.5055  -9.4970  -9.4963
    -9.4935  -9.4459  -9.4367  -9.4309  -9.4199  -9.4185  -9.4039  -9.3811
    -9.3785  -9.3770  -9.3737  -9.3731  -9.3679  -9.3304  -9.3280  -9.3169
    -9.3136  -9.2967  -9.2918  -9.2852  -9.2717  -9.2018  -9.2012  -9.1769
    -9.1767  -9.1755  -9.1497  -9.1491  -9.1477  -9.1310  -9.1292  -9.1222
    -9.1193  -9.1191  -9.1112  -9.1110  -9.1027  -9.0965  -9.0873  -9.0869
    -9.0636  -9.0404  -9.0360  -9.0163  -9.0162  -9.0161  -9.0156  -9.0156
    -9.0153  -8.9447  -8.9409  -8.9397  -8.9347  -8.9283  -8.9162  -8.8744
    -8.8598  -8.8597  -8.8531  -8.8487  -8.8305  -8.8148  -8.7904  -8.7878
    -8.7854  -8.7844  -8.7793  -8.7771  -8.7272  -8.6372  -8.6196  -8.5619
    -8.5618  -8.5567  -8.5566  -8.5503  -8.5501  -8.5384  -8.5374  -8.4838
    -8.4829  -8.4774  -8.4737  -8.4712  -8.4707  -8.4666  -8.4657  -8.4619
    -8.4529  -8.4452  -8.4441  -8.4402  -8.4387  -8.4373  -8.4275  -8.4167
    -8.4161  -8.4145  -8.4138  -8.4137  -8.4092  -8.3305  -8.3187  -8.1906
    -8.0672  -8.0605  -8.0588  -8.0144  -8.0102  -7.9915  -7.9623  -7.9303
    -7.9159  -7.8942  -7.8853  -7.8417  -7.8355  -7.8324  -7.8244  -7.8184
    -7.8181  -7.8116  -7.8047  -7.8031  -7.7545  -7.7503  -7.7439  -7.7360
    -7.7351  -7.7319  -7.7315  -7.7313  -7.7300  -7.7290  -7.7208  -7.7201
    -7.7170  -7.7078  -7.7047  -7.7042  -7.7027  -7.7007  -7.6971  -7.6824
    -7.6800  -7.6794  -7.6783  -7.6774  -7.6759  -7.6625  -7.6595  -7.6588
    -7.6506  -7.6149  -7.6142  -7.6129  -7.6095  -7.6019  -7.5973  -7.5953
    -7.5940  -7.5926  -7.5888  -7.5714  -7.5520  -7.5310  -7.5202  -7.4951
    -7.4881  -7.4863  -7.4840  -7.4801  -7.4783  -7.4762  -7.4649  -7.4634
    -7.4470  -7.4461  -7.4318  -7.4296  -7.4258  -7.4142  -7.4119  -7.4053
    -7.3986  -7.3756  -7.2942  -7.2905  -7.2590  -7.2545  -7.2292  -7.2028
    -7.0920  -7.0581  -7.0370  -7.0356  -7.0272  -7.0014  -6.9915  -6.9897
    -6.9815  -6.9581  -6.9348  -6.9346  -6.9130  -6.8911  -6.8656  -6.8571
    -6.8279  -6.8181  -6.8085  -6.8068  -6.8048  -6.8022  -6.8015  -6.7960
    -6.7764  -6.7542  -6.7451  -6.7344  -6.7325  -6.7285  -6.7151  -6.7089
    -6.7088  -6.7067  -6.7035  -6.7020  -6.7009  -6.7003  -6.6984  -6.6925
    -6.6922  -6.6919  -6.6918  -6.6917  -6.6914  -6.6737  -6.6625  -6.6613
    -6.6356  -6.6244  -6.6229  -6.6044  -6.6021  -6.6008  -6.5463  -6.5371
    -6.5322  -6.5308  -6.5300  -6.5299  -6.5201  -6.5162  -6.5029  -6.5024
    -6.4968  -6.4967  -6.4854  -6.4809  -6.4725  -6.4682  -6.4620  -6.4615
    -6.4515  -6.4466  -6.4445  -6.4427  -6.4396  -6.4389  -6.4235  -6.3521
    -6.1780  -5.8900  -5.5683  -5.4021  -5.3488  -5.3143  -5.2380  -5.2183
    -5.1919  -4.9902  -4.0477  -4.0472  -4.0416  -4.0385  -4.0385  -4.0279
    -4.0190  -4.0180  -4.0173  -4.0158  -4.0157  -4.0123  -3.8972  -3.8940
    -3.8840  -3.8760  -3.8736  -3.8725  -3.8703  -3.8686  -3.8670  -3.8653
    -3.8645  -3.8325  -3.7061  -3.7005  -3.6974  -3.6968  -3.6880  -3.6857
    -3.6772  -3.6687  -3.6681  -3.6670  -3.6652  -3.6635  -3.6510  -3.6481
    -3.6438  -3.6418  -3.6386  -3.6378  -3.6371  -3.6370  -3.6309  -3.6238
    -3.6236  -3.6213  -3.6190  -3.6112  -3.6088  -3.6080  -3.6063  -3.6059
    -3.6018  -3.5965  -3.5961  -3.5959  -3.5917  -3.5813  -3.5511  -3.5399
    -3.5396  -3.5367  -3.5365  -3.5332  -3.5326  -3.5313  -3.5265  -3.5259
    -3.5129  -3.5043  -3.4812  -3.4778  -3.4768  -3.4758  -3.4633  -3.4601
    -3.4103  -3.4072  -3.3999  -3.3945  -3.3933  -3.3745  -3.2614  -3.2610
    -3.2562  -3.2542  -3.2536  -3.2523  -3.2386  -3.2353  -3.2351  -3.1884
    -3.1825  -3.1705  -3.1688  -3.1673  -3.1664  -3.1659  -3.1631  -3.1578
    -3.1575  -3.1563  -3.1562  -3.1555  -3.1488  -3.1483  -3.1462  -3.1346
    -3.1345  -3.1329  -3.1313  -3.1287  -3.1270  -3.1252  -3.1249  -3.1239
    -3.1237  -3.1213  -3.1204  -3.1187  -3.0726  -3.0684  -3.0678  -3.0454
    -3.0445  -3.0427  -3.0414  -3.0123  -3.0004  -3.0002  -3.0001  -2.9999
    -2.9996  -2.9994  -2.9987  -2.9963  -2.9963  -2.9841  -2.9824  -2.9774
    -2.9491  -2.9434  -2.9317  -2.9265  -2.9264  -2.9239  -2.9218  -2.9087
    -2.8687  -2.8645  -2.8327  -2.8313  -2.8199  -2.8188  -2.8117  -2.8091
    -2.8068  -2.8059  -2.7595  -2.7504  -2.7452  -2.7360  -2.7357  -2.7300
    -2.6110  -2.6071  -2.6059  -2.6005

          k = 0.0000-0.5773 0.0000 (386352 PWs)   bands (ev):

  -101.1511 -89.7091 -69.6084 -69.6022 -69.5192 -69.5092 -69.4891 -69.3964
   -69.3959 -66.8394 -66.8140 -66.8131 -66.8131 -66.8128 -66.8125 -66.8122
   -66.8122 -66.8067 -66.8024 -66.8024 -66.8020 -66.8020 -66.8016 -66.8016
   -66.7999 -66.7936 -66.7884 -66.7873 -66.7873 -66.7873 -66.7873 -66.7871
   -66.7870 -66.7867 -66.7867 -66.7866 -66.7865 -66.7865 -66.7865 -66.7865
   -66.7840 -66.7829 -66.7829 -66.7826 -66.7823 -66.7820 -66.7820 -66.7812
   -66.7776 -66.7766 -66.7766 -66.7766 -66.7766 -66.7766 -66.7761 -66.7761
   -66.7759 -66.7758 -66.7757 -66.7757 -66.7757 -66.7746 -66.7722 -66.7722
   -66.7717 -66.7717 -66.7713 -66.7713 -66.7704 -66.7701 -66.7635 -66.7522
   -66.7497 -55.9659 -55.4504 -55.3617 -55.3541 -55.2470 -55.0912 -41.1162
   -41.1151 -41.1151 -41.1151 -41.1151 -41.1149 -41.1149 -41.1149 -41.1149
   -41.1149 -41.1147 -41.1146 -41.1144 -41.1140 -41.1062 -41.1014 -41.0891
   -41.0883 -41.0883 -41.0881 -41.0881 -41.0880 -41.0878 -41.0813 -41.0762
   -41.0762 -41.0760 -41.0760 -41.0758 -41.0758 -41.0711 -41.0631 -41.0256
   -41.0256 -41.0255 -41.0255 -41.0253 -41.0253 -41.0253 -41.0253 -41.0252
   -41.0251 -41.0251 -41.0251 -41.0220 -41.0214 -41.0180 -41.0177 -41.0130
   -40.9697 -40.9668 -40.9668 -40.9666 -40.9666 -40.9665 -40.9663 -40.9612
   -40.9573 -40.9573 -40.9569 -40.9569 -40.9569 -40.9568 -40.9556 -40.9471
   -40.9460 -40.9459 -40.9459 -40.9457 -40.9457 -40.9455 -40.9455 -40.9373
   -40.9228 -40.9197 -40.9169 -40.9163 -40.9163 -40.9163 -40.9163 -40.9160
   -40.9160 -40.9160 -40.9160 -40.9160 -40.9160 -40.9157 -40.9157 -40.9119
   -40.9076 -40.9076 -40.9073 -40.9073 -40.9073 -40.9070 -40.9040 -40.9025
   -40.8991 -40.8958 -40.8958 -40.8954 -40.8954 -40.8954 -40.8953 -40.8953
   -40.8953 -40.8953 -40.8952 -40.8952 -40.8952 -40.8950 -40.8950 -40.8950
   -40.8950 -40.8948 -40.8947 -40.8946 -40.8942 -40.8918 -40.8866 -40.8866
   -40.8863 -40.8863 -40.8862 -40.8862 -40.8854 -40.8810 -40.8801 -40.8656
   -40.8649 -40.8648 -40.8648 -40.8648 -40.8647 -40.8645 -40.8644 -40.8644
   -40.8644 -40.8644 -40.8642 -40.8642 -40.8642 -40.8582 -40.8491 -40.8301
   -40.8301 -40.8301 -40.8301 -40.8297 -40.8297 -40.8296 -40.8296 -40.8296
   -40.8296 -40.8296 -40.8296 -40.8285 -40.8267 -40.8219 -40.8192 -40.8180
   -40.8180 -40.8176 -40.8175 -40.8175 -40.8174 -40.8145 -40.8028 -40.7986
   -40.7986 -40.7984 -40.7983 -40.7981 -40.7981 -40.7980 -40.7853 -40.7816
   -40.7816 -40.7812 -40.7812 -40.7811 -40.7811 -40.7762 -40.7667 -40.7510
   -40.7510 -40.7507 -40.7504 -40.7504 -40.7504 -40.7476 -40.7377 -20.0893
   -20.0783 -20.0342 -20.0110 -19.9405 -19.9190 -19.8445 -19.8364 -19.6447
   -19.6442 -19.5891 -19.5881 -19.5033 -19.5026 -19.4158 -19.4156 -19.0177
   -18.9997 -18.9629 -18.9476 -18.9291 -18.9233 -18.9120 -18.9096 -18.9026
   -18.8694 -18.8673 -18.8487 -18.8376 -18.8207 -18.8076 -18.7953 -18.7688
   -18.7647 -18.7524 -18.7418 -18.7374 -18.7292 -18.7192 -18.6996 -18.6773
   -18.6717 -18.6592 -18.6556 -18.6485 -18.6266 -18.6028 -18.5980 -18.5881
   -18.5622 -18.5496 -18.5353 -18.5219 -18.5030 -18.4696 -18.4460 -18.4414
   -18.4304 -18.4185 -18.4131 -18.3774 -18.3762 -18.3426 -18.3274 -18.3130
   -18.3037 -18.2995 -18.2964 -18.2960 -18.2954 -18.2898 -18.2786 -18.2677
   -18.2654 -18.2629 -18.2615 -18.2583 -18.2452 -18.2400 -18.2368 -18.2303
   -18.2286 -18.2246 -18.2216 -18.2026 -18.1982 -18.1947 -18.1908 -18.1888
   -18.1858 -18.1810 -18.1776 -18.1766 -18.1667 -18.1372 -18.1307 -18.1267
   -18.1187 -18.1118 -18.1079 -18.0857 -18.0748 -18.0686 -18.0641 -18.0423
   -18.0371 -18.0338 -18.0300 -18.0152 -18.0141 -18.0135 -18.0125 -18.0117
   -18.0102 -18.0051 -18.0012 -17.9907 -17.9848 -17.9725 -17.9665 -17.9535
   -17.9506 -17.9357 -17.9323 -17.9215 -17.9194 -17.9139 -17.9136 -11.9366
   -11.9104 -11.8614 -11.7446 -11.7295 -11.7091 -11.7074 -11.6940 -11.6823
   -11.6756 -11.6740 -11.6673 -11.6414 -11.6305 -11.6220 -11.5871 -11.5770
   -11.5723 -11.5357 -11.5303 -11.5196 -11.5115 -11.5100 -11.4871 -11.4746
   -11.4656 -11.4585 -11.4544 -11.4506 -11.4484 -11.4398 -11.4323 -11.4070
   -11.3944 -11.3905 -11.3810 -11.3736 -11.3620 -11.3614 -11.3608 -11.3578
   -11.3389 -11.3381 -11.3327 -11.3024 -11.3006 -11.2628 -11.2544 -11.2466
   -11.2456 -11.1755 -11.1483 -11.1450 -11.1173 -11.1061 -11.1025 -11.0997
   -11.0772 -11.0751 -11.0508 -11.0393 -11.0343 -11.0229 -11.0152 -11.0145
   -11.0125 -11.0059 -11.0050 -11.0040 -11.0032 -10.9984 -10.9898 -10.9886
   -10.9861 -10.9844 -10.9839 -10.9826 -10.9824 -10.9752 -10.9745 -10.9719
   -10.9543 -10.9375 -10.9373 -10.9368 -10.9339 -10.7638 -10.7340 -10.7283
   -10.7222 -10.7107 -10.6841 -10.6704 -10.6367 -10.5744 -10.5477 -10.4406
   -10.4277 -10.3461 -10.3389 -10.3294 -10.3259 -10.2971 -10.2944 -10.2771
   -10.2741 -10.2492 -10.2453 -10.2441 -10.2268 -10.2188 -10.2137 -10.2073
   -10.2037 -10.1920 -10.1783 -10.1311 -10.1226 -10.1140 -10.1076 -10.1012
   -10.0943 -10.0932 -10.0883 -10.0807 -10.0522 -10.0405 -10.0349 -10.0133
    -9.9872  -9.9788  -9.9746  -9.9579  -9.9546  -9.9466  -9.9293  -9.9111
    -9.9054  -9.8852  -9.8743  -9.8690  -9.8515  -9.8392  -9.8323  -9.8078
    -9.8044  -9.7954  -9.7609  -9.7577  -9.7338  -9.7325  -9.7294  -9.7248
    -9.7240  -9.7061  -9.7038  -9.6820  -9.6799  -9.6643  -9.6638  -9.6610
    -9.6531  -9.6486  -9.6472  -9.6209  -9.6197  -9.6172  -9.6111  -9.5580
    -9.5397  -9.5043  -9.4674  -9.4541  -9.4356  -9.4164  -9.4038  -9.3927
    -9.3845  -9.3791  -9.3629  -9.3620  -9.3488  -9.3340  -9.3206  -9.3085
    -9.2850  -9.2762  -9.2738  -9.2588  -9.2391  -9.2374  -9.2280  -9.2192
    -9.2125  -9.2119  -9.2059  -9.1723  -9.1654  -9.1601  -9.1450  -9.1394
    -9.1310  -9.1285  -9.1152  -9.1038  -9.0854  -9.0814  -9.0798  -9.0779
    -9.0743  -9.0683  -9.0655  -9.0638  -9.0615  -9.0595  -9.0528  -9.0489
    -9.0435  -9.0415  -9.0342  -9.0334  -9.0250  -9.0243  -9.0135  -9.0003
    -8.9930  -8.9865  -8.9805  -8.9779  -8.9751  -8.9741  -8.9719  -8.9573
    -8.9471  -8.9281  -8.9239  -8.9190  -8.9161  -8.9021  -8.8838  -8.8825
    -8.8374  -8.8358  -8.8172  -8.7645  -8.7394  -8.6988  -8.6940  -8.6647
    -8.6416  -8.6236  -8.6126  -8.5555  -8.5425  -8.4906  -8.4454  -8.4227
    -8.3285  -8.3219  -8.3214  -8.3131  -8.3123  -8.3016  -8.3015  -8.2897
    -8.2682  -8.2544  -8.2439  -8.2256  -8.1637  -8.1615  -8.1098  -8.0890
    -8.0378  -8.0346  -8.0339  -8.0313  -8.0109  -8.0100  -8.0045  -8.0012
    -7.9976  -7.9945  -7.9906  -7.9859  -7.9852  -7.9825  -7.9810  -7.9798
    -7.9770  -7.9750  -7.9690  -7.9652  -7.9635  -7.9623  -7.9615  -7.9590
    -7.9568  -7.9525  -7.9522  -7.9485  -7.9406  -7.9329  -7.9278  -7.9236
    -7.9199  -7.9136  -7.9028  -7.8977  -7.8961  -7.8916  -7.8887  -7.8872
    -7.8852  -7.8790  -7.8610  -7.8599  -7.8583  -7.8577  -7.8472  -7.8329
    -7.8218  -7.8110  -7.8030  -7.8014  -7.7931  -7.7897  -7.7892  -7.7859
    -7.7808  -7.7754  -7.7699  -7.7592  -7.7571  -7.7507  -7.7430  -7.7392
    -7.7312  -7.7304  -7.7033  -7.6585  -7.6508  -7.6469  -7.6429  -7.6293
    -7.6128  -7.5798  -7.4970  -7.4501  -7.3776  -7.3682  -7.3624  -7.3602
    -7.3518  -7.3327  -7.3175  -7.3078  -7.2966  -7.2917  -7.2873  -7.2719
    -7.2487  -7.2288  -7.2169  -7.2112  -7.2084  -7.1970  -7.1804  -7.1768
    -7.1640  -7.1415  -7.1249  -7.1075  -7.0959  -7.0894  -7.0735  -7.0697
    -7.0552  -7.0504  -7.0423  -7.0239  -7.0194  -7.0131  -6.9786  -6.9565
    -6.9445  -6.9059  -6.8827  -6.8683  -6.8385  -6.8349  -6.8133  -6.8091
    -6.8027  -6.8011  -6.8004  -6.7980  -6.7877  -6.7862  -6.7834  -6.7809
    -6.7781  -6.7748  -6.7733  -6.7728  -6.7724  -6.7704  -6.7598  -6.7093
    -6.6720  -6.6610  -6.6262  -6.5992  -6.5661  -6.5459  -6.5217  -6.5204
    -6.5187  -6.5072  -6.4854  -6.4799  -6.4728  -6.4717  -6.4704  -6.4693
    -6.4668  -6.4652  -6.4529  -6.4431  -6.4288  -6.4227  -6.4190  -6.4018
    -6.3947  -6.3928  -6.3901  -6.3887  -6.3509  -6.2200  -6.1905  -6.1818
    -6.1426  -6.1282  -6.0855  -6.0728  -6.0444  -6.0343  -6.0337  -6.0252
    -5.8716  -5.8611  -5.7857  -5.7823  -5.3854  -5.3138  -5.2386  -5.2184
    -5.1887  -4.9900  -4.2824  -4.2819  -4.2771  -4.2671  -4.1301  -4.1240
    -4.1058  -4.1045  -4.0954  -4.0690  -4.0366  -4.0342  -4.0228  -4.0174
    -4.0054  -4.0011  -3.9917  -3.9906  -3.9827  -3.9663  -3.8739  -3.8716
    -3.8678  -3.8359  -3.8032  -3.7979  -3.7924  -3.7912  -3.7895  -3.7778
    -3.7478  -3.7441  -3.7253  -3.7203  -3.7141  -3.7077  -3.7072  -3.7041
    -3.6774  -3.6744  -3.6692  -3.6661  -3.6646  -3.6612  -3.6606  -3.6464
    -3.6409  -3.6385  -3.6254  -3.6192  -3.6117  -3.6071  -3.6041  -3.5961
    -3.5495  -3.5434  -3.5403  -3.5379  -3.5368  -3.5341  -3.5318  -3.5309
    -3.5112  -3.4966  -3.4832  -3.4808  -3.4797  -3.4756  -3.4735  -3.4715
    -3.4701  -3.4673  -3.4434  -3.4357  -3.4345  -3.4320  -3.4280  -3.4213
    -3.4139  -3.4056  -3.4024  -3.4006  -3.3941  -3.3829  -3.3791  -3.3712
    -3.3662  -3.3623  -3.3575  -3.3567  -3.3546  -3.3545  -3.3503  -3.3351
    -3.2943  -3.2888  -3.2599  -3.2595  -3.2557  -3.2535  -3.2524  -3.2396
    -3.2171  -3.2152  -3.2150  -3.2143  -3.2131  -3.2129  -3.2038  -3.2028
    -3.2010  -3.1955  -3.1934  -3.1863  -3.1830  -3.1802  -3.1687  -3.1653
    -3.1628  -3.1608  -3.1584  -3.1507  -3.1472  -3.1438  -3.1390  -3.1377
    -3.1333  -3.1319  -3.1275  -3.1234  -3.1197  -3.1053  -3.0843  -3.0822
    -3.0766  -3.0749  -3.0667  -3.0603  -3.0551  -3.0463  -2.9846  -2.9819
    -2.9788  -2.9769  -2.9158  -2.9067  -2.9008  -2.8952  -2.8069  -2.8016
    -2.7786  -2.7630  -2.7546  -2.7520  -2.7341  -2.7306  -2.7202  -2.7188
    -2.7169  -2.7143  -2.7139  -2.7091  -2.5955  -2.5896  -2.5886  -2.5853
    -2.5802  -2.5762  -2.5594  -2.5526

          k =-0.5000-0.2887 0.0000 (386352 PWs)   bands (ev):

  -101.1511 -89.7091 -69.6084 -69.6022 -69.5192 -69.5092 -69.4891 -69.3964
   -69.3959 -66.8394 -66.8140 -66.8131 -66.8131 -66.8128 -66.8125 -66.8122
   -66.8122 -66.8067 -66.8024 -66.8024 -66.8020 -66.8020 -66.8016 -66.8016
   -66.7999 -66.7936 -66.7884 -66.7873 -66.7873 -66.7873 -66.7873 -66.7871
   -66.7870 -66.7867 -66.7867 -66.7866 -66.7865 -66.7865 -66.7865 -66.7865
   -66.7840 -66.7829 -66.7829 -66.7826 -66.7823 -66.7820 -66.7820 -66.7812
   -66.7776 -66.7767 -66.7766 -66.7766 -66.7766 -66.7766 -66.7761 -66.7761
   -66.7759 -66.7758 -66.7758 -66.7757 -66.7757 -66.7746 -66.7722 -66.7722
   -66.7717 -66.7717 -66.7713 -66.7713 -66.7704 -66.7702 -66.7635 -66.7522
   -66.7497 -55.9659 -55.4504 -55.3617 -55.3541 -55.2470 -55.0912 -41.1162
   -41.1151 -41.1151 -41.1151 -41.1151 -41.1149 -41.1149 -41.1149 -41.1149
   -41.1149 -41.1147 -41.1146 -41.1144 -41.1140 -41.1062 -41.1014 -41.0891
   -41.0883 -41.0883 -41.0881 -41.0881 -41.0880 -41.0878 -41.0813 -41.0762
   -41.0762 -41.0760 -41.0760 -41.0758 -41.0758 -41.0711 -41.0631 -41.0256
   -41.0256 -41.0255 -41.0255 -41.0253 -41.0253 -41.0253 -41.0253 -41.0252
   -41.0251 -41.0251 -41.0251 -41.0220 -41.0214 -41.0180 -41.0177 -41.0130
   -40.9697 -40.9668 -40.9668 -40.9666 -40.9666 -40.9665 -40.9663 -40.9612
   -40.9573 -40.9573 -40.9569 -40.9569 -40.9569 -40.9568 -40.9556 -40.9471
   -40.9460 -40.9459 -40.9459 -40.9457 -40.9457 -40.9455 -40.9455 -40.9373
   -40.9228 -40.9197 -40.9169 -40.9163 -40.9163 -40.9163 -40.9163 -40.9160
   -40.9160 -40.9160 -40.9160 -40.9160 -40.9160 -40.9157 -40.9157 -40.9119
   -40.9076 -40.9075 -40.9073 -40.9073 -40.9073 -40.9070 -40.9040 -40.9025
   -40.8991 -40.8958 -40.8958 -40.8954 -40.8954 -40.8954 -40.8953 -40.8953
   -40.8953 -40.8952 -40.8952 -40.8952 -40.8952 -40.8950 -40.8950 -40.8950
   -40.8950 -40.8948 -40.8947 -40.8946 -40.8942 -40.8918 -40.8866 -40.8866
   -40.8863 -40.8863 -40.8862 -40.8862 -40.8854 -40.8810 -40.8801 -40.8656
   -40.8649 -40.8649 -40.8648 -40.8648 -40.8647 -40.8645 -40.8644 -40.8644
   -40.8644 -40.8644 -40.8642 -40.8642 -40.8642 -40.8582 -40.8491 -40.8301
   -40.8301 -40.8301 -40.8301 -40.8297 -40.8297 -40.8296 -40.8296 -40.8296
   -40.8296 -40.8296 -40.8296 -40.8285 -40.8267 -40.8219 -40.8192 -40.8180
   -40.8179 -40.8176 -40.8175 -40.8175 -40.8174 -40.8145 -40.8028 -40.7987
   -40.7986 -40.7984 -40.7983 -40.7982 -40.7981 -40.7980 -40.7853 -40.7816
   -40.7816 -40.7812 -40.7812 -40.7811 -40.7811 -40.7762 -40.7667 -40.7510
   -40.7510 -40.7507 -40.7504 -40.7504 -40.7504 -40.7476 -40.7377 -20.0893
   -20.0783 -20.0342 -20.0110 -19.9405 -19.9190 -19.8445 -19.8364 -19.6447
   -19.6442 -19.5891 -19.5881 -19.5033 -19.5026 -19.4158 -19.4156 -19.0177
   -18.9997 -18.9629 -18.9476 -18.9291 -18.9233 -18.9120 -18.9096 -18.9026
   -18.8694 -18.8673 -18.8487 -18.8376 -18.8207 -18.8076 -18.7953 -18.7688
   -18.7647 -18.7524 -18.7418 -18.7374 -18.7292 -18.7192 -18.6996 -18.6773
   -18.6717 -18.6592 -18.6556 -18.6485 -18.6266 -18.6028 -18.5980 -18.5881
   -18.5622 -18.5496 -18.5353 -18.5218 -18.5030 -18.4696 -18.4460 -18.4414
   -18.4304 -18.4185 -18.4131 -18.3774 -18.3762 -18.3426 -18.3274 -18.3130
   -18.3037 -18.2995 -18.2964 -18.2960 -18.2954 -18.2898 -18.2786 -18.2677
   -18.2654 -18.2629 -18.2615 -18.2583 -18.2452 -18.2400 -18.2368 -18.2303
   -18.2286 -18.2246 -18.2216 -18.2026 -18.1982 -18.1947 -18.1908 -18.1887
   -18.1858 -18.1810 -18.1776 -18.1766 -18.1667 -18.1371 -18.1307 -18.1267
   -18.1187 -18.1118 -18.1079 -18.0856 -18.0748 -18.0686 -18.0641 -18.0423
   -18.0371 -18.0338 -18.0300 -18.0152 -18.0141 -18.0135 -18.0126 -18.0117
   -18.0101 -18.0051 -18.0012 -17.9907 -17.9848 -17.9725 -17.9665 -17.9535
   -17.9506 -17.9357 -17.9323 -17.9215 -17.9194 -17.9139 -17.9136 -11.9366
   -11.9104 -11.8614 -11.7446 -11.7295 -11.7092 -11.7074 -11.6940 -11.6823
   -11.6756 -11.6740 -11.6673 -11.6414 -11.6305 -11.6220 -11.5871 -11.5770
   -11.5723 -11.5357 -11.5303 -11.5196 -11.5115 -11.5100 -11.4871 -11.4746
   -11.4656 -11.4584 -11.4544 -11.4506 -11.4484 -11.4398 -11.4323 -11.4070
   -11.3944 -11.3905 -11.3810 -11.3736 -11.3620 -11.3614 -11.3608 -11.3578
   -11.3389 -11.3381 -11.3327 -11.3024 -11.3006 -11.2628 -11.2544 -11.2466
   -11.2455 -11.1755 -11.1483 -11.1450 -11.1173 -11.1061 -11.1025 -11.0997
   -11.0772 -11.0751 -11.0508 -11.0393 -11.0343 -11.0229 -11.0152 -11.0145
   -11.0125 -11.0059 -11.0050 -11.0040 -11.0032 -10.9984 -10.9898 -10.9886
   -10.9861 -10.9844 -10.9839 -10.9826 -10.9824 -10.9752 -10.9745 -10.9719
   -10.9543 -10.9375 -10.9373 -10.9368 -10.9339 -10.7638 -10.7340 -10.7283
   -10.7222 -10.7107 -10.6841 -10.6704 -10.6367 -10.5744 -10.5477 -10.4406
   -10.4277 -10.3461 -10.3389 -10.3294 -10.3259 -10.2971 -10.2944 -10.2771
   -10.2741 -10.2492 -10.2453 -10.2441 -10.2268 -10.2188 -10.2137 -10.2073
   -10.2037 -10.1920 -10.1783 -10.1311 -10.1226 -10.1140 -10.1076 -10.1012
   -10.0943 -10.0932 -10.0883 -10.0807 -10.0522 -10.0405 -10.0349 -10.0133
    -9.9872  -9.9788  -9.9746  -9.9579  -9.9546  -9.9466  -9.9293  -9.9111
    -9.9054  -9.8852  -9.8743  -9.8690  -9.8515  -9.8392  -9.8323  -9.8078
    -9.8044  -9.7954  -9.7609  -9.7577  -9.7338  -9.7325  -9.7294  -9.7248
    -9.7240  -9.7060  -9.7038  -9.6820  -9.6799  -9.6643  -9.6638  -9.6610
    -9.6531  -9.6486  -9.6472  -9.6208  -9.6197  -9.6172  -9.6111  -9.5580
    -9.5397  -9.5043  -9.4674  -9.4541  -9.4356  -9.4164  -9.4038  -9.3927
    -9.3845  -9.3791  -9.3629  -9.3621  -9.3488  -9.3340  -9.3205  -9.3085
    -9.2850  -9.2762  -9.2738  -9.2588  -9.2391  -9.2373  -9.2280  -9.2192
    -9.2125  -9.2119  -9.2059  -9.1723  -9.1654  -9.1601  -9.1450  -9.1394
    -9.1310  -9.1285  -9.1152  -9.1038  -9.0854  -9.0814  -9.0798  -9.0779
    -9.0743  -9.0683  -9.0655  -9.0638  -9.0615  -9.0595  -9.0528  -9.0489
    -9.0435  -9.0415  -9.0342  -9.0334  -9.0250  -9.0243  -9.0135  -9.0003
    -8.9931  -8.9865  -8.9805  -8.9780  -8.9750  -8.9741  -8.9719  -8.9573
    -8.9471  -8.9280  -8.9239  -8.9190  -8.9161  -8.9021  -8.8838  -8.8825
    -8.8374  -8.8358  -8.8172  -8.7645  -8.7394  -8.6988  -8.6940  -8.6647
    -8.6416  -8.6236  -8.6126  -8.5555  -8.5426  -8.4906  -8.4454  -8.4227
    -8.3285  -8.3219  -8.3214  -8.3131  -8.3123  -8.3016  -8.3015  -8.2897
    -8.2682  -8.2544  -8.2439  -8.2256  -8.1637  -8.1615  -8.1098  -8.0890
    -8.0378  -8.0346  -8.0339  -8.0313  -8.0109  -8.0100  -8.0046  -8.0012
    -7.9976  -7.9945  -7.9906  -7.9859  -7.9852  -7.9825  -7.9810  -7.9798
    -7.9770  -7.9750  -7.9690  -7.9652  -7.9635  -7.9623  -7.9615  -7.9590
    -7.9568  -7.9525  -7.9522  -7.9486  -7.9406  -7.9329  -7.9278  -7.9236
    -7.9199  -7.9136  -7.9028  -7.8977  -7.8961  -7.8916  -7.8887  -7.8872
    -7.8852  -7.8789  -7.8610  -7.8599  -7.8583  -7.8578  -7.8472  -7.8329
    -7.8218  -7.8110  -7.8030  -7.8014  -7.7931  -7.7897  -7.7892  -7.7859
    -7.7808  -7.7754  -7.7699  -7.7592  -7.7571  -7.7507  -7.7430  -7.7392
    -7.7312  -7.7304  -7.7034  -7.6585  -7.6508  -7.6469  -7.6429  -7.6293
    -7.6129  -7.5798  -7.4970  -7.4501  -7.3776  -7.3682  -7.3624  -7.3602
    -7.3518  -7.3327  -7.3175  -7.3078  -7.2966  -7.2917  -7.2873  -7.2719
    -7.2487  -7.2288  -7.2169  -7.2112  -7.2084  -7.1970  -7.1804  -7.1768
    -7.1640  -7.1415  -7.1249  -7.1075  -7.0959  -7.0894  -7.0735  -7.0697
    -7.0552  -7.0504  -7.0423  -7.0239  -7.0194  -7.0131  -6.9786  -6.9565
    -6.9445  -6.9059  -6.8827  -6.8683  -6.8385  -6.8349  -6.8133  -6.8091
    -6.8027  -6.8011  -6.8004  -6.7980  -6.7878  -6.7862  -6.7834  -6.7809
    -6.7781  -6.7748  -6.7733  -6.7728  -6.7724  -6.7704  -6.7598  -6.7093
    -6.6720  -6.6610  -6.6262  -6.5992  -6.5661  -6.5459  -6.5217  -6.5205
    -6.5187  -6.5072  -6.4854  -6.4799  -6.4728  -6.4718  -6.4704  -6.4693
    -6.4668  -6.4652  -6.4529  -6.4431  -6.4288  -6.4227  -6.4190  -6.4018
    -6.3947  -6.3928  -6.3901  -6.3887  -6.3509  -6.2200  -6.1905  -6.1818
    -6.1426  -6.1282  -6.0855  -6.0728  -6.0444  -6.0343  -6.0337  -6.0252
    -5.8716  -5.8611  -5.7857  -5.7823  -5.3854  -5.3138  -5.2386  -5.2184
    -5.1887  -4.9900  -4.2824  -4.2819  -4.2771  -4.2671  -4.1301  -4.1240
    -4.1058  -4.1045  -4.0953  -4.0690  -4.0366  -4.0342  -4.0228  -4.0174
    -4.0054  -4.0010  -3.9917  -3.9906  -3.9827  -3.9663  -3.8739  -3.8715
    -3.8678  -3.8358  -3.8032  -3.7979  -3.7924  -3.7913  -3.7895  -3.7778
    -3.7478  -3.7441  -3.7253  -3.7203  -3.7141  -3.7077  -3.7073  -3.7041
    -3.6774  -3.6743  -3.6692  -3.6661  -3.6646  -3.6612  -3.6606  -3.6464
    -3.6409  -3.6385  -3.6255  -3.6193  -3.6118  -3.6071  -3.6041  -3.5962
    -3.5493  -3.5435  -3.5403  -3.5380  -3.5368  -3.5340  -3.5318  -3.5309
    -3.5111  -3.4965  -3.4832  -3.4808  -3.4797  -3.4756  -3.4735  -3.4715
    -3.4700  -3.4673  -3.4435  -3.4356  -3.4345  -3.4320  -3.4280  -3.4213
    -3.4139  -3.4056  -3.4023  -3.4005  -3.3940  -3.3828  -3.3791  -3.3711
    -3.3662  -3.3623  -3.3575  -3.3567  -3.3546  -3.3545  -3.3503  -3.3351
    -3.2942  -3.2887  -3.2598  -3.2594  -3.2556  -3.2535  -3.2524  -3.2396
    -3.2171  -3.2152  -3.2150  -3.2143  -3.2132  -3.2129  -3.2037  -3.2027
    -3.2009  -3.1950  -3.1933  -3.1863  -3.1829  -3.1802  -3.1688  -3.1654
    -3.1628  -3.1608  -3.1586  -3.1507  -3.1472  -3.1438  -3.1389  -3.1376
    -3.1332  -3.1316  -3.1274  -3.1232  -3.1196  -3.1054  -3.0854  -3.0829
    -3.0768  -3.0754  -3.0667  -3.0604  -3.0541  -3.0461  -2.9849  -2.9819
    -2.9790  -2.9771  -2.9156  -2.9068  -2.9008  -2.8952  -2.8066  -2.8016
    -2.7773  -2.7630  -2.7512  -2.7488  -2.7336  -2.7295  -2.7204  -2.7183
    -2.7168  -2.7144  -2.7139  -2.7093  -2.5969  -2.5897  -2.5888  -2.5853
    -2.5799  -2.5777  -2.5592  -2.5521

          k =-0.5000-0.8660 0.0000 (386352 PWs)   bands (ev):

  -101.1511 -89.7091 -69.6084 -69.6022 -69.5192 -69.5092 -69.4891 -69.3964
   -69.3959 -66.8394 -66.8141 -66.8131 -66.8131 -66.8127 -66.8126 -66.8122
   -66.8122 -66.8064 -66.8024 -66.8024 -66.8020 -66.8020 -66.8016 -66.8016
   -66.8003 -66.7933 -66.7882 -66.7879 -66.7873 -66.7873 -66.7873 -66.7873
   -66.7870 -66.7869 -66.7868 -66.7868 -66.7865 -66.7865 -66.7865 -66.7865
   -66.7829 -66.7829 -66.7825 -66.7824 -66.7820 -66.7820 -66.7818 -66.7813
   -66.7782 -66.7767 -66.7767 -66.7766 -66.7766 -66.7763 -66.7762 -66.7761
   -66.7760 -66.7758 -66.7758 -66.7757 -66.7757 -66.7757 -66.7722 -66.7722
   -66.7717 -66.7717 -66.7713 -66.7713 -66.7704 -66.7697 -66.7633 -66.7522
   -66.7497 -55.9659 -55.4504 -55.3617 -55.3541 -55.2470 -55.0912 -41.1184
   -41.1151 -41.1151 -41.1151 -41.1151 -41.1149 -41.1149 -41.1149 -41.1149
   -41.1149 -41.1148 -41.1145 -41.1145 -41.1119 -41.1045 -41.1030 -41.0883
   -41.0883 -41.0881 -41.0881 -41.0879 -41.0878 -41.0873 -41.0830 -41.0762
   -41.0762 -41.0760 -41.0760 -41.0758 -41.0758 -41.0707 -41.0640 -41.0256
   -41.0255 -41.0255 -41.0255 -41.0253 -41.0253 -41.0253 -41.0253 -41.0251
   -41.0251 -41.0251 -41.0251 -41.0227 -41.0201 -41.0191 -41.0175 -41.0130
   -40.9703 -40.9668 -40.9668 -40.9666 -40.9666 -40.9665 -40.9663 -40.9593
   -40.9573 -40.9573 -40.9569 -40.9569 -40.9569 -40.9568 -40.9550 -40.9490
   -40.9475 -40.9459 -40.9459 -40.9457 -40.9457 -40.9455 -40.9455 -40.9355
   -40.9216 -40.9198 -40.9177 -40.9163 -40.9163 -40.9163 -40.9163 -40.9160
   -40.9160 -40.9160 -40.9160 -40.9160 -40.9159 -40.9158 -40.9158 -40.9120
   -40.9076 -40.9075 -40.9073 -40.9073 -40.9072 -40.9071 -40.9037 -40.9025
   -40.9015 -40.8958 -40.8958 -40.8954 -40.8954 -40.8954 -40.8953 -40.8953
   -40.8953 -40.8952 -40.8952 -40.8951 -40.8950 -40.8950 -40.8950 -40.8950
   -40.8948 -40.8947 -40.8947 -40.8939 -40.8934 -40.8916 -40.8866 -40.8866
   -40.8863 -40.8863 -40.8862 -40.8862 -40.8859 -40.8811 -40.8803 -40.8651
   -40.8649 -40.8649 -40.8648 -40.8648 -40.8645 -40.8645 -40.8644 -40.8644
   -40.8644 -40.8644 -40.8644 -40.8642 -40.8616 -40.8573 -40.8544 -40.8301
   -40.8301 -40.8301 -40.8301 -40.8297 -40.8297 -40.8297 -40.8296 -40.8296
   -40.8296 -40.8296 -40.8296 -40.8267 -40.8258 -40.8234 -40.8180 -40.8179
   -40.8176 -40.8176 -40.8175 -40.8175 -40.8174 -40.8157 -40.8008 -40.7987
   -40.7986 -40.7983 -40.7981 -40.7981 -40.7981 -40.7972 -40.7902 -40.7816
   -40.7816 -40.7812 -40.7812 -40.7811 -40.7811 -40.7732 -40.7689 -40.7510
   -40.7510 -40.7506 -40.7504 -40.7504 -40.7504 -40.7479 -40.7366 -20.0893
   -20.0782 -20.0341 -20.0111 -19.9404 -19.9192 -19.8445 -19.8365 -19.6447
   -19.6442 -19.5891 -19.5880 -19.5034 -19.5025 -19.4158 -19.4155 -19.0165
   -19.0030 -18.9621 -18.9475 -18.9288 -18.9234 -18.9123 -18.9094 -18.9021
   -18.8693 -18.8678 -18.8488 -18.8372 -18.8203 -18.8078 -18.7947 -18.7695
   -18.7645 -18.7523 -18.7420 -18.7374 -18.7285 -18.7194 -18.6992 -18.6779
   -18.6714 -18.6588 -18.6563 -18.6488 -18.6261 -18.6026 -18.5985 -18.5882
   -18.5618 -18.5487 -18.5359 -18.5220 -18.5028 -18.4694 -18.4473 -18.4413
   -18.4310 -18.4183 -18.4125 -18.3774 -18.3767 -18.3421 -18.3267 -18.3134
   -18.3026 -18.2996 -18.2974 -18.2959 -18.2953 -18.2895 -18.2802 -18.2664
   -18.2655 -18.2644 -18.2607 -18.2574 -18.2451 -18.2397 -18.2367 -18.2331
   -18.2284 -18.2230 -18.2204 -18.2022 -18.1985 -18.1946 -18.1909 -18.1886
   -18.1866 -18.1790 -18.1785 -18.1767 -18.1662 -18.1364 -18.1312 -18.1266
   -18.1210 -18.1098 -18.1093 -18.0850 -18.0782 -18.0656 -18.0654 -18.0418
[...]

     Total force =     0.073444     Total SCF correction =     0.001852
     Energy error            =      1.5E-02 Ry
     Gradient error          =      5.0E-02 Ry/Bohr

     number of scf cycles    =  15
     number of bfgs steps    =  13

     energy             old  =  -33980.2332984282 Ry
     energy             new  =  -33980.2478593691 Ry

     CASE: energy            _new < energy            _old

     new trust radius        =       0.1161657821 bohr
     new conv_thr            =       0.0000004966 Ry


ATOMIC_POSITIONS (angstrom)
Mo               0.0000119917        1.8193638619       -9.1672481230    0   0   0
Mo               1.5756136568        0.9097075315       -3.0554901653    0   0   0
S                0.0000188998        1.8193822938       -4.6232556019    0   0   0
S                1.5756321638        0.9096773839       -7.6014065489    0   0   0
S                1.5756326175        0.9096785128      -10.7330757790    0   0   0
S                0.0000189190        1.8193860094       -1.4877129945    0   0   0
Mo               0.0004927765        1.8194892018        3.0583369190
Mo               1.5784701020        0.9159404667        9.1730979403
S                0.0084473301        1.8307642723        7.5993888799
S                1.5763436799        0.9101653372        4.6247221048
S                1.5754808785        0.9092466542        1.4884564689
S               -0.0059000369        1.8129336712       10.7406608838
Mo              -1.5756053507        4.5484193819       -9.1672481230    0   0   0
Mo               0.0000378379        3.6387394919       -3.0554952701    0   0   0
S               -1.5755913433        4.5484363582       -4.6232494962    0   0   0
S                0.0000148214        3.6387329039       -7.6014065489    0   0   0
S                0.0000152751        3.6387340328      -10.7330757790    0   0   0
S               -1.5755906502        4.5484413613       -1.4877305502    0   0   0
Mo              -1.5754147031        4.5482696047        3.0575732176
Mo              -0.0197012143        3.6379984999        9.1700498516
S               -1.5809413639        4.5329482405        7.5854541490
S                0.0014128038        3.6395649685        4.6236218404
S                0.0000217440        3.6382481830        1.4879722769
S               -1.5946675181        4.5554367305       10.7244909237
Mo              -3.1512226931        7.2774749019       -9.1672481230    0   0   0
Mo              -1.5755910988        6.3678216792       -3.0555115988    0   0   0
S               -3.1512162438        7.2774954350       -4.6232578178    0   0   0
S               -1.5756025210        6.3677884239       -7.6014065489    0   0   0
S               -1.5756020673        6.3677895528      -10.7330757790    0   0   0
S               -3.1512127704        7.2774877076       -1.4877200710    0   0   0
Mo              -3.1514650319        7.2775009987        3.0575565169
Mo              -1.6090806213        6.3642540431        9.1525141297
S               -3.1818598172        7.2702191002        7.5747663272
S               -1.5752427367        6.3678195842        4.6233785527
S               -1.5758458506        6.3678802512        1.4880139462
S               -3.1774025318        7.2717767215       10.7218905932
Mo              -4.7268400355       10.0065304219       -9.1672481230    0   0   0
Mo              -3.1512405618        9.0968403586       -3.0554816746    0   0   0
S               -4.7268341792       10.0065523623       -4.6232463762    0   0   0
S               -3.1512198634        9.0968439439       -7.6014065489    0   0   0
S               -3.1512194097        9.0968450728      -10.7330757790    0   0   0
S               -4.7268370797       10.0065537885       -1.4877176751    0   0   0
Mo              -4.7269983987       10.0066836704        3.0581776734
Mo              -3.1521606074        9.0974397933        9.1492681813
S               -4.7331620713       10.0102124046        7.6010456080
S               -3.1512244625        9.0968908443        4.6240585105
S               -3.1516719977        9.0971261590        1.4883211993
S               -4.7182907444       10.0016494054       10.7253963398
Mo               3.1512517547        1.8193638619       -9.1672481230    0   0   0
Mo               4.7269020221        0.9097289540       -3.0554823951    0   0   0
S                3.1512612351        1.8193882564       -4.6232320683    0   0   0
S                4.7268719268        0.9096773839       -7.6014065489    0   0   0
S                4.7268723805        0.9096785128      -10.7330757790    0   0   0
S                3.1512592485        1.8193890201       -1.4877261251    0   0   0
Mo               3.1510689438        1.8197918273        3.0578666399
Mo               4.7178063714        0.9289998062        9.1706542383
S                3.1493425280        1.8642277608        7.6250666718
S                4.7260418666        0.9103402797        4.6243697751
S                4.7270266221        0.9098207373        1.4884488770
S                3.1474092789        1.8015833015       10.7638968177
Mo               1.5756344123        4.5484193819       -9.1672481230    0   0   0
Mo               3.1512756394        3.6387769522       -3.0554814834    0   0   0
S                1.5756504879        4.5484423799       -4.6232390542    0   0   0
S                3.1512545844        3.6387329039       -7.6014065489    0   0   0
S                3.1512550381        3.6387340328      -10.7330757790    0   0   0
S                1.5756466253        4.5484431864       -1.4877251801    0   0   0
Mo               1.5758102212        4.5489077236        3.0567072976
Mo               3.1331744691        3.6491023775        9.2408440546
S                1.5823913109        4.5866283837        7.6759666823
S                3.1510612997        3.6398180987        4.6237496154
S                3.1511277454        3.6385884419        1.4874844827
S                1.4968603773        4.4619117108       10.7958705810
Mo               0.0000170699        7.2774749019       -9.1672481230    0   0   0
Mo               1.5756764447        6.3678236689       -3.0554877708    0   0   0
S                0.0000381981        7.2774979204       -4.6232454413    0   0   0
S                1.5756372420        6.3677884239       -7.6014065489    0   0   0
S                1.5756376957        6.3677895528      -10.7330757790    0   0   0
S                0.0000328088        7.2774946042       -1.4877307940    0   0   0
Mo               0.0004380691        7.2772681870        3.0568937690
Mo               1.5365140331        6.3904337879        9.2532068318
S                0.0011177279        7.2768889714        7.6275378767
S                1.5761406005        6.3675399109        4.6241443622
S                1.5754864794        6.3679004195        1.4872972760
S               -0.1583699390        7.3689481964       10.7891121127
Mo              -1.5756002725       10.0065304219       -9.1672481230    0   0   0
Mo               0.0000873425        9.0968676911       -3.0554912329    0   0   0
S               -1.5755883952       10.0065504530       -4.6232240150    0   0   0
S                0.0000198996        9.0968439439       -7.6014065489    0   0   0
S                0.0000203533        9.0968450728      -10.7330757790    0   0   0
S               -1.5755859047       10.0065492576       -1.4877362381    0   0   0
Mo              -1.5757060835       10.0067876277        3.0576021307
Mo              -0.0136055072        9.1276540565        9.1525350273
S               -1.5845674450       10.0367602963        7.5747572640
S                0.0001976925        9.0965821544        4.6234008482
S               -0.0001699007        9.0970569309        1.4880206537
S               -1.5837086468       10.0321349721       10.7218932993
Mo               6.3024915177        1.8193638619       -9.1672481230    0   0   0
Mo               7.8781001445        0.9096521684       -3.0554919963    0   0   0
S                6.3025008696        1.8193826232       -4.6232480596    0   0   0
S                7.8781116898        0.9096773839       -7.6014065489    0   0   0
S                7.8781121435        0.9096785128      -10.7330757790    0   0   0
S                6.3025042007        1.8193849068       -1.4877147524    0   0   0
Mo               6.3019866491        1.8198195785        3.0586510356
Mo               7.8719652728        0.9220531575        9.1618120742
S                6.2899209777        1.8639297887        7.6200999692
S                7.8776876777        0.9098811990        4.6239882395
S                7.8779462268        0.9103784219        1.4886405813
S                6.3004465044        1.8134156746       10.7498979926
Mo               4.7268741753        4.5484193819       -9.1672481230    0   0   0
Mo               6.3024679138        3.6387501714       -3.0554895197    0   0   0
S                4.7268748770        4.5484386753       -4.6232519432    0   0   0
S                6.3024943474        3.6387329039       -7.6014065489    0   0   0
S                6.3024948011        3.6387340328      -10.7330757790    0   0   0
S                4.7268770533        4.5484432419       -1.4877137856    0   0   0
Mo               4.7265169272        4.5486172894        3.0568479947
Mo               6.2827887829        3.6501761318        9.2400830168
S                4.7006787899        4.5635863367        7.6837803117
S                6.3006863550        3.6397954085        4.6241550034
S                6.3029363990        3.6384921758        1.4883854573
S                4.6314655816        4.6035599250       10.8955421539
Mo               3.1512568329        7.2774749019       -9.1672481230    0   0   0
Mo               4.7268384135        6.3678043337       -3.0554959052    0   0   0
S                3.1512606125        7.2774972547       -4.6232589675    0   0   0
S                4.7268770050        6.3677884239       -7.6014065489    0   0   0
S                4.7268774587        6.3677895528      -10.7330757790    0   0   0
S                3.1512629079        7.2774963749       -1.4877081835    0   0   0
Mo               3.1509312595        7.2771066032        3.0567055463
Mo               4.7089159696        6.3783157495        9.2408435774
S                3.1215746008        7.2525804532        7.6759886409
S                4.7258463949        6.3674096556        4.6237481150
S                4.7269921128        6.3679787703        1.4875037914
S                3.1868626942        7.3890137785       10.7958586122
Mo               1.5756394905       10.0065304219       -9.1672481230    0   0   0
Mo               3.1512330605        9.0968514907       -3.0554878870    0   0   0
S                1.5756499830       10.0065443759       -4.6232632674    0   0   0
S                3.1512596626        9.0968439439       -7.6014065489    0   0   0
S                3.1512601163        9.0968450728      -10.7330757790    0   0   0
S                1.5756503041       10.0065459699       -1.4877044377    0   0   0
Mo               1.5758705156       10.0065043045        3.0576390397
Mo               3.1420387017        9.1143425367        9.1700834769
S                1.5864132933       10.0189454499        7.5854777010
S                3.1512365677        9.0952738910        4.6236233463
S                3.1516889443        9.0971454843        1.4879761711
S                1.5600534708       10.0195940651       10.7245107632
Mo               9.4537312807        1.8193638619       -9.1672481230    0   0   0
Mo              11.0293863460        0.9096952246       -3.0554894007    0   0   0
S                9.4537395970        1.8193770750       -4.6232328036    0   0   0
S               11.0293514528        0.9096773839       -7.6014065489    0   0   0
S               11.0293519066        0.9096785128      -10.7330757790    0   0   0
S                9.4537393632        1.8193794783       -1.4877366147    0   0   0
Mo               9.4538633971        1.8193261722        3.0585387625
Mo              11.0284364379        0.9102492493        9.1607159166
S                9.4486305022        1.8223413977        7.5898050064
S               11.0300209306        0.9093316530        4.6243321066
S               11.0296854676        0.9095133556        1.4889508000
S                9.4501301182        1.8214985178       10.7250406174
Mo               7.8781139383        4.5484193819       -9.1672481230    0   0   0
Mo               9.4537539161        3.6387607911       -3.0554933032    0   0   0
S                7.8781175448        4.5484378232       -4.6232366318    0   0   0
S                9.4537341104        3.6387329039       -7.6014065489    0   0   0
S                9.4537345641        3.6387340328      -10.7330757790    0   0   0
S                7.8781194018        4.5484411585       -1.4877377057    0   0   0
Mo               7.8774897412        4.5486444115        3.0585754704
Mo               9.4399870925        3.6379422467        9.1618144984
S                7.8332647030        4.5371119482        7.6201036483
S                9.4533851574        3.6390476831        4.6239390686
S                9.4530937286        3.6385717682        1.4886473365
S                7.8823000464        4.5532373981       10.7498830579
Mo               6.3024965959        7.2774749019       -9.1672481230    0   0   0
Mo               7.8781361655        6.3678242352       -3.0555014130    0   0   0
S                6.3024973331        7.2774953556       -4.6232392528    0   0   0
S                7.8781167680        6.3677884239       -7.6014065489    0   0   0
S                7.8781172217        6.3677895528      -10.7330757790    0   0   0
S                6.3024989866        7.2774929744       -1.4877349119    0   0   0
Mo               6.3020832434        7.2774588433        3.0578530315
Mo               7.8568955266        6.3660632343        9.1706648303
S                6.2627176858        7.2567688758        7.6250896294
S                7.8771724457        6.3682032812        4.6243735601
S                7.8780925994        6.3676301276        1.4884576459
S                6.3160048539        7.2897535855       10.7639229003
Mo               4.7268792535       10.0065304219       -9.1672481230    0   0   0
Mo               6.3025111524        9.0968738021       -3.0554915260    0   0   0
S                4.7268840634       10.0065452125       -4.6232380477    0   0   0
S                6.3024994256        9.0968439439       -7.6014065489    0   0   0
S                6.3024998793        9.0968450728      -10.7330757790    0   0   0
S                4.7268847312       10.0065459141       -1.4877283294    0   0   0
Mo               4.7270313429       10.0061382635        3.0583405064
Mo               6.2985417573        9.0913168744        9.1731407832
S                4.7212298701        9.9935702968        7.5994317921
S                6.3024919186        9.0960768198        4.6247240229
S                6.3028489377        9.0972538093        1.4884837903
S                4.7295283530       10.0149380346       10.7406930884
Pd               1.4546151438        6.4377479530       12.0771449694
Pt               4.0845613508        4.9197741162       12.9258302430



     Writing config-only to output data dir ./outdir/pwscf.save/ :
     XML data file
     NEW-OLD atomic charge density approx. for the potential

     negative rho (up, down):  8.985E-04 0.000E+00

     total cpu time spent up to now is   251892.6 secs

     Self-consistent Calculation

     iteration #  1     ecut=    77.00 Ry     beta= 0.20
     Davidson diagonalization with overlap
     c_bands:  1 eigenvalues not converged
     c_bands:  1 eigenvalues not converged
     c_bands:  1 eigenvalues not converged
     c_bands:  1 eigenvalues not converged
     ethr =  1.00E-06,  avg # of iterations = 20.0

     negative rho (up, down):  8.954E-04 0.000E+00

     total cpu time spent up to now is   253582.4 secs

     total energy              =  -33980.26866069 Ry
     estimated scf accuracy    <       0.01311238 Ry

     iteration #  2     ecut=    77.00 Ry     beta= 0.20
     Davidson diagonalization with overlap
     ethr =  7.65E-07,  avg # of iterations = 15.2

     negative rho (up, down):  8.932E-04 0.000E+00

     total cpu time spent up to now is   254073.4 secs

     total energy              =  -33980.26607879 Ry
     estimated scf accuracy    <       0.00504696 Ry

     iteration #  3     ecut=    77.00 Ry     beta= 0.20
     Davidson diagonalization with overlap
     ethr =  2.94E-07,  avg # of iterations =  9.5

     negative rho (up, down):  8.910E-04 0.000E+00

     total cpu time spent up to now is   254516.7 secs

     total energy              =  -33980.26071019 Ry
     estimated scf accuracy    <       0.00095551 Ry

     iteration #  4     ecut=    77.00 Ry     beta= 0.20
     Davidson diagonalization with overlap
     ethr =  5.57E-08,  avg # of iterations = 15.5

     negative rho (up, down):  8.898E-04 0.000E+00

     total cpu time spent up to now is   255313.5 secs

     total energy              =  -33980.25932073 Ry
     estimated scf accuracy    <       0.00057678 Ry

     iteration #  5     ecut=    77.00 Ry     beta= 0.20
     Davidson diagonalization with overlap
     ethr =  3.37E-08,  avg # of iterations =  8.5

     negative rho (up, down):  8.887E-04 0.000E+00

     total cpu time spent up to now is   255758.3 secs

     total energy              =  -33980.25740162 Ry
     estimated scf accuracy    <       0.00037077 Ry

     iteration #  6     ecut=    77.00 Ry     beta= 0.20
     Davidson diagonalization with overlap
     ethr =  2.16E-08,  avg # of iterations = 11.8

     negative rho (up, down):  8.882E-04 0.000E+00

     total cpu time spent up to now is   256231.7 secs

     total energy              =  -33980.25640202 Ry
     estimated scf accuracy    <       0.00021630 Ry

     iteration #  7     ecut=    77.00 Ry     beta= 0.20
     Davidson diagonalization with overlap
     ethr =  1.26E-08,  avg # of iterations =  9.2

     negative rho (up, down):  8.882E-04 0.000E+00

     total cpu time spent up to now is   256710.2 secs

     total energy              =  -33980.25569327 Ry
     estimated scf accuracy    <       0.00012695 Ry

     iteration #  8     ecut=    77.00 Ry     beta= 0.20
     Davidson diagonalization with overlap
     ethr =  7.41E-09,  avg # of iterations = 10.5

     negative rho (up, down):  8.885E-04 0.000E+00

     total cpu time spent up to now is   257309.1 secs

     total energy              =  -33980.25551207 Ry
     estimated scf accuracy    <       0.00004736 Ry

     iteration #  9     ecut=    77.00 Ry     beta= 0.20
     Davidson diagonalization with overlap
     ethr =  2.76E-09,  avg # of iterations =  8.5

     negative rho (up, down):  8.891E-04 0.000E+00

     total cpu time spent up to now is   257805.6 secs

     total energy              =  -33980.25534008 Ry
     estimated scf accuracy    <       0.00002598 Ry

     iteration # 10     ecut=    77.00 Ry     beta= 0.20
     Davidson diagonalization with overlap
     ethr =  1.52E-09,  avg # of iterations = 11.2

     negative rho (up, down):  8.894E-04 0.000E+00

     total cpu time spent up to now is   258319.5 secs

     total energy              =  -33980.25531333 Ry
     estimated scf accuracy    <       0.00000723 Ry

     iteration # 11     ecut=    77.00 Ry     beta= 0.20
     Davidson diagonalization with overlap
     ethr =  4.22E-10,  avg # of iterations = 13.8

     negative rho (up, down):  8.894E-04 0.000E+00

     total cpu time spent up to now is   259054.7 secs

     total energy              =  -33980.25531916 Ry
     estimated scf accuracy    <       0.00000248 Ry

     iteration # 12     ecut=    77.00 Ry     beta= 0.20
     Davidson diagonalization with overlap
