
     Program PWSCF v.7.3 starts on 23Apr2024 at 18:52:53 

     This program is part of the open-source Quantum ESPRESSO suite
     for quantum simulation of materials; please cite
         "P. Giannozzi et al., J. Phys.:Condens. Matter 21 395502 (2009);
         "P. Giannozzi et al., J. Phys.:Condens. Matter 29 465901 (2017);
         "P. Giannozzi et al., J. Chem. Phys. 152 154105 (2020);
          URL http://www.quantum-espresso.org", 
     in publications or presentations arising from this work. More details at
     http://www.quantum-espresso.org/quote

     Parallel version (MPI & OpenMP), running on      36 processor cores
     Number of MPI processes:                36
     Threads/MPI process:                     1

     MPI processes distributed on     1 nodes
     548881 MiB available memory on the printing compute node when the environment starts
 
     Waiting for input...
     Reading input from standard input
Warning: card &CELL ignored
Warning: card / ignored

     Current dimensions of program PWSCF are:
     Max number of different atomic species (ntypx) = 10
     Max number of k-points (npk) =  40000
     Max angular momentum in pseudopotentials (lmaxx) =  4
     file Mo.pbe-spn-kjpaw_psl.1.0.0.UPF: wavefunction(s)  4S 4D renormalized
     file S.pbe-n-kjpaw_psl.1.0.0.UPF: wavefunction(s)  3S 3P renormalized
     file Pt.pbe-spfn-kjpaw_psl.1.0.0.UPF: wavefunction(s)  5P 4F renormalized
     file Pd.pbe-spn-kjpaw_psl.1.0.0.UPF: wavefunction(s)  4S 5S 4D renormalized
 
     R & G space division:  proc/nbgrp/npool/nimage =      36
     Subspace diagonalization in iterative solution of the eigenvalue problem:
     one sub-group per band group will be used
     scalapack distributed-memory algorithm (size of sub-group:  6*  6 procs)

 
     Parallelization info
     --------------------
     sticks:   dense  smooth     PW     G-vecs:    dense   smooth      PW
     Min         585     334     89               198743    85850   11735
     Max         586     335     90               198750    85861   11748
     Sum       21073   12049   3205              7154885  3090769  422587
 
     Using Slab Decomposition
 


     bravais-lattice index     =            0
     lattice parameter (alat)  =      23.8199  a.u.
     unit-cell volume          =   33861.0370 (a.u.)^3
     number of atoms/cell      =          195
     number of atomic types    =            4
     number of electrons       =      1746.00
     number of Kohn-Sham states=         1048
     kinetic-energy cutoff     =      77.0000  Ry
     charge density cutoff     =     539.0000  Ry
     scf convergence threshold =      1.0E-06
     mixing beta               =       0.2000
     number of iterations used =            8  plain     mixing
     energy convergence thresh.=      1.0E-04
     force convergence thresh. =      1.0E-03
     Exchange-correlation= SLA  PW   PBX  PBC
                           (   1   4   3   4   0   0   0)
     nstep                     =         1000


     Effective Screening Medium Method
     =================================
     Boundary Conditions: Vacuum-Slab-Vacuum
     total charge in unit cell        =   0.0000
     grid points for fit at edges     =        4 
 

     celldm(1)=  23.819920  celldm(2)=   0.000000  celldm(3)=   0.000000
     celldm(4)=   0.000000  celldm(5)=   0.000000  celldm(6)=   0.000000

     crystal axes: (cart. coord. in units of alat)
               a(1) = (   1.000000   0.000000   0.000000 )  
               a(2) = (  -0.499999   0.866026   0.000000 )  
               a(3) = (   0.000000   0.000000   2.893000 )  

     reciprocal axes: (cart. coord. in units 2 pi/alat)
               b(1) = (  1.000000  0.577349  0.000000 )  
               b(2) = (  0.000000  1.154700  0.000000 )  
               b(3) = (  0.000000  0.000000  0.345662 )  


     PseudoPot. # 1 for Mo read from file:
     ./pseudo/Mo.pbe-spn-kjpaw_psl.1.0.0.UPF
     MD5 check sum: 317bf72632116215fd98f72de1686f13
     Pseudo is Projector augmented-wave + core cor, Zval = 14.0
     Generated using 'atomic' code by A. Dal Corso  v.7.2
     Shape of augmentation charge: PSQ
     Using radial grid of 1229 points,  6 beta functions with: 
                l(1) =   0
                l(2) =   0
                l(3) =   1
                l(4) =   1
                l(5) =   2
                l(6) =   2
     Q(r) pseudized with 0 coefficients 


     PseudoPot. # 2 for S  read from file:
     ./pseudo/S.pbe-n-kjpaw_psl.1.0.0.UPF
     MD5 check sum: 8b7b5302570d38d5e87fed6a1065abda
     Pseudo is Projector augmented-wave + core cor, Zval =  6.0
     Generated using 'atomic' code by A. Dal Corso  v.7.2
     Shape of augmentation charge: PSQ
     Using radial grid of 1151 points,  6 beta functions with: 
                l(1) =   0
                l(2) =   0
                l(3) =   1
                l(4) =   1
                l(5) =   2
                l(6) =   2
     Q(r) pseudized with 0 coefficients 


     PseudoPot. # 3 for Pt read from file:
     ./pseudo/Pt.pbe-spfn-kjpaw_psl.1.0.0.UPF
     MD5 check sum: 620096ebf4e6ebacc94de60fd67efcb5
     Pseudo is Projector augmented-wave + core cor, Zval = 32.0
     Generated using 'atomic' code by A. Dal Corso  v.7.2
     Shape of augmentation charge: PSQ
     Using radial grid of 1277 points,  8 beta functions with: 
                l(1) =   0
                l(2) =   0
                l(3) =   1
                l(4) =   1
                l(5) =   2
                l(6) =   2
                l(7) =   3
                l(8) =   3
     Q(r) pseudized with 0 coefficients 


     PseudoPot. # 4 for Pd read from file:
     ./pseudo/Pd.pbe-spn-kjpaw_psl.1.0.0.UPF
     MD5 check sum: a60571a671f2502b8a6a4569d20a6edb
     Pseudo is Projector augmented-wave + core cor, Zval = 18.0
     Generated using 'atomic' code by A. Dal Corso  v.7.2
     Shape of augmentation charge: PSQ
     Using radial grid of 1235 points,  6 beta functions with: 
                l(1) =   0
                l(2) =   0
                l(3) =   1
                l(4) =   1
                l(5) =   2
                l(6) =   2
     Q(r) pseudized with 0 coefficients 


     atomic species   valence    mass     pseudopotential
     Mo               14.00    95.95000     Mo( 1.00)
     S                 6.00    32.06000     S ( 1.00)
     Pt               32.00   195.08400     Pt( 1.00)
     Pd               18.00   106.42000     Pd( 1.00)

     No symmetry found



   Cartesian axes

     site n.     atom                  positions (alat units)
         1        Mo     tau(   1) = (   0.0000010   0.1443372  -0.7272732  )
         2        Mo     tau(   2) = (   0.1249995   0.0721706  -0.2424038  )
         3        S      tau(   3) = (   0.0000015   0.1443386  -0.3667807  )
         4        S      tau(   4) = (   0.1250010   0.0721682  -0.6030489  )
         5        S      tau(   5) = (   0.1250010   0.0721683  -0.8514963  )
         6        S      tau(   6) = (   0.0000015   0.1443389  -0.1180260  )
         7        Mo     tau(   7) = (   0.0000005   0.1443381   0.2424561  )
         8        Mo     tau(   8) = (   0.1251981   0.0716023   0.7276027  )
         9        S      tau(   9) = (  -0.0003031   0.1454842   0.6052312  )
        10        S      tau(  10) = (   0.1249558   0.0721599   0.3668208  )
        11        S      tau(  11) = (   0.1250088   0.0721517   0.1180857  )
        12        S      tau(  12) = (  -0.0004157   0.1382876   0.8564685  )
        13        Mo     tau(  13) = (  -0.1249989   0.3608437  -0.7272732  )
        14        Mo     tau(  14) = (   0.0000030   0.2886752  -0.2424042  )
        15        S      tau(  15) = (  -0.1249977   0.3608450  -0.3667802  )
        16        S      tau(  16) = (   0.0000012   0.2886747  -0.6030489  )
        17        S      tau(  17) = (   0.0000012   0.2886748  -0.8514963  )
        18        S      tau(  18) = (  -0.1249977   0.3608454  -0.1180274  )
        19        Mo     tau(  19) = (  -0.1249623   0.3608201   0.2425155  )
        20        Mo     tau(  20) = (  -0.0007801   0.2872696   0.7308518  )
        21        S      tau(  21) = (  -0.1240398   0.3604107   0.6055268  )
        22        S      tau(  22) = (   0.0000411   0.2886546   0.3669163  )
        23        S      tau(  23) = (   0.0000035   0.2886726   0.1180964  )
        24        S      tau(  24) = (  -0.1315418   0.3638985   0.8543850  )
        25        Mo     tau(  25) = (  -0.2499987   0.5773502  -0.7272732  )
        26        Mo     tau(  26) = (  -0.1249977   0.5051839  -0.2424055  )
        27        S      tau(  27) = (  -0.2499981   0.5773518  -0.3667809  )
        28        S      tau(  28) = (  -0.1249986   0.5051812  -0.6030489  )
        29        S      tau(  29) = (  -0.1249986   0.5051813  -0.8514963  )
        30        S      tau(  30) = (  -0.2499979   0.5773512  -0.1180266  )
        31        Mo     tau(  31) = (  -0.2499787   0.5773156   0.2425145  )
        32        Mo     tau(  32) = (  -0.1271807   0.5060660   0.7281741  )
        33        S      tau(  33) = (  -0.2502658   0.5775034   0.6017985  )
        34        S      tau(  34) = (  -0.1249543   0.5051367   0.3669386  )
        35        S      tau(  35) = (  -0.1249864   0.5051552   0.1181399  )
        36        S      tau(  36) = (  -0.2525628   0.5785576   0.8514793  )
        37        Mo     tau(  37) = (  -0.3749985   0.7938567  -0.7272732  )
        38        Mo     tau(  38) = (  -0.2500001   0.7216874  -0.2424031  )
        39        S      tau(  39) = (  -0.3749980   0.7938584  -0.3667800  )
        40        S      tau(  40) = (  -0.2499984   0.7216877  -0.6030489  )
        41        S      tau(  41) = (  -0.2499984   0.7216878  -0.8514963  )
        42        S      tau(  42) = (  -0.3749982   0.7938585  -0.1180264  )
        43        Mo     tau(  43) = (  -0.3750043   0.7938372   0.2424536  )
        44        Mo     tau(  44) = (  -0.2503619   0.7218808   0.7263407  )
        45        S      tau(  45) = (  -0.3755748   0.7941519   0.6023691  )
        46        S      tau(  46) = (  -0.2500067   0.7216811   0.3668312  )
        47        S      tau(  47) = (  -0.2499793   0.7216445   0.1181126  )
        48        S      tau(  48) = (  -0.3746959   0.7932047   0.8515893  )
        49        Mo     tau(  49) = (   0.2500010   0.1443372  -0.7272732  )
        50        Mo     tau(  50) = (   0.3750034   0.0721723  -0.2424032  )
        51        S      tau(  51) = (   0.2500017   0.1443391  -0.3667788  )
        52        S      tau(  52) = (   0.3750010   0.0721682  -0.6030489  )
        53        S      tau(  53) = (   0.3750010   0.0721683  -0.8514963  )
        54        S      tau(  54) = (   0.2500016   0.1443391  -0.1180271  )
        55        Mo     tau(  55) = (   0.2500033   0.1443124   0.2424881  )
        56        Mo     tau(  56) = (   0.3752595   0.0716472   0.7255395  )
        57        S      tau(  57) = (   0.2498544   0.1431280   0.6011361  )
        58        S      tau(  58) = (   0.3750516   0.0721435   0.3668117  )
        59        S      tau(  59) = (   0.3750079   0.0721203   0.1180977  )
        60        S      tau(  60) = (   0.2517312   0.1427646   0.8506906  )
        61        Mo     tau(  61) = (   0.1250012   0.3608437  -0.7272732  )
        62        Mo     tau(  62) = (   0.2500029   0.2886782  -0.2424031  )
        63        S      tau(  63) = (   0.1250024   0.3608455  -0.3667794  )
        64        S      tau(  64) = (   0.2500012   0.2886747  -0.6030489  )
        65        S      tau(  65) = (   0.2500012   0.2886748  -0.8514963  )
        66        S      tau(  66) = (   0.1250021   0.3608455  -0.1180270  )
        67        Mo     tau(  67) = (   0.1249995   0.3608273   0.2424838  )
        68        Mo     tau(  68) = (   0.2535704   0.2866116   0.7259154  )
        69        S      tau(  69) = (   0.1241106   0.3617788   0.6079553  )
        70        S      tau(  70) = (   0.2499752   0.2886689   0.3668869  )
        71        S      tau(  71) = (   0.2500098   0.2886475   0.1181123  )
        72        S      tau(  72) = (   0.1336503   0.3523048   0.8541313  )
        73        Mo     tau(  73) = (   0.0000014   0.5773502  -0.7272732  )
        74        Mo     tau(  74) = (   0.1250045   0.5051840  -0.2424036  )
        75        S      tau(  75) = (   0.0000030   0.5773520  -0.3667799  )
        76        S      tau(  76) = (   0.1250014   0.5051812  -0.6030489  )
        77        S      tau(  77) = (   0.1250014   0.5051813  -0.8514963  )
        78        S      tau(  78) = (   0.0000026   0.5773517  -0.1180274  )
        79        Mo     tau(  79) = (   0.0000276   0.5772927   0.2425177  )
        80        Mo     tau(  80) = (   0.1255270   0.5059369   0.7313762  )
        81        S      tau(  81) = (   0.0011816   0.5764663   0.6064450  )
        82        S      tau(  82) = (   0.1250222   0.5051261   0.3669341  )
        83        S      tau(  83) = (   0.1249880   0.5051467   0.1180950  )
        84        S      tau(  84) = (  -0.0088763   0.5830479   0.8565830  )
        85        Mo     tau(  85) = (  -0.1249984   0.7938567  -0.7272732  )
        86        Mo     tau(  86) = (   0.0000069   0.7216896  -0.2424039  )
        87        S      tau(  87) = (  -0.1249975   0.7938582  -0.3667782  )
        88        S      tau(  88) = (   0.0000016   0.7216877  -0.6030489  )
        89        S      tau(  89) = (   0.0000016   0.7216878  -0.8514963  )
        90        S      tau(  90) = (  -0.1249973   0.7938582  -0.1180279  )
        91        Mo     tau(  91) = (  -0.1249699   0.7938095   0.2424907  )
        92        Mo     tau(  92) = (  -0.0004895   0.7231014   0.7275053  )
        93        S      tau(  93) = (  -0.1248847   0.7932555   0.6014963  )
        94        S      tau(  94) = (   0.0000405   0.7216116   0.3668908  )
        95        S      tau(  95) = (   0.0000242   0.7216332   0.1181249  )
        96        S      tau(  96) = (  -0.1259194   0.7949777   0.8510667  )
        97        Mo     tau(  97) = (   0.5000010   0.1443372  -0.7272732  )
        98        Mo     tau(  98) = (   0.6250001   0.0721662  -0.2424040  )
        99        S      tau(  99) = (   0.5000017   0.1443386  -0.3667801  )
       100        S      tau( 100) = (   0.6250010   0.0721682  -0.6030489  )
       101        S      tau( 101) = (   0.6250010   0.0721683  -0.8514963  )
       102        S      tau( 102) = (   0.5000020   0.1443388  -0.1180261  )
       103        Mo     tau( 103) = (   0.5000355   0.1442968   0.2424343  )
       104        Mo     tau( 104) = (   0.6251054   0.0720760   0.7269638  )
       105        S      tau( 105) = (   0.5007812   0.1439212   0.6015111  )
       106        S      tau( 106) = (   0.6250309   0.0721295   0.3668346  )
       107        S      tau( 107) = (   0.6250410   0.0721183   0.1180973  )
       108        S      tau( 108) = (   0.4998652   0.1442971   0.8504179  )
       109        Mo     tau( 109) = (   0.3750012   0.3608437  -0.7272732  )
       110        Mo     tau( 110) = (   0.4999991   0.2886761  -0.2424038  )
       111        S      tau( 111) = (   0.3750012   0.3608452  -0.3667804  )
       112        S      tau( 112) = (   0.5000012   0.2886747  -0.6030489  )
       113        S      tau( 113) = (   0.5000012   0.2886748  -0.8514963  )
       114        S      tau( 114) = (   0.3750014   0.3608455  -0.1180261  )
       115        Mo     tau( 115) = (   0.3749988   0.3608207   0.2424913  )
       116        Mo     tau( 116) = (   0.5005676   0.2886014   0.7258090  )
       117        S      tau( 117) = (   0.3761076   0.3615161   0.6013079  )
       118        S      tau( 118) = (   0.5000282   0.2886169   0.3668001  )
       119        S      tau( 119) = (   0.5000158   0.2886613   0.1180928  )
       120        S      tau( 120) = (   0.3768791   0.3600665   0.8508100  )
       121        Mo     tau( 121) = (   0.2500014   0.5773502  -0.7272732  )
       122        Mo     tau( 122) = (   0.3749983   0.5051825  -0.2424043  )
       123        S      tau( 123) = (   0.2500017   0.5773519  -0.3667810  )
       124        S      tau( 124) = (   0.3750014   0.5051812  -0.6030489  )
       125        S      tau( 125) = (   0.3750014   0.5051813  -0.8514963  )
       126        S      tau( 126) = (   0.2500018   0.5773519  -0.1180256  )
       127        Mo     tau( 127) = (   0.2499755   0.5773110   0.2424609  )
       128        Mo     tau( 128) = (   0.3758691   0.5051374   0.7277779  )
       129        S      tau( 129) = (   0.2483182   0.5768077   0.6062789  )
       130        S      tau( 130) = (   0.3749464   0.5051844   0.3668408  )
       131        S      tau( 131) = (   0.3749944   0.5051486   0.1180923  )
       132        S      tau( 132) = (   0.2574557   0.5818559   0.8585037  )
       133        Mo     tau( 133) = (   0.1250016   0.7938567  -0.7272732  )
       134        Mo     tau( 134) = (   0.2499995   0.7216883  -0.2424036  )
       135        S      tau( 135) = (   0.1250024   0.7938578  -0.3667813  )
       136        S      tau( 136) = (   0.2500016   0.7216877  -0.6030489  )
       137        S      tau( 137) = (   0.2500016   0.7216878  -0.8514963  )
       138        S      tau( 138) = (   0.1250024   0.7938579  -0.1180253  )
       139        Mo     tau( 139) = (   0.1250229   0.7938069   0.2425006  )
       140        Mo     tau( 140) = (   0.2504358   0.7224862   0.7284223  )
       141        S      tau( 141) = (   0.1254429   0.7935457   0.6029055  )
       142        S      tau( 142) = (   0.2500049   0.7216116   0.3668842  )
       143        S      tau( 143) = (   0.2500022   0.7216616   0.1181021  )
       144        S      tau( 144) = (   0.1246626   0.7944127   0.8519137  )
       145        Mo     tau( 145) = (   0.7500010   0.1443372  -0.7272732  )
       146        Mo     tau( 146) = (   0.8750038   0.0721696  -0.2424038  )
       147        S      tau( 147) = (   0.7500016   0.1443382  -0.3667789  )
       148        S      tau( 148) = (   0.8750010   0.0721682  -0.6030489  )
       149        S      tau( 149) = (   0.8750010   0.0721683  -0.8514963  )
       150        S      tau( 150) = (   0.7500016   0.1443384  -0.1180279  )
       151        Mo     tau( 151) = (   0.7500289   0.1443141   0.2424936  )
       152        Mo     tau( 152) = (   0.8748115   0.0715393   0.7280420  )
       153        S      tau( 153) = (   0.7503587   0.1440662   0.6027403  )
       154        S      tau( 154) = (   0.8750369   0.0721618   0.3668742  )
       155        S      tau( 155) = (   0.8750002   0.0721408   0.1181001  )
       156        S      tau( 156) = (   0.7494385   0.1444101   0.8516821  )
       157        Mo     tau( 157) = (   0.6250012   0.3608437  -0.7272732  )
       158        Mo     tau( 158) = (   0.7500028   0.2886769  -0.2424041  )
       159        S      tau( 159) = (   0.6250015   0.3608451  -0.3667792  )
       160        S      tau( 160) = (   0.7500012   0.2886747  -0.6030489  )
       161        S      tau( 161) = (   0.7500012   0.2886748  -0.8514963  )
       162        S      tau( 162) = (   0.6250016   0.3608454  -0.1180280  )
       163        Mo     tau( 163) = (   0.6250302   0.3608127   0.2424760  )
       164        Mo     tau( 164) = (   0.7487590   0.2885376   0.7272130  )
       165        S      tau( 165) = (   0.6254237   0.3608917   0.6015174  )
       166        S      tau( 166) = (   0.7500486   0.2886525   0.3668797  )
       167        S      tau( 167) = (   0.7500385   0.2886557   0.1181169  )
       168        S      tau( 168) = (   0.6239430   0.3610912   0.8510113  )
       169        Mo     tau( 169) = (   0.5000014   0.5773502  -0.7272732  )
       170        Mo     tau( 170) = (   0.6250029   0.5051841  -0.2424047  )
       171        S      tau( 171) = (   0.5000014   0.5773518  -0.3667794  )
       172        S      tau( 172) = (   0.6250014   0.5051812  -0.6030489  )
       173        S      tau( 173) = (   0.6250014   0.5051813  -0.8514963  )
       174        S      tau( 174) = (   0.5000016   0.5773516  -0.1180277  )
       175        Mo     tau( 175) = (   0.4999859   0.5773250   0.2424709  )
       176        Mo     tau( 176) = (   0.6245890   0.5053660   0.7261562  )
       177        S      tau( 177) = (   0.4993068   0.5776651   0.6022414  )
       178        S      tau( 178) = (   0.6249823   0.5051501   0.3668388  )
       179        S      tau( 179) = (   0.6250205   0.5051637   0.1181147  )
       180        S      tau( 180) = (   0.5009766   0.5773609   0.8515797  )
       181        Mo     tau( 181) = (   0.3750016   0.7938567  -0.7272732  )
       182        Mo     tau( 182) = (   0.5000025   0.7216901  -0.2424039  )
       183        S      tau( 183) = (   0.3750019   0.7938578  -0.3667793  )
       184        S      tau( 184) = (   0.5000016   0.7216877  -0.6030489  )
       185        S      tau( 185) = (   0.5000016   0.7216878  -0.8514963  )
       186        S      tau( 186) = (   0.3750020   0.7938579  -0.1180272  )
       187        Mo     tau( 187) = (   0.3749951   0.7938323   0.2424893  )
       188        Mo     tau( 188) = (   0.4998599   0.7217391   0.7271366  )
       189        S      tau( 189) = (   0.3746033   0.7939741   0.6029663  )
       190        S      tau( 190) = (   0.4999946   0.7216688   0.3668260  )
       191        S      tau( 191) = (   0.4999891   0.7216628   0.1180901  )
       192        S      tau( 192) = (   0.3755955   0.7938624   0.8526444  )
       193        Pt     tau( 193) = (   0.1194898   0.4990527   0.9549993  )
       194        Pd     tau( 194) = (   0.0026419   0.2990244   0.9662205  )
       195        Pt     tau( 195) = (   0.1251888   0.0716385   0.9754891  )

     --------------------------------------------
     DFT-D3 Dispersion Correction (3-body terms):
     --------------------------------------------
       Reference C6 values for interpolation: 

         atom   Coordination number   C6
         S          0.000           268.01
         S          0.995           261.99
         S          1.990           251.62
         Mo         0.000          1691.79
         Mo         1.942          1004.01
         Mo        11.056           674.22
         Pd         0.000          1217.01
         Pd         1.863           573.90
         Pd         5.710           531.75
         Pt         0.000           782.29
         Pt         1.919           692.72
         Pt         6.667           673.75

       Values used:

         atom   Coordination number  R0_AB[au]  C6      C8
         Mo        10.208            3.547    674.22  77634.20
         Mo        10.221            3.547    674.22  77634.20
         S          3.858            3.128    251.62  12327.25
         S          3.859            3.128    251.62  12327.25
         S          3.758            3.128    251.62  12327.25
         S          3.859            3.128    251.62  12327.25
         Mo        10.221            3.547    674.22  77634.20
         Mo        10.756            3.547    674.22  77634.20
         S          3.850            3.128    251.62  12327.25
         S          3.859            3.128    251.62  12327.25
         S          3.859            3.128    251.62  12327.25
         S          5.593            3.128    251.62  12327.25
         Mo        10.208            3.547    674.22  77634.20
         Mo        10.221            3.547    674.22  77634.20
         S          3.858            3.128    251.62  12327.25
         S          3.859            3.128    251.62  12327.25
         S          3.758            3.128    251.62  12327.25
         S          3.859            3.128    251.62  12327.25
         Mo        10.222            3.547    674.22  77634.20
         Mo        10.731            3.547    674.22  77634.20
         S          3.862            3.128    251.62  12327.25
         S          3.850            3.128    251.62  12327.25
         S          3.859            3.128    251.62  12327.25
         S          4.669            3.128    251.62  12327.25
         Mo        10.208            3.547    674.22  77634.20
         Mo        10.221            3.547    674.22  77634.20
         S          3.858            3.128    251.62  12327.25
         S          3.859            3.128    251.62  12327.25
         S          3.758            3.128    251.62  12327.25
         S          3.859            3.128    251.62  12327.25
         Mo        10.220            3.547    674.22  77634.20
         Mo        10.171            3.547    674.21  77634.20
         S          3.843            3.128    251.62  12327.25
         S          3.853            3.128    251.62  12327.25
         S          3.859            3.128    251.62  12327.25
         S          3.844            3.128    251.62  12327.25
         Mo        10.208            3.547    674.22  77634.20
         Mo        10.220            3.547    674.22  77634.20
         S          3.858            3.128    251.62  12327.25
         S          3.859            3.128    251.62  12327.25
         S          3.758            3.128    251.62  12327.25
         S          3.859            3.128    251.62  12327.25
         Mo        10.220            3.547    674.22  77634.20
         Mo        10.269            3.547    674.22  77634.20
         S          3.857            3.128    251.62  12327.25
         S          3.861            3.128    251.62  12327.25
         S          3.859            3.128    251.62  12327.25
         S          4.762            3.128    251.62  12327.25
         Mo        10.208            3.547    674.22  77634.20
         Mo        10.221            3.547    674.22  77634.20
         S          3.858            3.128    251.62  12327.25
         S          3.859            3.128    251.62  12327.25
         S          3.758            3.128    251.62  12327.25
         S          3.859            3.128    251.62  12327.25
         Mo        10.220            3.547    674.22  77634.20
         Mo        10.287            3.547    674.22  77634.20
         S          3.838            3.128    251.62  12327.25
         S          3.863            3.128    251.62  12327.25
         S          3.859            3.128    251.62  12327.25
         S          4.790            3.128    251.62  12327.25
         Mo        10.208            3.547    674.22  77634.20
         Mo        10.221            3.547    674.22  77634.20
         S          3.858            3.128    251.62  12327.25
         S          3.859            3.128    251.62  12327.25
         S          3.758            3.128    251.62  12327.25
         S          3.859            3.128    251.62  12327.25
         Mo        10.222            3.547    674.22  77634.20
         Mo        10.186            3.547    674.22  77634.20
         S          3.873            3.128    251.62  12327.25
         S          3.855            3.128    251.62  12327.25
         S          3.859            3.128    251.62  12327.25
         S          5.658            3.128    251.62  12327.25
         Mo        10.208            3.547    674.22  77634.20
         Mo        10.221            3.547    674.22  77634.20
         S          3.858            3.128    251.62  12327.25
         S          3.859            3.128    251.62  12327.25
         S          3.758            3.128    251.62  12327.25
         S          3.859            3.128    251.62  12327.25
         Mo        10.222            3.547    674.22  77634.20
         Mo        10.867            3.547    674.22  77634.20
         S          3.860            3.128    251.62  12327.25
         S          3.850            3.128    251.62  12327.25
         S          3.859            3.128    251.62  12327.25
         S          4.672            3.128    251.62  12327.25
         Mo        10.208            3.547    674.22  77634.20
         Mo        10.221            3.547    674.22  77634.20
         S          3.858            3.128    251.62  12327.25
         S          3.859            3.128    251.62  12327.25
         S          3.758            3.128    251.62  12327.25
         S          3.859            3.128    251.62  12327.25
         Mo        10.220            3.547    674.22  77634.20
         Mo        10.215            3.547    674.22  77634.20
         S          3.850            3.128    251.62  12327.25
         S          3.856            3.128    251.62  12327.25
         S          3.859            3.128    251.62  12327.25
         S          3.839            3.128    251.62  12327.25
         Mo        10.208            3.547    674.22  77634.20
         Mo        10.221            3.547    674.22  77634.20
         S          3.858            3.128    251.62  12327.25
         S          3.859            3.128    251.62  12327.25
         S          3.758            3.128    251.62  12327.25
         S          3.859            3.128    251.62  12327.25
         Mo        10.220            3.547    674.22  77634.20
         Mo        10.250            3.547    674.22  77634.20
         S          3.856            3.128    251.62  12327.25
         S          3.861            3.128    251.62  12327.25
         S          3.859            3.128    251.62  12327.25
         S          3.790            3.128    251.62  12327.25
         Mo        10.208            3.547    674.22  77634.20
         Mo        10.221            3.547    674.22  77634.20
         S          3.858            3.128    251.62  12327.25
         S          3.859            3.128    251.62  12327.25
         S          3.758            3.128    251.62  12327.25
         S          3.859            3.128    251.62  12327.25
         Mo        10.220            3.547    674.22  77634.20
         Mo        10.278            3.547    674.22  77634.20
         S          3.840            3.128    251.62  12327.25
         S          3.863            3.128    251.62  12327.25
         S          3.859            3.128    251.62  12327.25
         S          3.820            3.128    251.62  12327.25
         Mo        10.208            3.547    674.22  77634.20
         Mo        10.221            3.547    674.22  77634.20
         S          3.858            3.128    251.62  12327.25
         S          3.859            3.128    251.62  12327.25
         S          3.758            3.128    251.62  12327.25
         S          3.859            3.128    251.62  12327.25
         Mo        10.222            3.547    674.22  77634.20
         Mo        10.220            3.547    674.22  77634.20
         S          3.851            3.128    251.62  12327.25
         S          3.858            3.128    251.62  12327.25
         S          3.859            3.128    251.62  12327.25
         S          4.642            3.128    251.62  12327.25
         Mo        10.208            3.547    674.22  77634.20
         Mo        10.221            3.547    674.22  77634.20
         S          3.858            3.128    251.62  12327.25
         S          3.859            3.128    251.62  12327.25
         S          3.758            3.128    251.62  12327.25
         S          3.859            3.128    251.62  12327.25
         Mo        10.221            3.547    674.22  77634.20
         Mo        10.226            3.547    674.22  77634.20
         S          3.863            3.128    251.62  12327.25
         S          3.856            3.128    251.62  12327.25
         S          3.859            3.128    251.62  12327.25
         S          3.764            3.128    251.62  12327.25
         Mo        10.208            3.547    674.22  77634.20
         Mo        10.221            3.547    674.22  77634.20
         S          3.858            3.128    251.62  12327.25
         S          3.859            3.128    251.62  12327.25
         S          3.758            3.128    251.62  12327.25
         S          3.859            3.128    251.62  12327.25
         Mo        10.221            3.547    674.22  77634.20
         Mo        10.250            3.547    674.22  77634.20
         S          3.864            3.128    251.62  12327.25
         S          3.857            3.128    251.62  12327.25
         S          3.859            3.128    251.62  12327.25
         S          3.767            3.128    251.62  12327.25
         Mo        10.208            3.547    674.22  77634.20
         Mo        10.220            3.547    674.22  77634.20
         S          3.858            3.128    251.62  12327.25
         S          3.859            3.128    251.62  12327.25
         S          3.758            3.128    251.62  12327.25
         S          3.859            3.128    251.62  12327.25
         Mo        10.220            3.547    674.22  77634.20
         Mo        10.226            3.547    674.22  77634.20
         S          3.854            3.128    251.62  12327.25
         S          3.857            3.128    251.62  12327.25
         S          3.859            3.128    251.62  12327.25
         S          3.809            3.128    251.62  12327.25
         Mo        10.208            3.547    674.22  77634.20
         Mo        10.221            3.547    674.22  77634.20
         S          3.858            3.128    251.62  12327.25
         S          3.859            3.128    251.62  12327.25
         S          3.758            3.128    251.62  12327.25
         S          3.859            3.128    251.62  12327.25
         Mo        10.220            3.547    674.22  77634.20
         Mo        10.267            3.547    674.22  77634.20
         S          3.853            3.128    251.62  12327.25
         S          3.861            3.128    251.62  12327.25
         S          3.859            3.128    251.62  12327.25
         S          3.821            3.128    251.62  12327.25
         Mo        10.208            3.547    674.22  77634.20
         Mo        10.221            3.547    674.22  77634.20
         S          3.858            3.128    251.62  12327.25
         S          3.859            3.128    251.62  12327.25
         S          3.758            3.128    251.62  12327.25
         S          3.859            3.128    251.62  12327.25
         Mo        10.221            3.547    674.22  77634.20
         Mo        10.260            3.547    674.21  77634.20
         S          3.853            3.128    251.62  12327.25
         S          3.860            3.128    251.62  12327.25
         S          3.859            3.128    251.62  12327.25
         S          3.834            3.128    251.62  12327.25
         Pt         4.461            3.168    673.78  70065.07
         Pd         4.282            3.168    531.75  48720.73
         Pt         3.686            3.168    692.72  72035.25

         Molecular C6 ( Ry / a.u.^6 ) =  14174372.50


     number of k points=     4  Gaussian smearing, width (Ry)=  0.0100
                       cart. coord. in units 2pi/alat
        k(    1) = (   0.0000000   0.0000000   0.0000000), wk =   0.5000000
        k(    2) = (   0.0000000  -0.5773499   0.0000000), wk =   0.5000000
        k(    3) = (  -0.5000000  -0.2886744   0.0000000), wk =   0.5000000
        k(    4) = (  -0.5000000  -0.8660242   0.0000000), wk =   0.5000000

     Dense  grid:  7154885 G-vectors     FFT dimensions: ( 180, 180, 512)

     Smooth grid:  3090769 G-vectors     FFT dimensions: ( 135, 135, 400)

     Estimated max dynamical RAM per process >       4.33 GB

     Estimated total dynamical RAM >     155.86 GB

     Atomic positions and unit cell read from directory:
     ./outdir/pwscf.save/
     Atomic positions from file used, from input discarded
 

     The initial density is read from file :
     ./outdir/pwscf.save/charge-density


     negative rho (up, down):  9.114E-04 0.000E+00
     Cannot read wfcs: file not found
     Starting wfcs are 1196 randomized atomic wfcs
     Checking if some PAW data can be deallocated... 

     total cpu time spent up to now is      181.9 secs

     Self-consistent Calculation

     iteration #  1     ecut=    77.00 Ry     beta= 0.20
     Davidson diagonalization with overlap
     c_bands:  5 eigenvalues not converged
     c_bands: 14 eigenvalues not converged
     c_bands: 15 eigenvalues not converged
     c_bands: 14 eigenvalues not converged
     ethr =  1.00E-05,  avg # of iterations =115.0

     negative rho (up, down):  8.377E-04 0.000E+00

     total cpu time spent up to now is    11014.5 secs

     total energy              =  -35654.91146010 Ry
     estimated scf accuracy    <       1.73045347 Ry

     iteration #  2     ecut=    77.00 Ry     beta= 0.20
     Davidson diagonalization with overlap
     ethr =  9.91E-05,  avg # of iterations =  7.5

     negative rho (up, down):  8.077E-04 0.000E+00

     total cpu time spent up to now is    11465.7 secs

     total energy              =  -35654.89698745 Ry
     estimated scf accuracy    <       0.78331229 Ry

     iteration #  3     ecut=    77.00 Ry     beta= 0.20
     Davidson diagonalization with overlap
     ethr =  4.49E-05,  avg # of iterations =  5.8

     negative rho (up, down):  7.631E-04 0.000E+00

     total cpu time spent up to now is    11900.5 secs

     total energy              =  -35654.86007963 Ry
     estimated scf accuracy    <       0.30347557 Ry

     iteration #  4     ecut=    77.00 Ry     beta= 0.20
     Davidson diagonalization with overlap
     c_bands:  1 eigenvalues not converged
     ethr =  1.74E-05,  avg # of iterations = 15.0

     negative rho (up, down):  7.592E-04 0.000E+00

     total cpu time spent up to now is    12480.6 secs

     total energy              =  -35654.94153644 Ry
     estimated scf accuracy    <       0.07151907 Ry

     iteration #  5     ecut=    77.00 Ry     beta= 0.20
     Davidson diagonalization with overlap
     c_bands:  4 eigenvalues not converged
     c_bands:  5 eigenvalues not converged
     c_bands:  1 eigenvalues not converged
     ethr =  4.10E-06,  avg # of iterations = 35.5

     negative rho (up, down):  7.659E-04 0.000E+00

     total cpu time spent up to now is    13392.0 secs

     total energy              =  -35654.93585169 Ry
     estimated scf accuracy    <       0.03193555 Ry

     iteration #  6     ecut=    77.00 Ry     beta= 0.20
     Davidson diagonalization with overlap
     c_bands:  4 eigenvalues not converged
     c_bands:  2 eigenvalues not converged
     c_bands:  3 eigenvalues not converged
     c_bands:  1 eigenvalues not converged
     ethr =  1.83E-06,  avg # of iterations = 30.0

     negative rho (up, down):  7.703E-04 0.000E+00

     total cpu time spent up to now is    14276.2 secs

     total energy              =  -35654.94068678 Ry
     estimated scf accuracy    <       0.02437148 Ry

     iteration #  7     ecut=    77.00 Ry     beta= 0.20
     Davidson diagonalization with overlap
     c_bands:  2 eigenvalues not converged
     ethr =  1.40E-06,  avg # of iterations = 10.2

     negative rho (up, down):  7.777E-04 0.000E+00

     total cpu time spent up to now is    14744.3 secs

     total energy              =  -35654.94155202 Ry
     estimated scf accuracy    <       0.00394034 Ry

     iteration #  8     ecut=    77.00 Ry     beta= 0.20
     Davidson diagonalization with overlap
     c_bands:  1 eigenvalues not converged
     ethr =  2.26E-07,  avg # of iterations = 17.5

     negative rho (up, down):  8.032E-04 0.000E+00

     total cpu time spent up to now is    15635.5 secs

     total energy              =  -35654.94537652 Ry
     estimated scf accuracy    <       0.00374994 Ry

     iteration #  9     ecut=    77.00 Ry     beta= 0.20
     Davidson diagonalization with overlap
     ethr =  2.15E-07,  avg # of iterations =  2.0

     negative rho (up, down):  8.500E-04 0.000E+00

     total cpu time spent up to now is    16052.5 secs

     total energy              =  -35654.94479738 Ry
     estimated scf accuracy    <       0.00148760 Ry

     iteration # 10     ecut=    77.00 Ry     beta= 0.20
     Davidson diagonalization with overlap
     ethr =  8.52E-08,  avg # of iterations = 12.0

     negative rho (up, down):  8.545E-04 0.000E+00

     total cpu time spent up to now is    16652.3 secs

     total energy              =  -35654.94538785 Ry
     estimated scf accuracy    <       0.00028417 Ry

     iteration # 11     ecut=    77.00 Ry     beta= 0.20
     Davidson diagonalization with overlap
     ethr =  1.63E-08,  avg # of iterations = 13.5

     negative rho (up, down):  8.724E-04 0.000E+00

     total cpu time spent up to now is    17642.3 secs

     total energy              =  -35654.94568545 Ry
     estimated scf accuracy    <       0.00008917 Ry

     iteration # 12     ecut=    77.00 Ry     beta= 0.20
     Davidson diagonalization with overlap
     ethr =  5.11E-09,  avg # of iterations = 15.2

     negative rho (up, down):  8.880E-04 0.000E+00

     total cpu time spent up to now is    18513.6 secs

     total energy              =  -35654.94573506 Ry
     estimated scf accuracy    <       0.00004171 Ry

     iteration # 13     ecut=    77.00 Ry     beta= 0.20
     Davidson diagonalization with overlap
     ethr =  2.39E-09,  avg # of iterations = 12.0

     negative rho (up, down):  8.978E-04 0.000E+00

     total cpu time spent up to now is    19070.9 secs

     total energy              =  -35654.94573954 Ry
     estimated scf accuracy    <       0.00001004 Ry

     iteration # 14     ecut=    77.00 Ry     beta= 0.20
     Davidson diagonalization with overlap
     ethr =  5.75E-10,  avg # of iterations = 16.2

     negative rho (up, down):  9.004E-04 0.000E+00

     total cpu time spent up to now is    20184.8 secs

     total energy              =  -35654.94575578 Ry
     estimated scf accuracy    <       0.00000482 Ry

     iteration # 15     ecut=    77.00 Ry     beta= 0.20
     Davidson diagonalization with overlap
     ethr =  2.76E-10,  avg # of iterations =  6.8

     negative rho (up, down):  9.059E-04 0.000E+00

     total cpu time spent up to now is    20639.6 secs

     total energy              =  -35654.94575225 Ry
     estimated scf accuracy    <       0.00000249 Ry

     iteration # 16     ecut=    77.00 Ry     beta= 0.20
     Davidson diagonalization with overlap
     ethr =  1.43E-10,  avg # of iterations = 15.8

     negative rho (up, down):  9.128E-04 0.000E+00

     total cpu time spent up to now is    21511.2 secs

     End of self-consistent calculation

          k = 0.0000 0.0000 0.0000 (386245 PWs)   bands (ev):

  -103.0293-102.9591 -88.2231 -71.3617 -71.3519 -71.3418 -71.3246 -71.3151
   -71.3042 -71.2976 -71.2907 -71.2899 -71.2748 -71.2496 -71.2438 -71.2304
   -71.2269 -66.6196 -66.6172 -66.6170 -66.6157 -66.6013 -66.5996 -66.5962
   -66.5960 -66.5960 -66.5959 -66.5958 -66.5957 -66.5957 -66.5957 -66.5957
   -66.5957 -66.5957 -66.5956 -66.5955 -66.5944 -66.5944 -66.5944 -66.5943
   -66.5943 -66.5943 -66.5900 -66.5815 -66.5761 -66.5749 -66.5747 -66.5746
   -66.5746 -66.5745 -66.5744 -66.5744 -66.5744 -66.5744 -66.5743 -66.5743
   -66.5743 -66.5743 -66.5743 -66.5743 -66.5742 -66.5742 -66.5742 -66.5730
   -66.5730 -66.5730 -66.5729 -66.5729 -66.5729 -66.5729 -66.5729 -66.5728
   -66.5710 -66.5652 -66.5597 -66.5586 -66.5520 -66.5486 -66.5445 -66.5386
   -66.5004 -57.3132 -57.3066 -57.2421 -57.1861 -57.1630 -57.0559 -54.1480
   -54.0510 -53.8261 -40.9447 -40.9446 -40.9445 -40.9444 -40.9444 -40.9444
   -40.9437 -40.9437 -40.9437 -40.9340 -40.9313 -40.9248 -40.8694 -40.8693
   -40.8693 -40.8692 -40.8692 -40.8691 -40.8691 -40.8691 -40.8691 -40.8690
   -40.8690 -40.8690 -40.8683 -40.8683 -40.8683 -40.8683 -40.8683 -40.8683
   -40.8617 -40.8563 -40.8506 -40.8413 -40.8368 -40.8337 -40.8111 -40.7879
   -40.7768 -40.7766 -40.7759 -40.7705 -40.7450 -40.7436 -40.7431 -40.7430
   -40.7429 -40.7429 -40.7428 -40.7428 -40.7427 -40.7427 -40.7427 -40.7427
   -40.7427 -40.7427 -40.7419 -40.7418 -40.7418 -40.7418 -40.7418 -40.7418
   -40.7376 -40.7355 -40.7353 -40.7352 -40.7352 -40.7350 -40.7350 -40.7349
   -40.7349 -40.7349 -40.7348 -40.7348 -40.7348 -40.7348 -40.7342 -40.7342
   -40.7341 -40.7341 -40.7341 -40.7341 -40.7325 -40.7307 -40.7277 -40.7254
   -40.7156 -40.7099 -40.7081 -40.7080 -40.7079 -40.7079 -40.7077 -40.7077
   -40.7077 -40.7077 -40.7077 -40.7077 -40.7077 -40.7077 -40.7073 -40.7068
   -40.7068 -40.7067 -40.7067 -40.7067 -40.7067 -40.7055 -40.7035 -40.7016
   -40.6966 -40.6946 -40.6934 -40.6933 -40.6933 -40.6932 -40.6932 -40.6931
   -40.6931 -40.6930 -40.6930 -40.6929 -40.6929 -40.6929 -40.6929 -40.6929
   -40.6928 -40.6928 -40.6928 -40.6928 -40.6927 -40.6922 -40.6922 -40.6921
   -40.6921 -40.6921 -40.6921 -40.6920 -40.6920 -40.6920 -40.6906 -40.6867
   -40.6836 -40.6794 -40.6760 -40.6677 -40.6602 -40.6463 -40.6296 -40.6296
   -40.6294 -40.6294 -40.6294 -40.6294 -40.6283 -40.6283 -40.6283 -40.6158
   -40.6103 -40.6021 -40.5826 -40.5825 -40.5825 -40.5824 -40.5823 -40.5823
   -40.5823 -40.5822 -40.5822 -40.5822 -40.5822 -40.5822 -40.5812 -40.5812
   -40.5812 -40.5812 -40.5812 -40.5812 -40.5676 -40.5635 -40.5622 -40.5535
   -40.5483 -40.5405 -40.5348 -40.5348 -40.5346 -40.5346 -40.5335 -40.5335
   -40.5078 -40.4967 -20.2650 -20.0968 -19.9963 -19.8855 -19.6833 -19.4687
   -19.3532 -19.2689 -19.2670 -19.2459 -19.2305 -19.2289 -19.2261 -19.2145
   -19.2135 -19.1923 -19.1445 -19.1411 -19.1364 -19.1261 -19.1251 -19.1093
   -19.0393 -19.0370 -19.0342 -19.0308 -19.0299 -19.0248 -18.9257 -18.8262
   -18.8024 -18.6680 -18.6266 -18.6009 -18.5703 -18.5460 -18.5055 -18.4765
   -18.4595 -18.4318 -18.4196 -18.4189 -18.4163 -18.3910 -18.3559 -18.3135
   -18.2944 -18.2900 -18.2815 -18.2685 -18.2460 -18.2282 -18.2079 -18.1972
   -18.1782 -18.1751 -18.1680 -18.1674 -18.1599 -18.1582 -18.1187 -18.1150
   -18.1131 -18.1123 -18.1120 -18.1117 -18.0971 -18.0860 -18.0825 -18.0782
   -18.0773 -18.0731 -18.0695 -18.0688 -18.0685 -18.0617 -18.0469 -18.0460
   -18.0445 -18.0420 -18.0314 -18.0284 -18.0274 -18.0162 -18.0105 -18.0046
   -18.0010 -17.9982 -17.9960 -17.9855 -17.9852 -17.9830 -17.9515 -17.9480
   -17.9455 -17.9408 -17.9287 -17.9191 -17.9171 -17.9144 -17.9143 -17.8907
   -17.8886 -17.8855 -17.8794 -17.8745 -17.8702 -17.8654 -17.8614 -17.8596
   -17.8539 -17.8525 -17.8505 -17.8340 -17.8337 -17.8330 -17.8256 -17.8232
   -17.8216 -17.8177 -17.8152 -17.8136 -17.7905 -17.7900 -17.7896 -17.7884
   -17.7874 -17.7867 -12.2794 -12.1624 -12.0145 -11.9482 -11.8634 -11.7976
   -11.7920 -11.7839 -11.7171 -11.6773 -11.6661 -11.6517 -11.6128 -11.5565
   -11.5481 -11.5468 -11.4659 -11.4345 -11.3981 -11.3034 -11.2730 -11.2515
   -11.2325 -11.2319 -11.2262 -11.2168 -11.2028 -11.1687 -11.1401 -11.1261
   -11.1254 -11.1239 -11.1213 -11.1169 -11.1049 -11.0884 -11.0757 -11.0642
   -11.0636 -11.0596 -11.0547 -11.0424 -11.0422 -11.0279 -11.0242 -11.0209
   -11.0066 -10.9943 -10.9659 -10.9611 -10.9590 -10.9386 -10.9370 -10.9343
   -10.9181 -10.9026 -10.8941 -10.8870 -10.8825 -10.8794 -10.8701 -10.8625
   -10.8482 -10.8387 -10.8356 -10.8330 -10.8281 -10.8259 -10.8234 -10.8214
   -10.8170 -10.8138 -10.8110 -10.8068 -10.8040 -10.8009 -10.7779 -10.7753
   -10.7731 -10.7716 -10.7702 -10.7671 -10.7650 -10.7631 -10.7552 -10.7315
   -10.7310 -10.7307 -10.7304 -10.7293 -10.7282 -10.6881 -10.6616 -10.6554
   -10.6427 -10.6263 -10.6105 -10.5941 -10.5836 -10.5783 -10.5634 -10.5564
   -10.4911 -10.4417 -10.2265 -10.1758 -10.1400 -10.1199 -10.0285  -9.9725
    -9.9308  -9.9243  -9.8687  -9.8360  -9.8311  -9.8147  -9.8039  -9.8003
    -9.7782  -9.7704  -9.7689  -9.7659  -9.7653  -9.7642  -9.7583  -9.7543
    -9.7462  -9.7440  -9.7432  -9.7417  -9.7377  -9.7255  -9.7119  -9.6914
    -9.6854  -9.6574  -9.6378  -9.6337  -9.6318  -9.6235  -9.6216  -9.6147
    -9.6139  -9.6119  -9.6110  -9.6098  -9.6077  -9.6065  -9.5753  -9.5669
    -9.5505  -9.5387  -9.5347  -9.5344  -9.5342  -9.5338  -9.5335  -9.5333
    -9.5284  -9.5271  -9.5071  -9.5047  -9.4996  -9.4910  -9.4695  -9.4462
    -9.4230  -9.3979  -9.3774  -9.3684  -9.3626  -9.3572  -9.3523  -9.3416
    -9.3374  -9.3307  -9.3212  -9.3140  -9.3063  -9.2940  -9.2653  -9.2526
    -9.2475  -9.2401  -9.2364  -9.2169  -9.2021  -9.1856  -9.1813  -9.1766
    -9.1757  -9.1738  -9.1705  -9.1628  -9.1550  -9.1378  -9.1190  -9.1077
    -9.1029  -9.0744  -9.0480  -9.0327  -9.0021  -8.9888  -8.9759  -8.9726
    -8.9718  -8.9555  -8.9414  -8.9410  -8.9345  -8.9197  -8.9102  -8.9101
    -8.9097  -8.9037  -8.8997  -8.8948  -8.8904  -8.8794  -8.8188  -8.8147
    -8.8145  -8.8137  -8.8131  -8.8128  -8.7996  -8.7776  -8.7639  -8.7561
    -8.7459  -8.7316  -8.7287  -8.7081  -8.6705  -8.6650  -8.6593  -8.6538
    -8.6525  -8.6434  -8.5950  -8.5874  -8.5866  -8.5843  -8.5841  -8.5834
    -8.5586  -8.5444  -8.5149  -8.4649  -8.4156  -8.3590  -8.3590  -8.3544
    -8.3542  -8.3480  -8.3477  -8.3423  -8.3331  -8.3123  -8.2962  -8.2693
    -8.2686  -8.2683  -8.2678  -8.2672  -8.2661  -8.2450  -8.2423  -8.2417
    -8.2408  -8.2400  -8.2388  -8.2193  -8.2139  -8.2135  -8.2131  -8.2127
    -8.2123  -8.2054  -8.1379  -8.1301  -8.0646  -7.9742  -7.9057  -7.8570
    -7.8547  -7.8456  -7.8156  -7.7981  -7.7613  -7.7472  -7.7341  -7.7019
    -7.7000  -7.6675  -7.6494  -7.6442  -7.6393  -7.6328  -7.6187  -7.6100
    -7.6028  -7.6024  -7.5916  -7.5750  -7.5721  -7.5624  -7.5506  -7.5466
    -7.5311  -7.5275  -7.5268  -7.5266  -7.5264  -7.5241  -7.5224  -7.5060
    -7.5009  -7.5008  -7.4999  -7.4984  -7.4979  -7.4953  -7.4828  -7.4765
    -7.4749  -7.4747  -7.4745  -7.4742  -7.4724  -7.4607  -7.4495  -7.4345
    -7.4310  -7.4261  -7.4143  -7.4118  -7.4045  -7.3877  -7.3792  -7.3572
    -7.3570  -7.3501  -7.3324  -7.3228  -7.3144  -7.3106  -7.2958  -7.2931
    -7.2904  -7.2882  -7.2872  -7.2783  -7.2433  -7.2431  -7.2331  -7.2253
    -7.2249  -7.2185  -7.2066  -7.2062  -7.1712  -7.1652  -7.1371  -7.1193
    -7.1120  -7.0931  -7.0684  -7.0318  -7.0116  -6.9704  -6.9329  -6.8783
    -6.8749  -6.8594  -6.8492  -6.8193  -6.7823  -6.7775  -6.7736  -6.7683
    -6.7389  -6.7343  -6.7184  -6.6905  -6.6898  -6.6814  -6.6626  -6.6532
    -6.6431  -6.6180  -6.6149  -6.6124  -6.6107  -6.5895  -6.5738  -6.5651
    -6.5602  -6.5570  -6.5495  -6.5410  -6.5207  -6.5180  -6.5084  -6.5074
    -6.5058  -6.5041  -6.5029  -6.4999  -6.4951  -6.4903  -6.4899  -6.4898
    -6.4898  -6.4896  -6.4893  -6.4859  -6.4806  -6.4453  -6.4385  -6.4349
    -6.4146  -6.4038  -6.4020  -6.4004  -6.3907  -6.3659  -6.3288  -6.3278
    -6.3247  -6.3236  -6.3231  -6.3205  -6.3016  -6.2996  -6.2863  -6.2850
    -6.2830  -6.2818  -6.2803  -6.2739  -6.2596  -6.2479  -6.2475  -6.2461
    -6.2449  -6.2436  -6.2396  -6.2145  -6.1930  -6.1841  -6.1106  -6.0150
    -5.9306  -5.7846  -5.6784  -5.6246  -5.5150  -5.4799  -5.3520  -5.2691
    -5.1408  -4.3412  -4.2094  -3.8655  -3.8500  -3.8471  -3.8367  -3.8305
    -3.8245  -3.8226  -3.8201  -3.8169  -3.8162  -3.7979  -3.7951  -3.7319
    -3.7080  -3.7019  -3.6888  -3.6829  -3.6786  -3.6742  -3.6708  -3.6644
    -3.6631  -3.5778  -3.5750  -3.5359  -3.5200  -3.5104  -3.5094  -3.5025
    -3.4888  -3.4874  -3.4709  -3.4670  -3.4641  -3.4620  -3.4605  -3.4533
    -3.4506  -3.4483  -3.4376  -3.4355  -3.4345  -3.4340  -3.4317  -3.4219
    -3.4200  -3.4197  -3.4174  -3.4130  -3.4053  -3.4014  -3.4002  -3.3969
    -3.3934  -3.3903  -3.3866  -3.3838  -3.3774  -3.3548  -3.3546  -3.3509
    -3.3507  -3.3465  -3.3429  -3.3391  -3.3338  -3.3260  -3.3164  -3.3038
    -3.2997  -3.2926  -3.2874  -3.2802  -3.2786  -3.2764  -3.2691  -3.2537
    -3.2449  -3.2107  -3.2091  -3.2018  -3.1833  -3.1098  -3.0861  -3.0826
    -3.0706  -3.0631  -3.0523  -3.0516  -3.0455  -3.0397  -3.0365  -3.0336
    -3.0069  -3.0047  -2.9895  -2.9807  -2.9746  -2.9675  -2.9670  -2.9654
    -2.9596  -2.9585  -2.9560  -2.9549  -2.9547  -2.9486  -2.9454  -2.9444
    -2.9418  -2.9354  -2.9281  -2.9265  -2.9258  -2.9251  -2.9237  -2.9226
    -2.9218  -2.9149  -2.9111  -2.9040  -2.8979  -2.8862  -2.8861  -2.8819
    -2.8708  -2.8609  -2.8577  -2.8440  -2.8001  -2.7985  -2.7985  -2.7983
    -2.7980  -2.7977  -2.7973  -2.7962  -2.7947  -2.7849  -2.7815  -2.7765
    -2.7672  -2.7423  -2.7339  -2.7319  -2.7223  -2.7111  -2.7111  -2.6653
    -2.6625  -2.6363  -2.6329  -2.6311  -2.6227  -2.6179  -2.6126  -2.6079
    -2.6063  -2.6019  -2.5821  -2.5460  -2.5437  -2.5365  -2.5282  -2.4894
    -2.4535  -2.4462  -2.4362  -2.4320  -2.4253  -2.4192  -2.4091  -2.3986

          k = 0.0000-0.5773 0.0000 (386352 PWs)   bands (ev):

  -103.0293-102.9591 -88.2231 -71.3617 -71.3519 -71.3418 -71.3246 -71.3151
   -71.3042 -71.2976 -71.2907 -71.2899 -71.2748 -71.2496 -71.2438 -71.2304
   -71.2269 -66.6189 -66.6110 -66.6109 -66.6108 -66.6108 -66.6094 -66.6094
   -66.6032 -66.6013 -66.6004 -66.6002 -66.6001 -66.6001 -66.5988 -66.5988
   -66.5926 -66.5904 -66.5856 -66.5853 -66.5850 -66.5850 -66.5850 -66.5850
   -66.5850 -66.5850 -66.5836 -66.5836 -66.5836 -66.5836 -66.5816 -66.5808
   -66.5807 -66.5806 -66.5806 -66.5792 -66.5792 -66.5754 -66.5748 -66.5746
   -66.5743 -66.5743 -66.5743 -66.5743 -66.5743 -66.5742 -66.5730 -66.5729
   -66.5729 -66.5729 -66.5710 -66.5701 -66.5700 -66.5699 -66.5699 -66.5685
   -66.5685 -66.5652 -66.5597 -66.5588 -66.5526 -66.5487 -66.5435 -66.5390
   -66.5004 -57.3132 -57.3066 -57.2421 -57.1861 -57.1630 -57.0559 -54.1480
   -54.0510 -53.8261 -40.9131 -40.9130 -40.9129 -40.9128 -40.9128 -40.9128
   -40.9128 -40.9127 -40.9121 -40.9120 -40.9120 -40.9120 -40.9094 -40.8980
   -40.8958 -40.8890 -40.8886 -40.8862 -40.8861 -40.8860 -40.8859 -40.8852
   -40.8852 -40.8741 -40.8740 -40.8739 -40.8739 -40.8731 -40.8731 -40.8679
   -40.8554 -40.8234 -40.8234 -40.8234 -40.8233 -40.8232 -40.8232 -40.8232
   -40.8232 -40.8224 -40.8224 -40.8224 -40.8224 -40.8209 -40.8150 -40.8108
   -40.7959 -40.7909 -40.7853 -40.7820 -40.7710 -40.7646 -40.7646 -40.7644
   -40.7644 -40.7637 -40.7637 -40.7552 -40.7550 -40.7549 -40.7549 -40.7540
   -40.7540 -40.7521 -40.7470 -40.7438 -40.7437 -40.7435 -40.7435 -40.7428
   -40.7428 -40.7390 -40.7265 -40.7235 -40.7199 -40.7172 -40.7143 -40.7143
   -40.7140 -40.7140 -40.7139 -40.7139 -40.7139 -40.7139 -40.7132 -40.7131
   -40.7131 -40.7131 -40.7118 -40.7087 -40.7054 -40.7054 -40.7052 -40.7052
   -40.7044 -40.7044 -40.7021 -40.6962 -40.6937 -40.6935 -40.6934 -40.6934
   -40.6933 -40.6932 -40.6930 -40.6929 -40.6929 -40.6929 -40.6929 -40.6928
   -40.6925 -40.6925 -40.6924 -40.6921 -40.6921 -40.6921 -40.6920 -40.6844
   -40.6844 -40.6842 -40.6842 -40.6838 -40.6834 -40.6834 -40.6811 -40.6775
   -40.6699 -40.6630 -40.6626 -40.6626 -40.6625 -40.6625 -40.6625 -40.6625
   -40.6625 -40.6615 -40.6615 -40.6615 -40.6615 -40.6540 -40.6486 -40.6463
   -40.6435 -40.6327 -40.6280 -40.6280 -40.6279 -40.6278 -40.6278 -40.6278
   -40.6278 -40.6278 -40.6267 -40.6267 -40.6267 -40.6267 -40.6158 -40.6157
   -40.6156 -40.6156 -40.6146 -40.6145 -40.6132 -40.6092 -40.6013 -40.5981
   -40.5966 -40.5963 -40.5963 -40.5963 -40.5953 -40.5952 -40.5875 -40.5854
   -40.5796 -40.5794 -40.5793 -40.5793 -40.5782 -40.5782 -40.5744 -40.5585
   -40.5515 -40.5489 -40.5487 -40.5486 -40.5486 -40.5476 -40.5475 -40.5337
   -40.5227 -40.5189 -20.1615 -19.9166 -19.8627 -19.8484 -19.7673 -19.7486
   -19.6560 -19.6454 -19.5354 -19.5085 -19.4237 -19.4191 -19.3347 -19.3255
   -19.2356 -19.2225 -19.1863 -19.0469 -18.9137 -18.8235 -18.7919 -18.7233
   -18.7220 -18.7156 -18.7133 -18.7077 -18.7032 -18.6737 -18.6658 -18.6498
   -18.6430 -18.6338 -18.6104 -18.6041 -18.5918 -18.5540 -18.5494 -18.5450
   -18.5339 -18.5231 -18.5193 -18.5035 -18.4866 -18.4720 -18.4640 -18.4520
   -18.4089 -18.4038 -18.3994 -18.3948 -18.3706 -18.3482 -18.3457 -18.3324
   -18.3225 -18.2905 -18.2602 -18.2541 -18.2438 -18.2238 -18.2205 -18.1965
   -18.1816 -18.1778 -18.1617 -18.1381 -18.1168 -18.1115 -18.1040 -18.0966
   -18.0909 -18.0898 -18.0884 -18.0822 -18.0661 -18.0638 -18.0625 -18.0609
   -18.0559 -18.0490 -18.0471 -18.0422 -18.0391 -18.0365 -18.0044 -18.0017
   -18.0010 -17.9981 -17.9945 -17.9900 -17.9890 -17.9885 -17.9825 -17.9746
   -17.9487 -17.9412 -17.9355 -17.9284 -17.9272 -17.9246 -17.8908 -17.8876
   -17.8818 -17.8759 -17.8642 -17.8465 -17.8386 -17.8358 -17.8323 -17.8302
   -17.8115 -17.8113 -17.8109 -17.8100 -17.8099 -17.8092 -17.7975 -17.7960
   -17.7789 -17.7754 -17.7542 -17.7508 -17.7354 -17.7309 -17.7197 -17.7172
   -17.7111 -17.7108 -12.1917 -12.0721 -11.8720 -11.7428 -11.7051 -11.6943
   -11.6608 -11.6307 -11.5559 -11.5099 -11.4951 -11.4907 -11.4886 -11.4874
   -11.4616 -11.4451 -11.4145 -11.4056 -11.3854 -11.3797 -11.3765 -11.3612
   -11.3376 -11.3278 -11.3155 -11.2989 -11.2827 -11.2731 -11.2662 -11.2645
   -11.2553 -11.2506 -11.2468 -11.2413 -11.2051 -11.1997 -11.1961 -11.1897
   -11.1856 -11.1722 -11.1617 -11.1598 -11.1534 -11.1401 -11.1386 -11.1338
   -11.1268 -11.1152 -11.0959 -11.0884 -11.0758 -11.0505 -11.0437 -11.0190
   -10.9715 -10.9610 -10.9557 -10.9264 -10.9171 -10.9135 -10.9101 -10.9008
   -10.8787 -10.8464 -10.8366 -10.8256 -10.8176 -10.8164 -10.8127 -10.8104
   -10.8037 -10.8031 -10.8028 -10.8016 -10.7971 -10.7891 -10.7851 -10.7841
   -10.7796 -10.7771 -10.7753 -10.7744 -10.7468 -10.7363 -10.7353 -10.7348
   -10.7305 -10.7117 -10.6806 -10.5724 -10.5417 -10.5273 -10.5229 -10.5047
   -10.4686 -10.4480 -10.4140 -10.3683 -10.2901 -10.2600 -10.2413 -10.2139
   -10.1589 -10.1313 -10.1266 -10.1111 -10.1024 -10.0923 -10.0820 -10.0694
   -10.0457 -10.0304 -10.0294 -10.0281 -10.0188 -10.0128 -10.0068  -9.9990
    -9.9768  -9.9440  -9.9327  -9.9283  -9.9249  -9.9009  -9.8917  -9.8830
    -9.8814  -9.8760  -9.8552  -9.8415  -9.8267  -9.8181  -9.7978  -9.7884
    -9.7834  -9.7745  -9.7611  -9.7547  -9.7144  -9.7012  -9.6899  -9.6720
    -9.6658  -9.6570  -9.6560  -9.6458  -9.6267  -9.6107  -9.5998  -9.5965
    -9.5746  -9.5592  -9.5563  -9.5379  -9.5321  -9.5288  -9.5191  -9.4859
    -9.4852  -9.4810  -9.4732  -9.4696  -9.4570  -9.4538  -9.4532  -9.4491
    -9.4382  -9.4311  -9.4213  -9.4046  -9.3939  -9.3609  -9.3524  -9.2891
    -9.2717  -9.2551  -9.2505  -9.2350  -9.2186  -9.2074  -9.1974  -9.1817
    -9.1696  -9.1648  -9.1536  -9.1229  -9.1211  -9.1160  -9.0998  -9.0869
    -9.0812  -9.0680  -9.0498  -9.0439  -9.0375  -9.0325  -9.0063  -8.9981
    -8.9918  -8.9828  -8.9682  -8.9577  -8.9432  -8.9399  -8.9344  -8.9319
    -8.8969  -8.8892  -8.8858  -8.8838  -8.8829  -8.8802  -8.8760  -8.8738
    -8.8691  -8.8629  -8.8610  -8.8599  -8.8593  -8.8525  -8.8490  -8.8478
    -8.8387  -8.8316  -8.8314  -8.8112  -8.8020  -8.7884  -8.7850  -8.7847
    -8.7788  -8.7767  -8.7748  -8.7592  -8.7545  -8.7539  -8.7355  -8.7244
    -8.7243  -8.7217  -8.7061  -8.7014  -8.6569  -8.6490  -8.6451  -8.6158
    -8.5827  -8.5001  -8.4952  -8.4899  -8.4568  -8.4384  -8.4332  -8.4321
    -8.3920  -8.3499  -8.3447  -8.2913  -8.2306  -8.2198  -8.1608  -8.1315
    -8.1191  -8.1189  -8.1102  -8.1099  -8.0988  -8.0987  -8.0831  -8.0577
    -8.0464  -8.0051  -7.9789  -7.9694  -7.9615  -7.9593  -7.9283  -7.8922
    -7.8656  -7.8585  -7.8435  -7.8327  -7.8306  -7.8239  -7.8157  -7.8121
    -7.8066  -7.7986  -7.7977  -7.7910  -7.7895  -7.7875  -7.7845  -7.7762
    -7.7741  -7.7724  -7.7706  -7.7610  -7.7601  -7.7582  -7.7562  -7.7552
    -7.7550  -7.7499  -7.7496  -7.7366  -7.7332  -7.7244  -7.7227  -7.7219
    -7.7156  -7.6931  -7.6895  -7.6882  -7.6878  -7.6839  -7.6622  -7.6589
    -7.6570  -7.6567  -7.6535  -7.6471  -7.6419  -7.6377  -7.6268  -7.6051
    -7.6025  -7.6001  -7.5995  -7.5984  -7.5940  -7.5772  -7.5768  -7.5717
    -7.5620  -7.5559  -7.5556  -7.5497  -7.5485  -7.5393  -7.5102  -7.4809
    -7.4551  -7.4528  -7.4498  -7.4382  -7.4182  -7.3919  -7.3533  -7.2997
    -7.2510  -7.1997  -7.1751  -7.1666  -7.1627  -7.1589  -7.1538  -7.1306
    -7.1200  -7.1069  -7.1013  -7.0930  -7.0827  -7.0696  -7.0586  -7.0347
    -7.0185  -7.0140  -7.0106  -6.9943  -6.9679  -6.9676  -6.9621  -6.9410
    -6.9236  -6.9076  -6.9058  -6.8790  -6.8764  -6.8724  -6.8516  -6.8510
    -6.8439  -6.8239  -6.7981  -6.7852  -6.7662  -6.7568  -6.7403  -6.7314
    -6.6954  -6.6838  -6.6780  -6.6515  -6.6193  -6.6130  -6.6037  -6.5986
    -6.5964  -6.5958  -6.5931  -6.5839  -6.5791  -6.5789  -6.5774  -6.5740
    -6.5704  -6.5703  -6.5700  -6.5696  -6.5547  -6.5443  -6.5117  -6.4842
    -6.4489  -6.4121  -6.4095  -6.3378  -6.3242  -6.3142  -6.3131  -6.3066
    -6.3042  -6.2961  -6.2823  -6.2712  -6.2691  -6.2663  -6.2638  -6.2634
    -6.2518  -6.2478  -6.2429  -6.2410  -6.2294  -6.2035  -6.1979  -6.1961
    -6.1928  -6.1817  -6.1649  -6.1083  -6.0699  -6.0191  -5.9848  -5.9755
    -5.9513  -5.9272  -5.9052  -5.8915  -5.8502  -5.8409  -5.8266  -5.7938
    -5.7514  -5.6921  -5.6584  -5.6211  -5.5907  -5.5589  -5.5037  -5.4104
    -5.2908  -4.2780  -4.2570  -4.0980  -4.0877  -4.0745  -4.0388  -3.9380
    -3.9318  -3.9258  -3.9016  -3.8984  -3.8368  -3.8323  -3.8232  -3.8183
    -3.8129  -3.8046  -3.8028  -3.7911  -3.7898  -3.7794  -3.7191  -3.7050
    -3.6895  -3.6870  -3.6081  -3.6044  -3.5935  -3.5919  -3.5882  -3.5739
    -3.5440  -3.5429  -3.5411  -3.5267  -3.5153  -3.5123  -3.5079  -3.5060
    -3.4972  -3.4839  -3.4788  -3.4734  -3.4665  -3.4661  -3.4648  -3.4606
    -3.4394  -3.4386  -3.4316  -3.4288  -3.4147  -3.4103  -3.3967  -3.3930
    -3.3789  -3.3481  -3.3424  -3.3396  -3.3376  -3.3334  -3.3302  -3.3268
    -3.3164  -3.3042  -3.2957  -3.2861  -3.2827  -3.2742  -3.2717  -3.2686
    -3.2651  -3.2639  -3.2612  -3.2459  -3.2448  -3.2310  -3.2291  -3.2274
    -3.2206  -3.2052  -3.2023  -3.1994  -3.1984  -3.1849  -3.1818  -3.1742
    -3.1739  -3.1678  -3.1572  -3.1517  -3.1516  -3.1492  -3.1246  -3.1183
    -3.1029  -3.0944  -3.0852  -3.0667  -3.0611  -3.0551  -3.0500  -3.0267
    -3.0169  -3.0147  -3.0134  -3.0113  -3.0109  -3.0077  -3.0049  -3.0026
    -2.9995  -2.9973  -2.9899  -2.9831  -2.9813  -2.9772  -2.9738  -2.9706
    -2.9664  -2.9653  -2.9579  -2.9486  -2.9452  -2.9393  -2.9383  -2.9366
    -2.9337  -2.9253  -2.9205  -2.9152  -2.8992  -2.8948  -2.8925  -2.8838
    -2.8799  -2.8771  -2.8693  -2.8596  -2.8491  -2.8025  -2.7903  -2.7883
    -2.7829  -2.7661  -2.7268  -2.7174  -2.6986  -2.6774  -2.6315  -2.6038
    -2.5994  -2.5871  -2.5644  -2.5623  -2.5476  -2.5352  -2.5249  -2.5202
    -2.5182  -2.5159  -2.5085  -2.4953  -2.4764  -2.4365  -2.4254  -2.4029
    -2.3887  -2.3876  -2.3838  -2.3813  -2.3735  -2.3706  -2.3335  -2.3327

          k =-0.5000-0.2887 0.0000 (386352 PWs)   bands (ev):

  -103.0293-102.9591 -88.2231 -71.3617 -71.3520 -71.3418 -71.3246 -71.3151
   -71.3042 -71.2976 -71.2907 -71.2899 -71.2748 -71.2496 -71.2438 -71.2304
   -71.2269 -66.6191 -66.6110 -66.6109 -66.6108 -66.6108 -66.6094 -66.6094
   -66.6025 -66.6004 -66.6003 -66.6001 -66.6001 -66.6000 -66.5988 -66.5988
   -66.5942 -66.5909 -66.5853 -66.5852 -66.5852 -66.5851 -66.5850 -66.5850
   -66.5850 -66.5850 -66.5836 -66.5836 -66.5836 -66.5836 -66.5826 -66.5808
   -66.5807 -66.5806 -66.5806 -66.5792 -66.5792 -66.5746 -66.5745 -66.5745
   -66.5744 -66.5744 -66.5743 -66.5743 -66.5743 -66.5740 -66.5729 -66.5729
   -66.5729 -66.5729 -66.5702 -66.5701 -66.5700 -66.5699 -66.5699 -66.5685
   -66.5685 -66.5639 -66.5609 -66.5598 -66.5524 -66.5483 -66.5442 -66.5386
   -66.5004 -57.3132 -57.3066 -57.2421 -57.1861 -57.1630 -57.0559 -54.1480
   -54.0510 -53.8261 -40.9152 -40.9148 -40.9131 -40.9129 -40.9129 -40.9129
   -40.9128 -40.9128 -40.9127 -40.9127 -40.9121 -40.9120 -40.9120 -40.9120
   -40.8894 -40.8862 -40.8861 -40.8860 -40.8859 -40.8852 -40.8852 -40.8746
   -40.8741 -40.8740 -40.8739 -40.8739 -40.8731 -40.8731 -40.8726 -40.8637
   -40.8472 -40.8427 -40.8234 -40.8234 -40.8233 -40.8233 -40.8232 -40.8232
   -40.8232 -40.8232 -40.8224 -40.8224 -40.8224 -40.8224 -40.8116 -40.8078
   -40.8040 -40.7960 -40.7944 -40.7855 -40.7746 -40.7647 -40.7645 -40.7644
   -40.7643 -40.7637 -40.7637 -40.7552 -40.7551 -40.7549 -40.7549 -40.7540
   -40.7540 -40.7499 -40.7438 -40.7437 -40.7435 -40.7435 -40.7428 -40.7428
   -40.7419 -40.7355 -40.7302 -40.7235 -40.7181 -40.7148 -40.7142 -40.7142
   -40.7141 -40.7141 -40.7139 -40.7139 -40.7139 -40.7139 -40.7131 -40.7131
   -40.7131 -40.7131 -40.7107 -40.7064 -40.7055 -40.7053 -40.7052 -40.7051
   -40.7044 -40.7044 -40.7025 -40.7001 -40.6937 -40.6936 -40.6934 -40.6934
   -40.6933 -40.6931 -40.6930 -40.6929 -40.6929 -40.6929 -40.6928 -40.6928
   -40.6925 -40.6925 -40.6921 -40.6921 -40.6921 -40.6921 -40.6913 -40.6844
   -40.6844 -40.6842 -40.6842 -40.6841 -40.6834 -40.6834 -40.6795 -40.6726
   -40.6694 -40.6628 -40.6627 -40.6627 -40.6625 -40.6625 -40.6625 -40.6625
   -40.6624 -40.6615 -40.6615 -40.6615 -40.6615 -40.6539 -40.6500 -40.6464
   -40.6352 -40.6280 -40.6280 -40.6279 -40.6279 -40.6278 -40.6278 -40.6278
   -40.6277 -40.6273 -40.6267 -40.6267 -40.6267 -40.6267 -40.6158 -40.6158
   -40.6157 -40.6156 -40.6156 -40.6146 -40.6146 -40.6037 -40.5995 -40.5987
   -40.5976 -40.5966 -40.5964 -40.5963 -40.5963 -40.5953 -40.5952 -40.5796
   -40.5795 -40.5794 -40.5793 -40.5793 -40.5782 -40.5782 -40.5753 -40.5657
   -40.5531 -40.5488 -40.5488 -40.5487 -40.5486 -40.5476 -40.5475 -40.5472
   -40.5287 -40.5019 -20.1674 -19.9001 -19.8624 -19.8416 -19.7668 -19.7445
   -19.6574 -19.6446 -19.5824 -19.5059 -19.4251 -19.4185 -19.3352 -19.3245
   -19.2318 -19.2220 -19.1848 -18.9955 -18.8693 -18.8634 -18.8057 -18.7827
   -18.7167 -18.7156 -18.7131 -18.7124 -18.7021 -18.6891 -18.6517 -18.6480
   -18.6423 -18.6405 -18.5988 -18.5823 -18.5701 -18.5540 -18.5490 -18.5427
   -18.5402 -18.5257 -18.5144 -18.4849 -18.4791 -18.4735 -18.4623 -18.4493
   -18.4323 -18.4048 -18.4034 -18.3976 -18.3802 -18.3636 -18.3528 -18.3245
   -18.3196 -18.2961 -18.2739 -18.2647 -18.2430 -18.2314 -18.2130 -18.1936
   -18.1814 -18.1710 -18.1514 -18.1341 -18.1253 -18.1159 -18.0987 -18.0945
   -18.0907 -18.0905 -18.0845 -18.0697 -18.0684 -18.0650 -18.0630 -18.0573
   -18.0563 -18.0530 -18.0458 -18.0444 -18.0372 -18.0288 -18.0033 -18.0025
   -17.9987 -17.9958 -17.9928 -17.9915 -17.9903 -17.9862 -17.9807 -17.9754
   -17.9432 -17.9411 -17.9348 -17.9284 -17.9235 -17.9199 -17.8969 -17.8847
   -17.8819 -17.8736 -17.8696 -17.8553 -17.8385 -17.8369 -17.8344 -17.8330
   -17.8115 -17.8110 -17.8110 -17.8101 -17.8100 -17.8095 -17.7985 -17.7955
   -17.7802 -17.7745 -17.7553 -17.7502 -17.7364 -17.7302 -17.7201 -17.7168
   -17.7111 -17.7107 -12.2068 -12.0613 -11.9049 -11.7229 -11.6972 -11.6680
   -11.6594 -11.6023 -11.5287 -11.5174 -11.5002 -11.4909 -11.4891 -11.4776
   -11.4675 -11.4561 -11.4294 -11.4137 -11.3871 -11.3859 -11.3750 -11.3534
   -11.3484 -11.3402 -11.3209 -11.3030 -11.2902 -11.2762 -11.2685 -11.2650
   -11.2558 -11.2503 -11.2493 -11.2470 -11.2265 -11.2014 -11.1966 -11.1932
   -11.1834 -11.1676 -11.1646 -11.1614 -11.1566 -11.1409 -11.1376 -11.1358
   -11.1253 -11.1025 -11.0818 -11.0688 -11.0563 -11.0394 -11.0258 -11.0132
   -10.9711 -10.9616 -10.9449 -10.9354 -10.9284 -10.9139 -10.9004 -10.8822
   -10.8775 -10.8730 -10.8327 -10.8304 -10.8287 -10.8267 -10.8174 -10.8060
   -10.8032 -10.8024 -10.8021 -10.8015 -10.7972 -10.7906 -10.7870 -10.7842
   -10.7833 -10.7766 -10.7754 -10.7731 -10.7703 -10.7361 -10.7352 -10.7346
   -10.7341 -10.6911 -10.6669 -10.6025 -10.5397 -10.5272 -10.5212 -10.5144
   -10.4694 -10.4573 -10.3885 -10.3730 -10.2815 -10.2624 -10.2378 -10.2064
   -10.1819 -10.1457 -10.1203 -10.1151 -10.1086 -10.1013 -10.0731 -10.0626
   -10.0530 -10.0393 -10.0301 -10.0280 -10.0171 -10.0159 -10.0081  -9.9998
    -9.9650  -9.9449  -9.9346  -9.9159  -9.9133  -9.9078  -9.8994  -9.8870
    -9.8843  -9.8725  -9.8678  -9.8562  -9.8369  -9.8224  -9.7929  -9.7894
    -9.7783  -9.7710  -9.7477  -9.7383  -9.7328  -9.7243  -9.7048  -9.6962
    -9.6752  -9.6571  -9.6478  -9.6300  -9.6210  -9.6151  -9.5939  -9.5870
    -9.5683  -9.5627  -9.5580  -9.5427  -9.5368  -9.5188  -9.4960  -9.4883
    -9.4838  -9.4821  -9.4677  -9.4663  -9.4594  -9.4551  -9.4519  -9.4493
    -9.4314  -9.4219  -9.3955  -9.3899  -9.3782  -9.3507  -9.3412  -9.3244
    -9.2755  -9.2476  -9.2346  -9.2260  -9.2170  -9.2053  -9.1987  -9.1922
    -9.1764  -9.1560  -9.1471  -9.1330  -9.1222  -9.1079  -9.0980  -9.0910
    -9.0747  -9.0692  -9.0638  -9.0481  -9.0393  -9.0328  -9.0200  -9.0153
    -8.9906  -8.9689  -8.9640  -8.9557  -8.9477  -8.9435  -8.9355  -8.9291
    -8.9129  -8.9072  -8.8888  -8.8847  -8.8805  -8.8802  -8.8784  -8.8736
    -8.8689  -8.8609  -8.8605  -8.8549  -8.8537  -8.8496  -8.8435  -8.8375
    -8.8318  -8.8312  -8.8281  -8.8209  -8.7980  -8.7855  -8.7850  -8.7833
    -8.7799  -8.7771  -8.7652  -8.7555  -8.7541  -8.7413  -8.7253  -8.7249
    -8.7237  -8.7187  -8.7068  -8.7053  -8.6773  -8.6525  -8.6463  -8.6330
    -8.5493  -8.5286  -8.4987  -8.4930  -8.4787  -8.4370  -8.4290  -8.3924
    -8.3490  -8.3425  -8.3086  -8.2955  -8.2707  -8.2242  -8.1907  -8.1326
    -8.1191  -8.1189  -8.1103  -8.1099  -8.0990  -8.0987  -8.0883  -8.0653
    -8.0632  -8.0530  -7.9995  -7.9666  -7.9603  -7.9534  -7.9268  -7.8777
    -7.8587  -7.8465  -7.8406  -7.8311  -7.8288  -7.8206  -7.8154  -7.8068
    -7.8054  -7.7981  -7.7951  -7.7903  -7.7873  -7.7827  -7.7786  -7.7737
    -7.7731  -7.7674  -7.7621  -7.7603  -7.7589  -7.7567  -7.7560  -7.7552
    -7.7538  -7.7497  -7.7496  -7.7447  -7.7356  -7.7251  -7.7236  -7.7226
    -7.7166  -7.7134  -7.6894  -7.6889  -7.6879  -7.6872  -7.6827  -7.6585
    -7.6577  -7.6572  -7.6561  -7.6484  -7.6428  -7.6312  -7.6276  -7.6071
    -7.6002  -7.5996  -7.5983  -7.5940  -7.5876  -7.5775  -7.5773  -7.5661
    -7.5582  -7.5558  -7.5553  -7.5520  -7.5481  -7.5418  -7.5092  -7.4634
    -7.4608  -7.4533  -7.4501  -7.4430  -7.4264  -7.4006  -7.3758  -7.2882
    -7.2548  -7.2254  -7.1841  -7.1625  -7.1600  -7.1580  -7.1523  -7.1183
    -7.1069  -7.1054  -7.0940  -7.0862  -7.0792  -7.0644  -7.0345  -7.0280
    -7.0170  -7.0117  -6.9983  -6.9925  -6.9709  -6.9669  -6.9529  -6.9345
    -6.9258  -6.9108  -6.9043  -6.8963  -6.8777  -6.8646  -6.8570  -6.8505
    -6.8474  -6.8311  -6.8259  -6.7979  -6.7773  -6.7583  -6.7464  -6.7297
    -6.6883  -6.6773  -6.6673  -6.6358  -6.6217  -6.6104  -6.6054  -6.5976
    -6.5974  -6.5958  -6.5933  -6.5801  -6.5798  -6.5786  -6.5783  -6.5711
    -6.5705  -6.5704  -6.5702  -6.5678  -6.5430  -6.5327  -6.4954  -6.4731
    -6.4322  -6.4111  -6.3990  -6.3608  -6.3418  -6.3180  -6.3170  -6.3090
    -6.3068  -6.3033  -6.2887  -6.2809  -6.2692  -6.2687  -6.2639  -6.2635
    -6.2576  -6.2504  -6.2470  -6.2400  -6.2163  -6.2140  -6.2004  -6.1967
    -6.1937  -6.1880  -6.1703  -6.1295  -6.0903  -5.9912  -5.9854  -5.9791
    -5.9477  -5.9255  -5.8958  -5.8796  -5.8537  -5.8380  -5.8360  -5.7873
    -5.7558  -5.7055  -5.6464  -5.6145  -5.5839  -5.5548  -5.4882  -5.4195
    -5.2874  -4.3336  -4.2322  -4.0919  -4.0868  -4.0599  -4.0444  -3.9342
    -3.9276  -3.9216  -3.9109  -3.8650  -3.8494  -3.8328  -3.8311  -3.8183
    -3.8171  -3.8031  -3.8016  -3.7897  -3.7893  -3.7687  -3.7325  -3.7004
    -3.6917  -3.6590  -3.6292  -3.6128  -3.5958  -3.5930  -3.5896  -3.5750
    -3.5505  -3.5456  -3.5418  -3.5267  -3.5215  -3.5159  -3.5102  -3.5016
    -3.4987  -3.4855  -3.4793  -3.4745  -3.4699  -3.4669  -3.4612  -3.4568
    -3.4505  -3.4398  -3.4389  -3.4232  -3.4215  -3.4107  -3.4067  -3.3883
    -3.3838  -3.3493  -3.3443  -3.3418  -3.3362  -3.3342  -3.3300  -3.3279
    -3.3243  -3.2977  -3.2939  -3.2836  -3.2751  -3.2702  -3.2696  -3.2694
    -3.2669  -3.2613  -3.2560  -3.2425  -3.2347  -3.2296  -3.2242  -3.2220
    -3.2151  -3.2059  -3.2028  -3.1981  -3.1962  -3.1813  -3.1809  -3.1774
    -3.1697  -3.1626  -3.1587  -3.1517  -3.1516  -3.1487  -3.1408  -3.1271
    -3.0921  -3.0839  -3.0777  -3.0726  -3.0649  -3.0535  -3.0493  -3.0291
    -3.0199  -3.0161  -3.0123  -3.0112  -3.0104  -3.0077  -3.0070  -3.0023
    -2.9997  -2.9949  -2.9914  -2.9836  -2.9821  -2.9793  -2.9748  -2.9714
    -2.9674  -2.9647  -2.9617  -2.9575  -2.9529  -2.9415  -2.9371  -2.9351
    -2.9315  -2.9241  -2.9210  -2.9135  -2.9004  -2.8966  -2.8901  -2.8845
    -2.8808  -2.8707  -2.8657  -2.8643  -2.8426  -2.7993  -2.7939  -2.7836
    -2.7770  -2.7477  -2.7382  -2.7237  -2.7142  -2.6615  -2.6244  -2.6024
    -2.5884  -2.5836  -2.5808  -2.5660  -2.5489  -2.5366  -2.5316  -2.5236
    -2.5222  -2.5162  -2.5139  -2.4887  -2.4789  -2.4600  -2.4053  -2.3890
    -2.3856  -2.3833  -2.3812  -2.3728  -2.3714  -2.3466  -2.3330  -2.3313

          k =-0.5000-0.8660 0.0000 (386352 PWs)   bands (ev):

  -103.0293-102.9591 -88.2231 -71.3617 -71.3519 -71.3418 -71.3246 -71.3151
   -71.3042 -71.2976 -71.2907 -71.2899 -71.2748 -71.2496 -71.2438 -71.2304
   -71.2269 -66.6190 -66.6110 -66.6109 -66.6108 -66.6108 -66.6094 -66.6094
   -66.6027 -66.6010 -66.6004 -66.6003 -66.6001 -66.6001 -66.5988 -66.5988
   -66.5933 -66.5905 -66.5853 -66.5853 -66.5852 -66.5850 -66.5850 -66.5850
   -66.5850 -66.5850 -66.5836 -66.5836 -66.5836 -66.5836 -66.5821 -66.5808
   -66.5807 -66.5806 -66.5806 -66.5792 -66.5792 -66.5746 -66.5745 -66.5745
   -66.5745 -66.5743 -66.5743 -66.5743 -66.5743 -66.5743 -66.5730 -66.5730
   -66.5729 -66.5729 -66.5710 -66.5701 -66.5700 -66.5699 -66.5699 -66.5685
   -66.5685 -66.5641 -66.5612 -66.5590 -66.5515 -66.5493 -66.5435 -66.5390
   -66.5004 -57.3132 -57.3066 -57.2421 -57.1861 -57.1630 -57.0559 -54.1480
   -54.0510 -53.8261 -40.9131 -40.9129 -40.9129 -40.9129 -40.9128 -40.9128
   -40.9128 -40.9127 -40.9121 -40.9121 -40.9120 -40.9120 -40.9119 -40.9100
   -40.8929 -40.8862 -40.8861 -40.8860 -40.8859 -40.8852 -40.8852 -40.8817
   -40.8790 -40.8741 -40.8741 -40.8739 -40.8739 -40.8731 -40.8731 -40.8686
   -40.8418 -40.8383 -40.8234 -40.8234 -40.8233 -40.8233 -40.8232 -40.8232
   -40.8232 -40.8232 -40.8224 -40.8224 -40.8224 -40.8224 -40.8111 -40.8069
   -40.8011 -40.7950 -40.7895 -40.7838 -40.7750 -40.7647 -40.7645 -40.7644
   -40.7644 -40.7637 -40.7637 -40.7552 -40.7550 -40.7549 -40.7549 -40.7540
   -40.7540 -40.7525 -40.7438 -40.7437 -40.7435 -40.7435 -40.7428 -40.7428
   -40.7408 -40.7313 -40.7300 -40.7275 -40.7188 -40.7175 -40.7146 -40.7143
   -40.7142 -40.7140 -40.7140 -40.7139 -40.7139 -40.7139 -40.7139 -40.7132
   -40.7131 -40.7131 -40.7131 -40.7055 -40.7053 -40.7052 -40.7052 -40.7044
   -40.7044 -40.7040 -40.7027 -40.6951 -40.6937 -40.6935 -40.6934 -40.6934
   -40.6934 -40.6933 -40.6932 -40.6930 -40.6929 -40.6929 -40.6929 -40.6928
   -40.6928 -40.6925 -40.6925 -40.6921 -40.6921 -40.6921 -40.6920 -40.6848
   -40.6844 -40.6844 -40.6842 -40.6842 -40.6834 -40.6834 -40.6794 -40.6761
   -40.6722 -40.6628 -40.6627 -40.6627 -40.6625 -40.6625 -40.6625 -40.6625
   -40.6625 -40.6615 -40.6615 -40.6615 -40.6615 -40.6542 -40.6481 -40.6464
   -40.6404 -40.6280 -40.6280 -40.6279 -40.6279 -40.6278 -40.6278 -40.6278
   -40.6278 -40.6267 -40.6267 -40.6267 -40.6267 -40.6257 -40.6158 -40.6157
   -40.6156 -40.6156 -40.6146 -40.6146 -40.6114 -40.6083 -40.6013 -40.6004
   -40.5966 -40.5964 -40.5963 -40.5963 -40.5962 -40.5953 -40.5952 -40.5795
   -40.5795 -40.5794 -40.5793 -40.5793 -40.5782 -40.5782 -40.5743 -40.5642
   -40.5488 -40.5488 -40.5486 -40.5486 -40.5476 -40.5475 -40.5471 -40.5417
   -40.5296 -40.5080 -20.1704 -19.8943 -19.8623 -19.8375 -19.7661 -19.7414
   -19.6560 -19.6435 -19.5853 -19.5295 -19.4249 -19.4215 -19.3352 -19.3285
   -19.2305 -19.2239 -19.1445 -19.0127 -18.8841 -18.8628 -18.7931 -18.7733
   -18.7166 -18.7161 -18.7132 -18.7123 -18.7041 -18.6885 -18.6527 -18.6487
   -18.6415 -18.6395 -18.6000 -18.5851 -18.5739 -18.5571 -18.5483 -18.5425
   -18.5413 -18.5231 -18.5152 -18.4916 -18.4808 -18.4737 -18.4620 -18.4542
   -18.4311 -18.4052 -18.4022 -18.3969 -18.3777 -18.3564 -18.3552 -18.3249
   -18.3183 -18.2952 -18.2740 -18.2605 -18.2428 -18.2318 -18.2141 -18.1884
   -18.1815 -18.1727 -18.1510 -18.1333 -18.1259 -18.1140 -18.1027 -18.0939
   -18.0909 -18.0900 -18.0873 -18.0699 -18.0672 -18.0647 -18.0612 -18.0578
   -18.0567 -18.0522 -18.0466 -18.0446 -18.0379 -18.0277 -18.0041 -18.0021
   -17.9991 -17.9957 -17.9928 -17.9918 -17.9901 -17.9863 -17.9812 -17.9743
   -17.9468 -17.9408 -17.9342 -17.9286 -17.9239 -17.9191 -17.8959 -17.8857
   -17.8843 -17.8731 -17.8689 -17.8539 -17.8399 -17.8377 -17.8340 -17.8320
   -17.8118 -17.8114 -17.8112 -17.8102 -17.8097 -17.8092 -17.7990 -17.7962
   -17.7803 -17.7756 -17.7547 -17.7507 -17.7353 -17.7301 -17.7196 -17.7161
   -17.7111 -17.7106 -12.2141 -12.0677 -11.8723 -11.7641 -11.7119 -11.6719
   -11.6349 -11.5825 -11.5420 -11.4992 -11.4971 -11.4927 -11.4844 -11.4761
   -11.4695 -11.4544 -11.4327 -11.4067 -11.3902 -11.3857 -11.3791 -11.3552
   -11.3438 -11.3382 -11.3182 -11.2973 -11.2941 -11.2793 -11.2690 -11.2639
   -11.2562 -11.2534 -11.2470 -11.2447 -11.2205 -11.2028 -11.1962 -11.1924
   -11.1837 -11.1726 -11.1646 -11.1616 -11.1569 -11.1408 -11.1393 -11.1353
   -11.1240 -11.1107 -11.0899 -11.0764 -11.0615 -11.0386 -11.0288 -10.9991
   -10.9836 -10.9657 -10.9411 -10.9269 -10.9166 -10.9098 -10.9021 -10.8931
   -10.8726 -10.8529 -10.8309 -10.8298 -10.8283 -10.8238 -10.8080 -10.8054
   -10.8044 -10.8025 -10.8007 -10.7997 -10.7984 -10.7914 -10.7864 -10.7843
   -10.7804 -10.7777 -10.7758 -10.7724 -10.7640 -10.7366 -10.7355 -10.7345
   -10.7339 -10.6923 -10.6700 -10.6320 -10.5466 -10.5291 -10.5234 -10.5154
   -10.4820 -10.4585 -10.3993 -10.3814 -10.2867 -10.2678 -10.2445 -10.2166
   -10.1730 -10.1345 -10.1202 -10.1141 -10.1086 -10.0978 -10.0784 -10.0681
   -10.0507 -10.0370 -10.0305 -10.0285 -10.0212 -10.0152 -10.0079 -10.0004
    -9.9638  -9.9423  -9.9284  -9.9201  -9.9159  -9.9092  -9.9019  -9.8892
    -9.8837  -9.8743  -9.8614  -9.8524  -9.8364  -9.8214  -9.7945  -9.7863
    -9.7764  -9.7688  -9.7516  -9.7404  -9.7354  -9.7130  -9.6993  -9.6920
    -9.6646  -9.6586  -9.6383  -9.6299  -9.6217  -9.6125  -9.5986  -9.5753
    -9.5699  -9.5600  -9.5592  -9.5435  -9.5351  -9.5189  -9.4926  -9.4853
    -9.4840  -9.4827  -9.4741  -9.4621  -9.4589  -9.4555  -9.4510  -9.4491
    -9.4324  -9.4226  -9.3949  -9.3850  -9.3779  -9.3591  -9.3389  -9.3280
    -9.2889  -9.2451  -9.2359  -9.2272  -9.2170  -9.2079  -9.1998  -9.1981
    -9.1682  -9.1578  -9.1475  -9.1323  -9.1244  -9.1048  -9.0997  -9.0977
    -9.0678  -9.0633  -9.0571  -9.0466  -9.0389  -9.0375  -9.0176  -9.0107
    -8.9842  -8.9710  -8.9644  -8.9532  -8.9431  -8.9403  -8.9371  -8.9185
    -8.9174  -8.9102  -8.8922  -8.8837  -8.8824  -8.8797  -8.8789  -8.8740
    -8.8687  -8.8655  -8.8604  -8.8593  -8.8523  -8.8485  -8.8431  -8.8379
    -8.8320  -8.8311  -8.8292  -8.8210  -8.7940  -8.7858  -8.7857  -8.7826
    -8.7774  -8.7761  -8.7617  -8.7556  -8.7513  -8.7493  -8.7317  -8.7255
    -8.7245  -8.7202  -8.7129  -8.7064  -8.6818  -8.6521  -8.6457  -8.6260
    -8.5686  -8.5150  -8.4970  -8.4934  -8.4633  -8.4362  -8.4262  -8.3934
    -8.3531  -8.3414  -8.3211  -8.2877  -8.2469  -8.2313  -8.2004  -8.1763
    -8.1192  -8.1191  -8.1107  -8.1102  -8.0993  -8.0988  -8.0843  -8.0661
    -8.0580  -8.0248  -7.9819  -7.9683  -7.9618  -7.9600  -7.9253  -7.8976
    -7.8607  -7.8423  -7.8386  -7.8328  -7.8274  -7.8200  -7.8155  -7.8074
    -7.8063  -7.7974  -7.7948  -7.7903  -7.7872  -7.7833  -7.7796  -7.7772
    -7.7733  -7.7723  -7.7646  -7.7621  -7.7602  -7.7575  -7.7570  -7.7561
    -7.7551  -7.7531  -7.7495  -7.7493  -7.7305  -7.7288  -7.7245  -7.7224
    -7.7163  -7.7050  -7.6901  -7.6884  -7.6879  -7.6875  -7.6783  -7.6605
    -7.6579  -7.6568  -7.6564  -7.6546  -7.6446  -7.6402  -7.6099  -7.6016
    -7.5998  -7.5975  -7.5947  -7.5935  -7.5893  -7.5791  -7.5772  -7.5757
    -7.5567  -7.5558  -7.5551  -7.5538  -7.5467  -7.5398  -7.4942  -7.4638
    -7.4591  -7.4518  -7.4473  -7.4347  -7.4243  -7.4186  -7.3840  -7.3158
    -7.2692  -7.2326  -7.1718  -7.1624  -7.1587  -7.1571  -7.1452  -7.1281
    -7.1149  -7.1063  -7.0986  -7.0866  -7.0752  -7.0618  -7.0413  -7.0300
    -7.0176  -7.0091  -6.9990  -6.9952  -6.9737  -6.9679  -6.9528  -6.9286
    -6.9120  -6.9068  -6.9017  -6.8887  -6.8759  -6.8629  -6.8516  -6.8470
    -6.8359  -6.8326  -6.8109  -6.7960  -6.7680  -6.7483  -6.7264  -6.6972
    -6.6854  -6.6773  -6.6393  -6.6381  -6.6203  -6.6095  -6.6059  -6.5975
    -6.5970  -6.5954  -6.5935  -6.5821  -6.5796  -6.5794  -6.5780  -6.5774
[...]
     atom  172 type  2   force =    -0.00000001    0.00000050    0.00161528
     atom  173 type  2   force =    -0.00000012    0.00000002   -0.00235998
     atom  174 type  2   force =    -0.00000750   -0.00000046   -0.00000338
     atom  175 type  1   force =    -0.00000983    0.00001875   -0.00001714
     atom  176 type  1   force =     0.00000143    0.00016780    0.00042740
     atom  177 type  2   force =     0.00039885    0.00014860    0.00005663
     atom  178 type  2   force =    -0.00001877    0.00001068   -0.00004497
     atom  179 type  2   force =    -0.00001550    0.00001614   -0.00001079
     atom  180 type  2   force =    -0.00025244    0.00000387    0.00033547
     atom  181 type  1   force =     0.00000175   -0.00000027    0.00068823
     atom  182 type  1   force =    -0.00001515   -0.00000989    0.00000089
     atom  183 type  2   force =    -0.00000106   -0.00000131    0.00000461
     atom  184 type  2   force =     0.00000002    0.00000057    0.00161536
     atom  185 type  2   force =    -0.00000025    0.00000010   -0.00236013
     atom  186 type  2   force =    -0.00000649    0.00000106   -0.00000155
     atom  187 type  1   force =    -0.00002577    0.00000111   -0.00001982
     atom  188 type  1   force =    -0.00008749    0.00005589    0.00015507
     atom  189 type  2   force =    -0.00013773    0.00035199    0.00024523
     atom  190 type  2   force =    -0.00000394    0.00001570   -0.00001648
     atom  191 type  2   force =    -0.00001164   -0.00000280   -0.00001017
     atom  192 type  2   force =    -0.00037194    0.00021961   -0.00002882
     atom  193 type  3   force =     0.00036785   -0.00020952    0.00016111
     atom  194 type  4   force =     0.00035268    0.00031068    0.00059895
     atom  195 type  3   force =     0.00060583   -0.00000354    0.00017362

     Total force =     0.002744     Total SCF correction =     0.000568
     SCF correction compared to forces is large: reduce conv_thr to get better values
     Energy error            =      2.3E-05 Ry
     Gradient error          =      6.1E-04 Ry/Bohr

     bfgs converged in  67 scf cycles and  61 bfgs steps
     (criteria: energy <  1.0E-04 Ry, force <  1.0E-03 Ry/Bohr)

     End of BFGS Geometry Optimization

     Final energy             =  -35654.9458746536 Ry

     File ./outdir/pwscf.bfgs deleted, as requested
Begin final coordinates

ATOMIC_POSITIONS (angstrom)
Mo               0.0000119917        1.8193638619       -9.1672481230    0   0   0
Mo               1.5756136568        0.9097075315       -3.0554901653    0   0   0
S                0.0000188998        1.8193822938       -4.6232556019    0   0   0
S                1.5756321638        0.9096773839       -7.6014065489    0   0   0
S                1.5756326175        0.9096785128      -10.7330757790    0   0   0
S                0.0000189190        1.8193860094       -1.4877129945    0   0   0
Mo              -0.0009420130        1.8195292350        3.0569407381
Mo               1.5631921749        0.9182819893        9.2112461712
S                0.0019818043        1.7883148717        7.6166146913
S                1.5746596157        0.9095448160        4.6241142202
S                1.5744761948        0.9103561785        1.4884961302
S               -0.1634683961        1.8993803230       10.7870292947
Mo              -1.5756053507        4.5484193819       -9.1672481230    0   0   0
Mo               0.0000378379        3.6387394919       -3.0554952701    0   0   0
S               -1.5755913433        4.5484363582       -4.6232494962    0   0   0
S                0.0000148214        3.6387329039       -7.6014065489    0   0   0
S                0.0000152751        3.6387340328      -10.7330757790    0   0   0
S               -1.5755906502        4.5484413613       -1.4877305502    0   0   0
Mo              -1.5764530143        4.5488362686        3.0574365473
Mo              -0.0472721095        3.6390241780        9.1207431368
S               -1.6063185281        4.5706148268        7.5653041573
S               -0.0008759740        3.6386118621        4.6257545103
S               -0.0009491155        3.6391528247        1.4896668846
S               -1.5977404309        4.5562994725       10.7157756303
Mo              -3.1512226931        7.2774749019       -9.1672481230    0   0   0
Mo              -1.5755910988        6.3678216792       -3.0555115988    0   0   0
S               -3.1512162438        7.2774954350       -4.6232578178    0   0   0
S               -1.5756025210        6.3677884239       -7.6014065489    0   0   0
S               -1.5756020673        6.3677895528      -10.7330757790    0   0   0
S               -3.1512127704        7.2774877076       -1.4877200710    0   0   0
Mo              -3.1522945293        7.2780783539        3.0567341616
Mo              -1.6014765182        6.3732540112        9.1640093546
S               -3.1632277263        7.2925937516        7.5897340708
S               -1.5760761399        6.3691607929        4.6243956359
S               -1.5765437655        6.3678643827        1.4891618276
S               -3.1712836278        7.2679627987       10.7368065910
Mo              -4.7268400355       10.0065304219       -9.1672481230    0   0   0
Mo              -3.1512405618        9.0968403586       -3.0554816746    0   0   0
S               -4.7268341792       10.0065523623       -4.6232463762    0   0   0
S               -3.1512198634        9.0968439439       -7.6014065489    0   0   0
S               -3.1512194097        9.0968450728      -10.7330757790    0   0   0
S               -4.7268370797       10.0065537885       -1.4877176751    0   0   0
Mo              -4.7279751633       10.0070662853        3.0558332187
Mo              -3.1527080546        9.0942739178        9.1798481028
S               -4.7376422606       10.0337533513        7.6492785212
S               -3.1530779471        9.0977245318        4.6243108846
S               -3.1519689008        9.0971249033        1.4886795030
S               -4.7327622401        9.9063577964       10.8246639529
Mo               3.1512517547        1.8193638619       -9.1672481230    0   0   0
Mo               4.7269020221        0.9097289540       -3.0554823951    0   0   0
S                3.1512612351        1.8193882564       -4.6232320683    0   0   0
S                4.7268719268        0.9096773839       -7.6014065489    0   0   0
S                4.7268723805        0.9096785128      -10.7330757790    0   0   0
S                3.1512592485        1.8193890201       -1.4877261251    0   0   0
Mo               3.1500400206        1.8195062039        3.0565577677
Mo               4.7413463374        0.8999909592        9.1517030562
S                3.1266564300        1.7963440348        7.6202711023
S                4.7256994768        0.9099195005        4.6244591084
S                4.7257917037        0.9097260427        1.4889112695
S                3.2822379687        1.8631900055       10.7784008025
Mo               1.5756344123        4.5484193819       -9.1672481230    0   0   0
Mo               3.1512756394        3.6387769522       -3.0554814834    0   0   0
S                1.5756504879        4.5484423799       -4.6232390542    0   0   0
S                3.1512545844        3.6387329039       -7.6014065489    0   0   0
S                3.1512550381        3.6387340328      -10.7330757790    0   0   0
S                1.5756466253        4.5484431864       -1.4877251801    0   0   0
Mo               1.5745751990        4.5486564845        3.0576139582
Mo               3.1799798745        3.6329210508        9.1554247096
S                1.5804783830        4.5697094879        7.6182511150
S                3.1501207952        3.6384449604        4.6251213841
S                3.1499092751        3.6391597145        1.4892618871
S                1.5636593324        4.3900508052       10.7113876404
Mo               0.0000170699        7.2774749019       -9.1672481230    0   0   0
Mo               1.5756764447        6.3678236689       -3.0554877708    0   0   0
S                0.0000381981        7.2774979204       -4.6232454413    0   0   0
S                1.5756372420        6.3677884239       -7.6014065489    0   0   0
S                1.5756376957        6.3677895528      -10.7330757790    0   0   0
S                0.0000328088        7.2774946042       -1.4877307940    0   0   0
Mo              -0.0006535272        7.2777590833        3.0564042650
Mo               1.5687010938        6.3717006991        9.2020741288
S                0.0090458293        7.2747989348        7.6308865885
S                1.5746068462        6.3684141150        4.6250567182
S                1.5746602177        6.3673995939        1.4889365635
S               -0.0957047517        7.3268186625       10.7954304326
Mo              -1.5756002725       10.0065304219       -9.1672481230    0   0   0
Mo               0.0000873425        9.0968676911       -3.0554912329    0   0   0
S               -1.5755883952       10.0065504530       -4.6232240150    0   0   0
S                0.0000198996        9.0968439439       -7.6014065489    0   0   0
S                0.0000203533        9.0968450728      -10.7330757790    0   0   0
S               -1.5755859047       10.0065492576       -1.4877362381    0   0   0
Mo              -1.5766260315       10.0066342703        3.0569274645
Mo              -0.0126058965        9.1100347353        9.1724282397
S               -1.5848739940        9.9949803574        7.5900228895
S               -0.0006945746        9.0966975380        4.6245338763
S               -0.0010422442        9.0970170307        1.4887519071
S               -1.5825606654       10.0183901472       10.7380622197
Mo               6.3024915177        1.8193638619       -9.1672481230    0   0   0
Mo               7.8781001445        0.9096521684       -3.0554919963    0   0   0
S                6.3025008696        1.8193826232       -4.6232480596    0   0   0
S                7.8781116898        0.9096773839       -7.6014065489    0   0   0
S                7.8781121435        0.9096785128      -10.7330757790    0   0   0
S                6.3025042007        1.8193849068       -1.4877147524    0   0   0
Mo               6.3014300289        1.8194288419        3.0563394838
Mo               7.8664220809        0.9161982191        9.1470664028
S                6.2959213839        1.8240243938        7.5742930140
S                7.8769670011        0.9093166294        4.6238951625
S                7.8771278596        0.9096565303        1.4885554547
S                6.3096375791        1.8272050966       10.7199355773
Mo               4.7268741753        4.5484193819       -9.1672481230    0   0   0
Mo               6.3024679138        3.6387501714       -3.0554895197    0   0   0
S                4.7268748770        4.5484386753       -4.6232519432    0   0   0
S                6.3024943474        3.6387329039       -7.6014065489    0   0   0
S                6.3024948011        3.6387340328      -10.7330757790    0   0   0
S                4.7268770533        4.5484432419       -1.4877137856    0   0   0
Mo               4.7254496440        4.5488414762        3.0569425216
Mo               6.2966771692        3.6442219905        9.1499965773
S                4.7287582643        4.5658565620        7.5795048602
S                6.3013021777        3.6389787555        4.6235303214
S                6.3011118663        3.6391191260        1.4887680770
S                4.7342291100        4.5545264727       10.7279675878
Mo               3.1512568329        7.2774749019       -9.1672481230    0   0   0
Mo               4.7268384135        6.3678043337       -3.0554959052    0   0   0
S                3.1512606125        7.2774972547       -4.6232589675    0   0   0
S                4.7268770050        6.3677884239       -7.6014065489    0   0   0
S                4.7268774587        6.3677895528      -10.7330757790    0   0   0
S                3.1512629079        7.2774963749       -1.4877081835    0   0   0
Mo               3.1499465605        7.2776280924        3.0564052463
Mo               4.7263605595        6.3728314163        9.1751445842
S                3.1245025401        7.2790411862        7.6389176867
S                4.7250968691        6.3687239739        4.6245110913
S                4.7257787233        6.3679712160        1.4888933124
S                3.2190319916        7.3242421894       10.8127142506
Mo               1.5756394905       10.0065304219       -9.1672481230    0   0   0
Mo               3.1512330605        9.0968514907       -3.0554878870    0   0   0
S                1.5756499830       10.0065443759       -4.6232632674    0   0   0
S                3.1512596626        9.0968439439       -7.6014065489    0   0   0
S                3.1512601163        9.0968450728      -10.7330757790    0   0   0
S                1.5756503041       10.0065459699       -1.4877044377    0   0   0
Mo               1.5746593492       10.0064215409        3.0564253814
Mo               3.1450635541        9.1095539963        9.1847661384
S                1.5705257525       10.0005562345        7.5970275431
S                3.1500152125        9.0965826820        4.6244760271
S                3.1504298590        9.0969391927        1.4887466383
S                1.5616197725       10.0241201810       10.7337221399
Mo               9.4537312807        1.8193638619       -9.1672481230    0   0   0
Mo              11.0293863460        0.9096952246       -3.0554894007    0   0   0
S                9.4537395970        1.8193770750       -4.6232328036    0   0   0
S               11.0293514528        0.9096773839       -7.6014065489    0   0   0
S               11.0293519066        0.9096785128      -10.7330757790    0   0   0
S                9.4537393632        1.8193794783       -1.4877366147    0   0   0
Mo               9.4526097451        1.8193345603        3.0562949031
Mo              10.9948445941        0.8979920818        9.1605614129
S                9.4410290522        1.8197443899        7.5751087703
S               11.0280766670        0.9096819331        4.6244544142
S               11.0285962952        0.9098011301        1.4889529685
S                9.4195795678        1.8283517710       10.7192798546
Mo               7.8781139383        4.5484193819       -9.1672481230    0   0   0
Mo               9.4537539161        3.6387607911       -3.0554933032    0   0   0
S                7.8781175448        4.5484378232       -4.6232366318    0   0   0
S                9.4537341104        3.6387329039       -7.6014065489    0   0   0
S                9.4537345641        3.6387340328      -10.7330757790    0   0   0
S                7.8781194018        4.5484411585       -1.4877377057    0   0   0
Mo               7.8768802915        4.5489451120        3.0561621594
Mo               9.4379685021        3.6447554391        9.1447989719
S                7.8647760441        4.5580391235        7.5790758408
S                9.4520509805        3.6387273382        4.6234553964
S                9.4531154319        3.6392131663        1.4889719648
S                7.8695431792        4.5503152807       10.7182784738
Mo               6.3024965959        7.2774749019       -9.1672481230    0   0   0
Mo               7.8781361655        6.3678242352       -3.0555014130    0   0   0
S                6.3024973331        7.2774953556       -4.6232392528    0   0   0
S                7.8781167680        6.3677884239       -7.6014065489    0   0   0
S                7.8781172217        6.3677895528      -10.7330757790    0   0   0
S                6.3024989866        7.2774929744       -1.4877349119    0   0   0
Mo               6.3012226362        7.2780491613        3.0567274580
Mo               7.8669489841        6.3735833814        9.1551644830
S                6.2866545506        7.2923206560        7.5977328342
S                7.8767795914        6.3683902268        4.6241509066
S                7.8770426407        6.3684022366        1.4888208791
S                6.3030601978        7.2667821750       10.7416096657
Mo               4.7268792535       10.0065304219       -9.1672481230    0   0   0
Mo               6.3025111524        9.0968738021       -3.0554915260    0   0   0
S                4.7268840634       10.0065452125       -4.6232380477    0   0   0
S                6.3024994256        9.0968439439       -7.6014065489    0   0   0
S                6.3024998793        9.0968450728      -10.7330757790    0   0   0
S                4.7268847312       10.0065459141       -1.4877283294    0   0   0
Mo               4.7258582141       10.0065901017        3.0568430497
Mo               6.2852534674        9.0957566461        9.1865519380
S                4.7156259674        9.9940490423        7.6000041514
S                6.3019877825        9.0976494825        4.6245084935
S                6.3012354930        9.0970895211        1.4886285536
S                4.7186241344       10.0205980353       10.7492852300
Pt               1.5389800887        6.1800775542       12.0352492267
Pd               0.6492453477        3.5861956324       12.6363557799
Pt               1.5261708439        1.0112953057       12.0022404788
End final coordinates



     Writing all to output data dir ./outdir/pwscf.save/ :
     XML data file, charge density, pseudopotentials, collected wavefunctions
 
     init_run     :    177.45s CPU    181.09s WALL (       1 calls)
     electrons    :  52228.21s CPU  52833.18s WALL (       5 calls)
     update_pot   :      7.71s CPU      8.01s WALL (       4 calls)
     forces       :    667.74s CPU    679.06s WALL (       5 calls)
     force_dftd3  :      3.40s CPU      3.58s WALL (       5 calls)

     Called by init_run:
     wfcinit      :    152.98s CPU    154.83s WALL (       1 calls)
     potinit      :      1.76s CPU      1.93s WALL (       1 calls)
     hinit0       :     13.16s CPU     13.43s WALL (       1 calls)

     Called by electrons:
     c_bands      :  47490.02s CPU  47924.11s WALL (      65 calls)
     sum_band     :   4228.63s CPU   4321.19s WALL (      65 calls)
     v_of_rho     :     23.52s CPU     26.78s WALL (      66 calls)
     newd         :    416.10s CPU    492.61s WALL (      66 calls)
     PAW_pot      :     80.36s CPU     81.11s WALL (      70 calls)
     mix_rho      :      6.61s CPU      7.48s WALL (      65 calls)
     energy_dftd3 :      2.01s CPU      2.02s WALL (       5 calls)

     Called by c_bands:
     init_us_2    :    139.93s CPU    140.78s WALL (     560 calls)
     init_us_2:cp :    139.92s CPU    140.78s WALL (     560 calls)
     cegterg      :  46901.14s CPU  47330.16s WALL (     292 calls)

     Called by *egterg:
     cdiaghg      :   2646.90s CPU   2739.06s WALL (    3938 calls)
     h_psi        :  23064.63s CPU  23211.71s WALL (    4000 calls)
     s_psi        :   5098.48s CPU   5131.24s WALL (    4000 calls)
     g_psi        :     44.92s CPU     45.09s WALL (    3704 calls)

     Called by h_psi:
     h_psi:calbec :   5344.66s CPU   5365.12s WALL (    4000 calls)
     vloc_psi     :  12521.62s CPU  12587.47s WALL (    4000 calls)
     add_vuspsi   :   5103.21s CPU   5136.63s WALL (    4000 calls)

     General routines
     calbec       :   7140.61s CPU   7167.64s WALL (    4356 calls)
     fft          :     27.21s CPU     29.84s WALL (     911 calls)
     ffts         :      1.20s CPU      1.27s WALL (     131 calls)
     fftw         :   9110.59s CPU   9157.17s WALL ( 2373870 calls)
     interpolate  :      2.05s CPU      2.25s WALL (      66 calls)
 
     Parallel routines
 
     PWSCF        :     14h47m CPU     14h59m WALL

 
   This run was terminated on:   9:52:14  24Apr2024            

=------------------------------------------------------------------------------=
   JOB DONE.
=------------------------------------------------------------------------------=
