
     Program PWSCF v.7.3 starts on 12Apr2024 at  0:30:58 

     This program is part of the open-source Quantum ESPRESSO suite
     for quantum simulation of materials; please cite
         "P. Giannozzi et al., J. Phys.:Condens. Matter 21 395502 (2009);
         "P. Giannozzi et al., J. Phys.:Condens. Matter 29 465901 (2017);
         "P. Giannozzi et al., J. Chem. Phys. 152 154105 (2020);
          URL http://www.quantum-espresso.org", 
     in publications or presentations arising from this work. More details at
     http://www.quantum-espresso.org/quote

     Parallel version (MPI & OpenMP), running on      36 processor cores
     Number of MPI processes:                36
     Threads/MPI process:                     1

     MPI processes distributed on     1 nodes
     550187 MiB available memory on the printing compute node when the environment starts
 
     Waiting for input...
     Reading input from standard input
Warning: card &CELL ignored
Warning: card / ignored

     Current dimensions of program PWSCF are:
     Max number of different atomic species (ntypx) = 10
     Max number of k-points (npk) =  40000
     Max angular momentum in pseudopotentials (lmaxx) =  4
     file Mo.pbe-spn-kjpaw_psl.1.0.0.UPF: wavefunction(s)  4S 4D renormalized
     file S.pbe-n-kjpaw_psl.1.0.0.UPF: wavefunction(s)  3S 3P renormalized
     file Pt.pbe-spfn-kjpaw_psl.1.0.0.UPF: wavefunction(s)  5P 4F renormalized
     file Pd.pbe-spn-kjpaw_psl.1.0.0.UPF: wavefunction(s)  4S 5S 4D renormalized
 
     R & G space division:  proc/nbgrp/npool/nimage =      36
     Subspace diagonalization in iterative solution of the eigenvalue problem:
     one sub-group per band group will be used
     scalapack distributed-memory algorithm (size of sub-group:  6*  6 procs)

 
     Parallelization info
     --------------------
     sticks:   dense  smooth     PW     G-vecs:    dense   smooth      PW
     Min         585     334     89               198743    85850   11735
     Max         586     335     90               198750    85861   11748
     Sum       21073   12049   3205              7154885  3090769  422587
 
     Using Slab Decomposition
 


     bravais-lattice index     =            0
     lattice parameter (alat)  =      23.8199  a.u.
     unit-cell volume          =   33861.0370 (a.u.)^3
     number of atoms/cell      =          195
     number of atomic types    =            4
     number of electrons       =      1746.00
     number of Kohn-Sham states=         1048
     kinetic-energy cutoff     =      77.0000  Ry
     charge density cutoff     =     539.0000  Ry
     scf convergence threshold =      1.0E-06
     mixing beta               =       0.2000
     number of iterations used =            8  plain     mixing
     energy convergence thresh.=      1.0E-04
     force convergence thresh. =      1.0E-03
     Exchange-correlation= SLA  PW   PBX  PBC
                           (   1   4   3   4   0   0   0)
     nstep                     =         1000


     Effective Screening Medium Method
     =================================
     Boundary Conditions: Vacuum-Slab-Vacuum
     total charge in unit cell        =   0.0000
     grid points for fit at edges     =        4 
 

     celldm(1)=  23.819920  celldm(2)=   0.000000  celldm(3)=   0.000000
     celldm(4)=   0.000000  celldm(5)=   0.000000  celldm(6)=   0.000000

     crystal axes: (cart. coord. in units of alat)
               a(1) = (   1.000000   0.000000   0.000000 )  
               a(2) = (  -0.499999   0.866026   0.000000 )  
               a(3) = (   0.000000   0.000000   2.893000 )  

     reciprocal axes: (cart. coord. in units 2 pi/alat)
               b(1) = (  1.000000  0.577349  0.000000 )  
               b(2) = (  0.000000  1.154700  0.000000 )  
               b(3) = (  0.000000  0.000000  0.345662 )  


     PseudoPot. # 1 for Mo read from file:
     ./pseudo/Mo.pbe-spn-kjpaw_psl.1.0.0.UPF
     MD5 check sum: 317bf72632116215fd98f72de1686f13
     Pseudo is Projector augmented-wave + core cor, Zval = 14.0
     Generated using 'atomic' code by A. Dal Corso  v.7.2
     Shape of augmentation charge: PSQ
     Using radial grid of 1229 points,  6 beta functions with: 
                l(1) =   0
                l(2) =   0
                l(3) =   1
                l(4) =   1
                l(5) =   2
                l(6) =   2
     Q(r) pseudized with 0 coefficients 


     PseudoPot. # 2 for S  read from file:
     ./pseudo/S.pbe-n-kjpaw_psl.1.0.0.UPF
     MD5 check sum: 8b7b5302570d38d5e87fed6a1065abda
     Pseudo is Projector augmented-wave + core cor, Zval =  6.0
     Generated using 'atomic' code by A. Dal Corso  v.7.2
     Shape of augmentation charge: PSQ
     Using radial grid of 1151 points,  6 beta functions with: 
                l(1) =   0
                l(2) =   0
                l(3) =   1
                l(4) =   1
                l(5) =   2
                l(6) =   2
     Q(r) pseudized with 0 coefficients 


     PseudoPot. # 3 for Pt read from file:
     ./pseudo/Pt.pbe-spfn-kjpaw_psl.1.0.0.UPF
     MD5 check sum: 620096ebf4e6ebacc94de60fd67efcb5
     Pseudo is Projector augmented-wave + core cor, Zval = 32.0
     Generated using 'atomic' code by A. Dal Corso  v.7.2
     Shape of augmentation charge: PSQ
     Using radial grid of 1277 points,  8 beta functions with: 
                l(1) =   0
                l(2) =   0
                l(3) =   1
                l(4) =   1
                l(5) =   2
                l(6) =   2
                l(7) =   3
                l(8) =   3
     Q(r) pseudized with 0 coefficients 


     PseudoPot. # 4 for Pd read from file:
     ./pseudo/Pd.pbe-spn-kjpaw_psl.1.0.0.UPF
     MD5 check sum: a60571a671f2502b8a6a4569d20a6edb
     Pseudo is Projector augmented-wave + core cor, Zval = 18.0
     Generated using 'atomic' code by A. Dal Corso  v.7.2
     Shape of augmentation charge: PSQ
     Using radial grid of 1235 points,  6 beta functions with: 
                l(1) =   0
                l(2) =   0
                l(3) =   1
                l(4) =   1
                l(5) =   2
                l(6) =   2
     Q(r) pseudized with 0 coefficients 


     atomic species   valence    mass     pseudopotential
     Mo               14.00    95.95000     Mo( 1.00)
     S                 6.00    32.06000     S ( 1.00)
     Pt               32.00   195.08400     Pt( 1.00)
     Pd               18.00   106.42000     Pd( 1.00)

     No symmetry found



   Cartesian axes

     site n.     atom                  positions (alat units)
         1        Mo     tau(   1) = (   0.0000010   0.1443372  -0.7272732  )
         2        Mo     tau(   2) = (   0.1249995   0.0721706  -0.2424038  )
         3        S      tau(   3) = (   0.0000015   0.1443386  -0.3667807  )
         4        S      tau(   4) = (   0.1250010   0.0721682  -0.6030489  )
         5        S      tau(   5) = (   0.1250010   0.0721683  -0.8514963  )
         6        S      tau(   6) = (   0.0000015   0.1443389  -0.1180260  )
         7        Mo     tau(   7) = (   0.0000005   0.1443381   0.2424561  )
         8        Mo     tau(   8) = (   0.1251981   0.0716023   0.7276027  )
         9        S      tau(   9) = (  -0.0003031   0.1454842   0.6052312  )
        10        S      tau(  10) = (   0.1249558   0.0721599   0.3668208  )
        11        S      tau(  11) = (   0.1250088   0.0721517   0.1180857  )
        12        S      tau(  12) = (  -0.0004157   0.1382876   0.8564685  )
        13        Mo     tau(  13) = (  -0.1249989   0.3608437  -0.7272732  )
        14        Mo     tau(  14) = (   0.0000030   0.2886752  -0.2424042  )
        15        S      tau(  15) = (  -0.1249977   0.3608450  -0.3667802  )
        16        S      tau(  16) = (   0.0000012   0.2886747  -0.6030489  )
        17        S      tau(  17) = (   0.0000012   0.2886748  -0.8514963  )
        18        S      tau(  18) = (  -0.1249977   0.3608454  -0.1180274  )
        19        Mo     tau(  19) = (  -0.1249623   0.3608201   0.2425155  )
        20        Mo     tau(  20) = (  -0.0007801   0.2872696   0.7308518  )
        21        S      tau(  21) = (  -0.1240398   0.3604107   0.6055268  )
        22        S      tau(  22) = (   0.0000411   0.2886546   0.3669163  )
        23        S      tau(  23) = (   0.0000035   0.2886726   0.1180964  )
        24        S      tau(  24) = (  -0.1315418   0.3638985   0.8543850  )
        25        Mo     tau(  25) = (  -0.2499987   0.5773502  -0.7272732  )
        26        Mo     tau(  26) = (  -0.1249977   0.5051839  -0.2424055  )
        27        S      tau(  27) = (  -0.2499981   0.5773518  -0.3667809  )
        28        S      tau(  28) = (  -0.1249986   0.5051812  -0.6030489  )
        29        S      tau(  29) = (  -0.1249986   0.5051813  -0.8514963  )
        30        S      tau(  30) = (  -0.2499979   0.5773512  -0.1180266  )
        31        Mo     tau(  31) = (  -0.2499787   0.5773156   0.2425145  )
        32        Mo     tau(  32) = (  -0.1271807   0.5060660   0.7281741  )
        33        S      tau(  33) = (  -0.2502658   0.5775034   0.6017985  )
        34        S      tau(  34) = (  -0.1249543   0.5051367   0.3669386  )
        35        S      tau(  35) = (  -0.1249864   0.5051552   0.1181399  )
        36        S      tau(  36) = (  -0.2525628   0.5785576   0.8514793  )
        37        Mo     tau(  37) = (  -0.3749985   0.7938567  -0.7272732  )
        38        Mo     tau(  38) = (  -0.2500001   0.7216874  -0.2424031  )
        39        S      tau(  39) = (  -0.3749980   0.7938584  -0.3667800  )
        40        S      tau(  40) = (  -0.2499984   0.7216877  -0.6030489  )
        41        S      tau(  41) = (  -0.2499984   0.7216878  -0.8514963  )
        42        S      tau(  42) = (  -0.3749982   0.7938585  -0.1180264  )
        43        Mo     tau(  43) = (  -0.3750043   0.7938372   0.2424536  )
        44        Mo     tau(  44) = (  -0.2503619   0.7218808   0.7263407  )
        45        S      tau(  45) = (  -0.3755748   0.7941519   0.6023691  )
        46        S      tau(  46) = (  -0.2500067   0.7216811   0.3668312  )
        47        S      tau(  47) = (  -0.2499793   0.7216445   0.1181126  )
        48        S      tau(  48) = (  -0.3746959   0.7932047   0.8515893  )
        49        Mo     tau(  49) = (   0.2500010   0.1443372  -0.7272732  )
        50        Mo     tau(  50) = (   0.3750034   0.0721723  -0.2424032  )
        51        S      tau(  51) = (   0.2500017   0.1443391  -0.3667788  )
        52        S      tau(  52) = (   0.3750010   0.0721682  -0.6030489  )
        53        S      tau(  53) = (   0.3750010   0.0721683  -0.8514963  )
        54        S      tau(  54) = (   0.2500016   0.1443391  -0.1180271  )
        55        Mo     tau(  55) = (   0.2500033   0.1443124   0.2424881  )
        56        Mo     tau(  56) = (   0.3752595   0.0716472   0.7255395  )
        57        S      tau(  57) = (   0.2498544   0.1431280   0.6011361  )
        58        S      tau(  58) = (   0.3750516   0.0721435   0.3668117  )
        59        S      tau(  59) = (   0.3750079   0.0721203   0.1180977  )
        60        S      tau(  60) = (   0.2517312   0.1427646   0.8506906  )
        61        Mo     tau(  61) = (   0.1250012   0.3608437  -0.7272732  )
        62        Mo     tau(  62) = (   0.2500029   0.2886782  -0.2424031  )
        63        S      tau(  63) = (   0.1250024   0.3608455  -0.3667794  )
        64        S      tau(  64) = (   0.2500012   0.2886747  -0.6030489  )
        65        S      tau(  65) = (   0.2500012   0.2886748  -0.8514963  )
        66        S      tau(  66) = (   0.1250021   0.3608455  -0.1180270  )
        67        Mo     tau(  67) = (   0.1249995   0.3608273   0.2424838  )
        68        Mo     tau(  68) = (   0.2535704   0.2866116   0.7259154  )
        69        S      tau(  69) = (   0.1241106   0.3617788   0.6079553  )
        70        S      tau(  70) = (   0.2499752   0.2886689   0.3668869  )
        71        S      tau(  71) = (   0.2500098   0.2886475   0.1181123  )
        72        S      tau(  72) = (   0.1336503   0.3523048   0.8541313  )
        73        Mo     tau(  73) = (   0.0000014   0.5773502  -0.7272732  )
        74        Mo     tau(  74) = (   0.1250045   0.5051840  -0.2424036  )
        75        S      tau(  75) = (   0.0000030   0.5773520  -0.3667799  )
        76        S      tau(  76) = (   0.1250014   0.5051812  -0.6030489  )
        77        S      tau(  77) = (   0.1250014   0.5051813  -0.8514963  )
        78        S      tau(  78) = (   0.0000026   0.5773517  -0.1180274  )
        79        Mo     tau(  79) = (   0.0000276   0.5772927   0.2425177  )
        80        Mo     tau(  80) = (   0.1255270   0.5059369   0.7313762  )
        81        S      tau(  81) = (   0.0011816   0.5764663   0.6064450  )
        82        S      tau(  82) = (   0.1250222   0.5051261   0.3669341  )
        83        S      tau(  83) = (   0.1249880   0.5051467   0.1180950  )
        84        S      tau(  84) = (  -0.0088763   0.5830479   0.8565830  )
        85        Mo     tau(  85) = (  -0.1249984   0.7938567  -0.7272732  )
        86        Mo     tau(  86) = (   0.0000069   0.7216896  -0.2424039  )
        87        S      tau(  87) = (  -0.1249975   0.7938582  -0.3667782  )
        88        S      tau(  88) = (   0.0000016   0.7216877  -0.6030489  )
        89        S      tau(  89) = (   0.0000016   0.7216878  -0.8514963  )
        90        S      tau(  90) = (  -0.1249973   0.7938582  -0.1180279  )
        91        Mo     tau(  91) = (  -0.1249699   0.7938095   0.2424907  )
        92        Mo     tau(  92) = (  -0.0004895   0.7231014   0.7275053  )
        93        S      tau(  93) = (  -0.1248847   0.7932555   0.6014963  )
        94        S      tau(  94) = (   0.0000405   0.7216116   0.3668908  )
        95        S      tau(  95) = (   0.0000242   0.7216332   0.1181249  )
        96        S      tau(  96) = (  -0.1259194   0.7949777   0.8510667  )
        97        Mo     tau(  97) = (   0.5000010   0.1443372  -0.7272732  )
        98        Mo     tau(  98) = (   0.6250001   0.0721662  -0.2424040  )
        99        S      tau(  99) = (   0.5000017   0.1443386  -0.3667801  )
       100        S      tau( 100) = (   0.6250010   0.0721682  -0.6030489  )
       101        S      tau( 101) = (   0.6250010   0.0721683  -0.8514963  )
       102        S      tau( 102) = (   0.5000020   0.1443388  -0.1180261  )
       103        Mo     tau( 103) = (   0.5000355   0.1442968   0.2424343  )
       104        Mo     tau( 104) = (   0.6251054   0.0720760   0.7269638  )
       105        S      tau( 105) = (   0.5007812   0.1439212   0.6015111  )
       106        S      tau( 106) = (   0.6250309   0.0721295   0.3668346  )
       107        S      tau( 107) = (   0.6250410   0.0721183   0.1180973  )
       108        S      tau( 108) = (   0.4998652   0.1442971   0.8504179  )
       109        Mo     tau( 109) = (   0.3750012   0.3608437  -0.7272732  )
       110        Mo     tau( 110) = (   0.4999991   0.2886761  -0.2424038  )
       111        S      tau( 111) = (   0.3750012   0.3608452  -0.3667804  )
       112        S      tau( 112) = (   0.5000012   0.2886747  -0.6030489  )
       113        S      tau( 113) = (   0.5000012   0.2886748  -0.8514963  )
       114        S      tau( 114) = (   0.3750014   0.3608455  -0.1180261  )
       115        Mo     tau( 115) = (   0.3749988   0.3608207   0.2424913  )
       116        Mo     tau( 116) = (   0.5005676   0.2886014   0.7258090  )
       117        S      tau( 117) = (   0.3761076   0.3615161   0.6013079  )
       118        S      tau( 118) = (   0.5000282   0.2886169   0.3668001  )
       119        S      tau( 119) = (   0.5000158   0.2886613   0.1180928  )
       120        S      tau( 120) = (   0.3768791   0.3600665   0.8508100  )
       121        Mo     tau( 121) = (   0.2500014   0.5773502  -0.7272732  )
       122        Mo     tau( 122) = (   0.3749983   0.5051825  -0.2424043  )
       123        S      tau( 123) = (   0.2500017   0.5773519  -0.3667810  )
       124        S      tau( 124) = (   0.3750014   0.5051812  -0.6030489  )
       125        S      tau( 125) = (   0.3750014   0.5051813  -0.8514963  )
       126        S      tau( 126) = (   0.2500018   0.5773519  -0.1180256  )
       127        Mo     tau( 127) = (   0.2499755   0.5773110   0.2424609  )
       128        Mo     tau( 128) = (   0.3758691   0.5051374   0.7277779  )
       129        S      tau( 129) = (   0.2483182   0.5768077   0.6062789  )
       130        S      tau( 130) = (   0.3749464   0.5051844   0.3668408  )
       131        S      tau( 131) = (   0.3749944   0.5051486   0.1180923  )
       132        S      tau( 132) = (   0.2574557   0.5818559   0.8585037  )
       133        Mo     tau( 133) = (   0.1250016   0.7938567  -0.7272732  )
       134        Mo     tau( 134) = (   0.2499995   0.7216883  -0.2424036  )
       135        S      tau( 135) = (   0.1250024   0.7938578  -0.3667813  )
       136        S      tau( 136) = (   0.2500016   0.7216877  -0.6030489  )
       137        S      tau( 137) = (   0.2500016   0.7216878  -0.8514963  )
       138        S      tau( 138) = (   0.1250024   0.7938579  -0.1180253  )
       139        Mo     tau( 139) = (   0.1250229   0.7938069   0.2425006  )
       140        Mo     tau( 140) = (   0.2504358   0.7224862   0.7284223  )
       141        S      tau( 141) = (   0.1254429   0.7935457   0.6029055  )
       142        S      tau( 142) = (   0.2500049   0.7216116   0.3668842  )
       143        S      tau( 143) = (   0.2500022   0.7216616   0.1181021  )
       144        S      tau( 144) = (   0.1246626   0.7944127   0.8519137  )
       145        Mo     tau( 145) = (   0.7500010   0.1443372  -0.7272732  )
       146        Mo     tau( 146) = (   0.8750038   0.0721696  -0.2424038  )
       147        S      tau( 147) = (   0.7500016   0.1443382  -0.3667789  )
       148        S      tau( 148) = (   0.8750010   0.0721682  -0.6030489  )
       149        S      tau( 149) = (   0.8750010   0.0721683  -0.8514963  )
       150        S      tau( 150) = (   0.7500016   0.1443384  -0.1180279  )
       151        Mo     tau( 151) = (   0.7500289   0.1443141   0.2424936  )
       152        Mo     tau( 152) = (   0.8748115   0.0715393   0.7280420  )
       153        S      tau( 153) = (   0.7503587   0.1440662   0.6027403  )
       154        S      tau( 154) = (   0.8750369   0.0721618   0.3668742  )
       155        S      tau( 155) = (   0.8750002   0.0721408   0.1181001  )
       156        S      tau( 156) = (   0.7494385   0.1444101   0.8516821  )
       157        Mo     tau( 157) = (   0.6250012   0.3608437  -0.7272732  )
       158        Mo     tau( 158) = (   0.7500028   0.2886769  -0.2424041  )
       159        S      tau( 159) = (   0.6250015   0.3608451  -0.3667792  )
       160        S      tau( 160) = (   0.7500012   0.2886747  -0.6030489  )
       161        S      tau( 161) = (   0.7500012   0.2886748  -0.8514963  )
       162        S      tau( 162) = (   0.6250016   0.3608454  -0.1180280  )
       163        Mo     tau( 163) = (   0.6250302   0.3608127   0.2424760  )
       164        Mo     tau( 164) = (   0.7487590   0.2885376   0.7272130  )
       165        S      tau( 165) = (   0.6254237   0.3608917   0.6015174  )
       166        S      tau( 166) = (   0.7500486   0.2886525   0.3668797  )
       167        S      tau( 167) = (   0.7500385   0.2886557   0.1181169  )
       168        S      tau( 168) = (   0.6239430   0.3610912   0.8510113  )
       169        Mo     tau( 169) = (   0.5000014   0.5773502  -0.7272732  )
       170        Mo     tau( 170) = (   0.6250029   0.5051841  -0.2424047  )
       171        S      tau( 171) = (   0.5000014   0.5773518  -0.3667794  )
       172        S      tau( 172) = (   0.6250014   0.5051812  -0.6030489  )
       173        S      tau( 173) = (   0.6250014   0.5051813  -0.8514963  )
       174        S      tau( 174) = (   0.5000016   0.5773516  -0.1180277  )
       175        Mo     tau( 175) = (   0.4999859   0.5773250   0.2424709  )
       176        Mo     tau( 176) = (   0.6245890   0.5053660   0.7261562  )
       177        S      tau( 177) = (   0.4993068   0.5776651   0.6022414  )
       178        S      tau( 178) = (   0.6249823   0.5051501   0.3668388  )
       179        S      tau( 179) = (   0.6250205   0.5051637   0.1181147  )
       180        S      tau( 180) = (   0.5009766   0.5773609   0.8515797  )
       181        Mo     tau( 181) = (   0.3750016   0.7938567  -0.7272732  )
       182        Mo     tau( 182) = (   0.5000025   0.7216901  -0.2424039  )
       183        S      tau( 183) = (   0.3750019   0.7938578  -0.3667793  )
       184        S      tau( 184) = (   0.5000016   0.7216877  -0.6030489  )
       185        S      tau( 185) = (   0.5000016   0.7216878  -0.8514963  )
       186        S      tau( 186) = (   0.3750020   0.7938579  -0.1180272  )
       187        Mo     tau( 187) = (   0.3749951   0.7938323   0.2424893  )
       188        Mo     tau( 188) = (   0.4998599   0.7217391   0.7271366  )
       189        S      tau( 189) = (   0.3746033   0.7939741   0.6029663  )
       190        S      tau( 190) = (   0.4999946   0.7216688   0.3668260  )
       191        S      tau( 191) = (   0.4999891   0.7216628   0.1180901  )
       192        S      tau( 192) = (   0.3755955   0.7938624   0.8526444  )
       193        Pt     tau( 193) = (   0.1194898   0.4990527   0.9549993  )
       194        Pd     tau( 194) = (   0.0026419   0.2990244   0.9662205  )
       195        Pt     tau( 195) = (   0.0610474   0.3990493   1.1216221  )

     --------------------------------------------
     DFT-D3 Dispersion Correction (3-body terms):
     --------------------------------------------
       Reference C6 values for interpolation: 

         atom   Coordination number   C6
         S          0.000           268.01
         S          0.995           261.99
         S          1.990           251.62
         Mo         0.000          1691.79
         Mo         1.942          1004.01
         Mo        11.056           674.22
         Pd         0.000          1217.01
         Pd         1.863           573.90
         Pd         5.710           531.75
         Pt         0.000           782.29
         Pt         1.919           692.72
         Pt         6.667           673.75

       Values used:

         atom   Coordination number  R0_AB[au]  C6      C8
         Mo        10.208            3.547    674.22  77634.20
         Mo        10.221            3.547    674.22  77634.20
         S          3.858            3.128    251.62  12327.25
         S          3.859            3.128    251.62  12327.25
         S          3.758            3.128    251.62  12327.25
         S          3.859            3.128    251.62  12327.25
         Mo        10.221            3.547    674.22  77634.20
         Mo        10.228            3.547    674.22  77634.20
         S          3.849            3.128    251.62  12327.25
         S          3.859            3.128    251.62  12327.25
         S          3.859            3.128    251.62  12327.25
         S          4.623            3.128    251.62  12327.25
         Mo        10.208            3.547    674.22  77634.20
         Mo        10.221            3.547    674.22  77634.20
         S          3.858            3.128    251.62  12327.25
         S          3.859            3.128    251.62  12327.25
         S          3.758            3.128    251.62  12327.25
         S          3.859            3.128    251.62  12327.25
         Mo        10.222            3.547    674.22  77634.20
         Mo        10.723            3.547    674.22  77634.20
         S          3.862            3.128    251.62  12327.25
         S          3.850            3.128    251.62  12327.25
         S          3.859            3.128    251.62  12327.25
         S          4.674            3.128    251.62  12327.25
         Mo        10.208            3.547    674.21  77634.20
         Mo        10.221            3.547    674.22  77634.20
         S          3.858            3.128    251.62  12327.25
         S          3.859            3.128    251.62  12327.25
         S          3.758            3.128    251.62  12327.25
         S          3.859            3.128    251.62  12327.25
         Mo        10.220            3.547    674.22  77634.20
         Mo        10.171            3.547    674.22  77634.20
         S          3.842            3.128    251.62  12327.25
         S          3.853            3.128    251.62  12327.25
         S          3.859            3.128    251.62  12327.25
         S          3.843            3.128    251.62  12327.25
         Mo        10.208            3.547    674.22  77634.20
         Mo        10.220            3.547    674.22  77634.20
         S          3.858            3.128    251.62  12327.25
         S          3.859            3.128    251.62  12327.25
         S          3.758            3.128    251.62  12327.25
         S          3.859            3.128    251.62  12327.25
         Mo        10.220            3.547    674.22  77634.20
         Mo        10.260            3.547    674.22  77634.20
         S          3.856            3.128    251.62  12327.25
         S          3.861            3.128    251.62  12327.25
         S          3.859            3.128    251.62  12327.25
         S          3.808            3.128    251.62  12327.25
         Mo        10.208            3.547    674.22  77634.20
         Mo        10.221            3.547    674.22  77634.20
         S          3.858            3.128    251.62  12327.25
         S          3.859            3.128    251.62  12327.25
         S          3.758            3.128    251.62  12327.25
         S          3.859            3.128    251.62  12327.25
         Mo        10.220            3.547    674.22  77634.20
         Mo        10.278            3.547    674.22  77634.20
         S          3.837            3.128    251.62  12327.25
         S          3.863            3.128    251.62  12327.25
         S          3.859            3.128    251.62  12327.25
         S          3.842            3.128    251.62  12327.25
         Mo        10.208            3.547    674.21  77634.20
         Mo        10.221            3.547    674.22  77634.20
         S          3.858            3.128    251.62  12327.25
         S          3.859            3.128    251.62  12327.25
         S          3.758            3.128    251.62  12327.25
         S          3.859            3.128    251.62  12327.25
         Mo        10.222            3.547    674.22  77634.20
         Mo        10.178            3.547    674.22  77634.20
         S          3.873            3.128    251.62  12327.25
         S          3.855            3.128    251.62  12327.25
         S          3.859            3.128    251.62  12327.25
         S          5.685            3.128    251.62  12327.25
         Mo        10.208            3.547    674.22  77634.20
         Mo        10.221            3.547    674.22  77634.20
         S          3.858            3.128    251.62  12327.25
         S          3.859            3.128    251.62  12327.25
         S          3.758            3.128    251.62  12327.25
         S          3.859            3.128    251.62  12327.25
         Mo        10.222            3.547    674.22  77634.20
         Mo        10.869            3.547    674.22  77634.20
         S          3.860            3.128    251.62  12327.25
         S          3.850            3.128    251.62  12327.25
         S          3.859            3.128    251.62  12327.25
         S          4.679            3.128    251.62  12327.25
         Mo        10.208            3.547    674.22  77634.20
         Mo        10.221            3.547    674.22  77634.20
         S          3.858            3.128    251.62  12327.25
         S          3.859            3.128    251.62  12327.25
         S          3.758            3.128    251.62  12327.25
         S          3.859            3.128    251.62  12327.25
         Mo        10.220            3.547    674.22  77634.20
         Mo        10.214            3.547    674.22  77634.20
         S          3.850            3.128    251.62  12327.25
         S          3.856            3.128    251.62  12327.25
         S          3.859            3.128    251.62  12327.25
         S          3.827            3.128    251.62  12327.25
         Mo        10.208            3.547    674.22  77634.20
         Mo        10.221            3.547    674.22  77634.20
         S          3.858            3.128    251.62  12327.25
         S          3.859            3.128    251.62  12327.25
         S          3.758            3.128    251.62  12327.25
         S          3.859            3.128    251.62  12327.25
         Mo        10.220            3.547    674.22  77634.20
         Mo        10.250            3.547    674.22  77634.20
         S          3.856            3.128    251.62  12327.25
         S          3.861            3.128    251.62  12327.25
         S          3.859            3.128    251.62  12327.25
         S          3.790            3.128    251.62  12327.25
         Mo        10.208            3.547    674.22  77634.20
         Mo        10.221            3.547    674.22  77634.20
         S          3.858            3.128    251.62  12327.25
         S          3.859            3.128    251.62  12327.25
         S          3.758            3.128    251.62  12327.25
         S          3.859            3.128    251.62  12327.25
         Mo        10.220            3.547    674.22  77634.20
         Mo        10.277            3.547    674.22  77634.20
         S          3.839            3.128    251.62  12327.25
         S          3.863            3.128    251.62  12327.25
         S          3.859            3.128    251.62  12327.25
         S          3.819            3.128    251.62  12327.25
         Mo        10.208            3.547    674.22  77634.20
         Mo        10.221            3.547    674.21  77634.20
         S          3.858            3.128    251.62  12327.25
         S          3.859            3.128    251.62  12327.25
         S          3.758            3.128    251.62  12327.25
         S          3.859            3.128    251.62  12327.25
         Mo        10.222            3.547    674.22  77634.20
         Mo        10.220            3.547    674.22  77634.20
         S          3.851            3.128    251.62  12327.25
         S          3.858            3.128    251.62  12327.25
         S          3.859            3.128    251.62  12327.25
         S          4.644            3.128    251.62  12327.25
         Mo        10.208            3.547    674.22  77634.20
         Mo        10.221            3.547    674.22  77634.20
         S          3.858            3.128    251.62  12327.25
         S          3.859            3.128    251.62  12327.25
         S          3.758            3.128    251.62  12327.25
         S          3.859            3.128    251.62  12327.25
         Mo        10.221            3.547    674.22  77634.20
         Mo        10.226            3.547    674.22  77634.20
         S          3.863            3.128    251.62  12327.25
         S          3.856            3.128    251.62  12327.25
         S          3.859            3.128    251.62  12327.25
         S          3.764            3.128    251.62  12327.25
         Mo        10.208            3.547    674.22  77634.20
         Mo        10.221            3.547    674.22  77634.20
         S          3.858            3.128    251.62  12327.25
         S          3.859            3.128    251.62  12327.25
         S          3.758            3.128    251.62  12327.25
         S          3.859            3.128    251.62  12327.25
         Mo        10.221            3.547    674.22  77634.20
         Mo        10.241            3.547    674.22  77634.20
         S          3.864            3.128    251.62  12327.25
         S          3.857            3.128    251.62  12327.25
         S          3.859            3.128    251.62  12327.25
         S          3.767            3.128    251.62  12327.25
         Mo        10.208            3.547    674.22  77634.20
         Mo        10.220            3.547    674.22  77634.20
         S          3.858            3.128    251.62  12327.25
         S          3.859            3.128    251.62  12327.25
         S          3.758            3.128    251.62  12327.25
         S          3.859            3.128    251.62  12327.25
         Mo        10.220            3.547    674.22  77634.20
         Mo        10.226            3.547    674.22  77634.20
         S          3.854            3.128    251.62  12327.25
         S          3.857            3.128    251.62  12327.25
         S          3.859            3.128    251.62  12327.25
         S          3.809            3.128    251.62  12327.25
         Mo        10.208            3.547    674.22  77634.20
         Mo        10.221            3.547    674.22  77634.20
         S          3.858            3.128    251.62  12327.25
         S          3.859            3.128    251.62  12327.25
         S          3.758            3.128    251.62  12327.25
         S          3.859            3.128    251.62  12327.25
         Mo        10.220            3.547    674.22  77634.20
         Mo        10.267            3.547    674.22  77634.20
         S          3.853            3.128    251.62  12327.25
         S          3.861            3.128    251.62  12327.25
         S          3.859            3.128    251.62  12327.25
         S          3.821            3.128    251.62  12327.25
         Mo        10.208            3.547    674.22  77634.20
         Mo        10.221            3.547    674.22  77634.20
         S          3.858            3.128    251.62  12327.25
         S          3.859            3.128    251.62  12327.25
         S          3.758            3.128    251.62  12327.25
         S          3.859            3.128    251.62  12327.25
         Mo        10.221            3.547    674.22  77634.20
         Mo        10.250            3.547    674.22  77634.20
         S          3.853            3.128    251.62  12327.25
         S          3.860            3.128    251.62  12327.25
         S          3.859            3.128    251.62  12327.25
         S          3.823            3.128    251.62  12327.25
         Pt         5.396            3.168    673.75  70061.90
         Pd         5.075            3.168    531.75  48720.73
         Pt         1.970            3.168    692.72  72035.25

         Molecular C6 ( Ry / a.u.^6 ) =  14174368.08


     number of k points=     4  Gaussian smearing, width (Ry)=  0.0100
                       cart. coord. in units 2pi/alat
        k(    1) = (   0.0000000   0.0000000   0.0000000), wk =   0.5000000
        k(    2) = (   0.0000000  -0.5773499   0.0000000), wk =   0.5000000
        k(    3) = (  -0.5000000  -0.2886744   0.0000000), wk =   0.5000000
        k(    4) = (  -0.5000000  -0.8660242   0.0000000), wk =   0.5000000

     Dense  grid:  7154885 G-vectors     FFT dimensions: ( 180, 180, 512)

     Smooth grid:  3090769 G-vectors     FFT dimensions: ( 135, 135, 400)

     Estimated max dynamical RAM per process >       4.33 GB

     Estimated total dynamical RAM >     155.86 GB

     Initial potential from superposition of free atoms

     starting charge    1745.9388, renormalised to    1746.0000

     negative rho (up, down):  7.873E-04 0.000E+00
     Starting wfcs are 1196 randomized atomic wfcs
     Checking if some PAW data can be deallocated... 

     total cpu time spent up to now is      179.4 secs

     Self-consistent Calculation

     iteration #  1     ecut=    77.00 Ry     beta= 0.20
     Davidson diagonalization with overlap
     ethr =  1.00E-02,  avg # of iterations =  2.0

     Threshold (ethr) on eigenvalues was too large:
     Diagonalizing with lowered threshold

     Davidson diagonalization with overlap
     ethr =  1.84E-04,  avg # of iterations = 16.8

     negative rho (up, down):  2.064E-04 0.000E+00

     total cpu time spent up to now is     2127.3 secs

     total energy              =  -35654.83102420 Ry
     estimated scf accuracy    <       6.30512741 Ry

     iteration #  2     ecut=    77.00 Ry     beta= 0.20
     Davidson diagonalization with overlap
     ethr =  3.61E-04,  avg # of iterations =  7.0

     negative rho (up, down):  7.976E-05 0.000E+00

     total cpu time spent up to now is     2557.4 secs

     total energy              =  -35654.21889347 Ry
     estimated scf accuracy    <       3.86114755 Ry

     iteration #  3     ecut=    77.00 Ry     beta= 0.20
     Davidson diagonalization with overlap
     c_bands:  3 eigenvalues not converged
     c_bands:  3 eigenvalues not converged
     c_bands:  4 eigenvalues not converged
     ethr =  2.21E-04,  avg # of iterations = 15.5

     negative rho (up, down):  2.741E-05 0.000E+00

     total cpu time spent up to now is     3015.7 secs

     total energy              =  -35653.38553167 Ry
     estimated scf accuracy    <       4.67912959 Ry

     iteration #  4     ecut=    77.00 Ry     beta= 0.20
     Davidson diagonalization with overlap
     c_bands:  4 eigenvalues not converged
     c_bands:  5 eigenvalues not converged
     ethr =  2.21E-04,  avg # of iterations = 17.0

     negative rho (up, down):  2.096E-05 0.000E+00

     total cpu time spent up to now is     3510.8 secs

     total energy              =  -35640.14726965 Ry
     estimated scf accuracy    <     994.39471549 Ry

     iteration #  5     ecut=    77.00 Ry     beta= 0.20
     Davidson diagonalization with overlap
     ethr =  2.21E-04,  avg # of iterations = 12.0

     negative rho (up, down):  1.094E-05 0.000E+00

     total cpu time spent up to now is     3975.1 secs

     total energy              =  -35653.96038047 Ry
     estimated scf accuracy    <       1.19362540 Ry

     iteration #  6     ecut=    77.00 Ry     beta= 0.20
     Davidson diagonalization with overlap
     c_bands:  1 eigenvalues not converged
     ethr =  6.84E-05,  avg # of iterations = 14.8

     negative rho (up, down):  2.683E-05 0.000E+00

     total cpu time spent up to now is     4811.9 secs

     total energy              =  -35654.69248271 Ry
     estimated scf accuracy    <       0.59011240 Ry

     iteration #  7     ecut=    77.00 Ry     beta= 0.20
     Davidson diagonalization with overlap
     ethr =  3.38E-05,  avg # of iterations = 13.5

     negative rho (up, down):  4.053E-05 0.000E+00

     total cpu time spent up to now is     5323.0 secs

     total energy              =  -35654.75223744 Ry
     estimated scf accuracy    <       0.20069463 Ry

     iteration #  8     ecut=    77.00 Ry     beta= 0.20
     Davidson diagonalization with overlap
     c_bands:  5 eigenvalues not converged
     c_bands:  5 eigenvalues not converged
     c_bands:  2 eigenvalues not converged
     ethr =  1.15E-05,  avg # of iterations = 25.0

     negative rho (up, down):  7.964E-05 0.000E+00

     total cpu time spent up to now is     6435.5 secs

     total energy              =  -35654.89711638 Ry
     estimated scf accuracy    <       0.12625441 Ry

     iteration #  9     ecut=    77.00 Ry     beta= 0.20
     Davidson diagonalization with overlap
     c_bands:  4 eigenvalues not converged
     c_bands:  3 eigenvalues not converged
     c_bands:  2 eigenvalues not converged
     ethr =  7.23E-06,  avg # of iterations = 22.8

     negative rho (up, down):  2.393E-04 0.000E+00

     total cpu time spent up to now is     7072.0 secs

     total energy              =  -35654.88325056 Ry
     estimated scf accuracy    <       0.10873919 Ry

     iteration # 10     ecut=    77.00 Ry     beta= 0.20
     Davidson diagonalization with overlap
     c_bands:  4 eigenvalues not converged
     c_bands:  5 eigenvalues not converged
     ethr =  6.23E-06,  avg # of iterations = 12.5

     negative rho (up, down):  4.420E-04 0.000E+00

     total cpu time spent up to now is     7618.3 secs

     total energy              =  -35654.90232139 Ry
     estimated scf accuracy    <       0.02772416 Ry

     iteration # 11     ecut=    77.00 Ry     beta= 0.20
     Davidson diagonalization with overlap
     c_bands:  5 eigenvalues not converged
     c_bands:  3 eigenvalues not converged
     c_bands:  4 eigenvalues not converged
     c_bands:  3 eigenvalues not converged
     ethr =  1.59E-06,  avg # of iterations = 90.0

     negative rho (up, down):  4.114E-04 0.000E+00

     total cpu time spent up to now is    10338.2 secs

     total energy              =  -35654.94098517 Ry
     estimated scf accuracy    <       0.03972657 Ry

     iteration # 12     ecut=    77.00 Ry     beta= 0.20
     Davidson diagonalization with overlap
     c_bands:  2 eigenvalues not converged
     ethr =  1.59E-06,  avg # of iterations = 10.0

     negative rho (up, down):  3.931E-04 0.000E+00

     total cpu time spent up to now is    10777.0 secs

     total energy              =  -35654.93466635 Ry
     estimated scf accuracy    <       0.02265094 Ry

     iteration # 13     ecut=    77.00 Ry     beta= 0.20
     Davidson diagonalization with overlap
     c_bands:  1 eigenvalues not converged
     ethr =  1.30E-06,  avg # of iterations =  8.2

     negative rho (up, down):  4.465E-04 0.000E+00

     total cpu time spent up to now is    11210.9 secs

     total energy              =  -35654.93253654 Ry
     estimated scf accuracy    <       0.00943455 Ry

     iteration # 14     ecut=    77.00 Ry     beta= 0.20
     Davidson diagonalization with overlap
     c_bands:  1 eigenvalues not converged
     c_bands:  3 eigenvalues not converged
     c_bands:  2 eigenvalues not converged
     c_bands:  1 eigenvalues not converged
     ethr =  5.40E-07,  avg # of iterations = 20.0

     negative rho (up, down):  5.275E-04 0.000E+00

     total cpu time spent up to now is    12270.1 secs

     total energy              =  -35654.93826060 Ry
     estimated scf accuracy    <       0.02915404 Ry

     iteration # 15     ecut=    77.00 Ry     beta= 0.20
     Davidson diagonalization with overlap
     c_bands:  1 eigenvalues not converged
     ethr =  5.40E-07,  avg # of iterations =  9.5

     negative rho (up, down):  6.207E-04 0.000E+00

     total cpu time spent up to now is    12761.6 secs

     total energy              =  -35654.93420800 Ry
     estimated scf accuracy    <       0.00944265 Ry

     iteration # 16     ecut=    77.00 Ry     beta= 0.20
     Davidson diagonalization with overlap
     ethr =  5.40E-07,  avg # of iterations = 10.2

     negative rho (up, down):  6.293E-04 0.000E+00

     total cpu time spent up to now is    13529.6 secs

     total energy              =  -35654.94031723 Ry
     estimated scf accuracy    <       0.00244699 Ry

     iteration # 17     ecut=    77.00 Ry     beta= 0.20
     Davidson diagonalization with overlap
     ethr =  1.40E-07,  avg # of iterations =  7.5

     negative rho (up, down):  6.985E-04 0.000E+00

     total cpu time spent up to now is    14006.5 secs

     total energy              =  -35654.94037682 Ry
     estimated scf accuracy    <       0.00071484 Ry

     iteration # 18     ecut=    77.00 Ry     beta= 0.20
     Davidson diagonalization with overlap
     ethr =  4.09E-08,  avg # of iterations = 14.2

     negative rho (up, down):  7.446E-04 0.000E+00

     total cpu time spent up to now is    14872.4 secs

     total energy              =  -35654.94089769 Ry
     estimated scf accuracy    <       0.00020562 Ry

     iteration # 19     ecut=    77.00 Ry     beta= 0.20
     Davidson diagonalization with overlap
     ethr =  1.18E-08,  avg # of iterations = 13.0

     negative rho (up, down):  7.668E-04 0.000E+00

     total cpu time spent up to now is    15827.6 secs

     total energy              =  -35654.94107990 Ry
     estimated scf accuracy    <       0.00023809 Ry

     iteration # 20     ecut=    77.00 Ry     beta= 0.20
     Davidson diagonalization with overlap
     ethr =  1.18E-08,  avg # of iterations =  1.2

     negative rho (up, down):  8.088E-04 0.000E+00

     total cpu time spent up to now is    16209.5 secs

     total energy              =  -35654.94100002 Ry
     estimated scf accuracy    <       0.00014420 Ry

     iteration # 21     ecut=    77.00 Ry     beta= 0.20
     Davidson diagonalization with overlap
     ethr =  8.26E-09,  avg # of iterations =  7.5

     negative rho (up, down):  8.231E-04 0.000E+00

     total cpu time spent up to now is    16643.7 secs

     total energy              =  -35654.94101324 Ry
     estimated scf accuracy    <       0.00002253 Ry

     iteration # 22     ecut=    77.00 Ry     beta= 0.20
     Davidson diagonalization with overlap
     c_bands:  3 eigenvalues not converged
     c_bands:  2 eigenvalues not converged
     c_bands:  1 eigenvalues not converged
     ethr =  1.29E-09,  avg # of iterations = 19.8

     negative rho (up, down):  8.307E-04 0.000E+00

     total cpu time spent up to now is    18269.4 secs

     total energy              =  -35654.94102806 Ry
     estimated scf accuracy    <       0.00010440 Ry

     iteration # 23     ecut=    77.00 Ry     beta= 0.20
     Davidson diagonalization with overlap
     ethr =  1.29E-09,  avg # of iterations = 13.5

     negative rho (up, down):  8.356E-04 0.000E+00

     total cpu time spent up to now is    19137.1 secs

     total energy              =  -35654.94105449 Ry
     estimated scf accuracy    <       0.00001039 Ry

     iteration # 24     ecut=    77.00 Ry     beta= 0.20
     Davidson diagonalization with overlap
     ethr =  5.95E-10,  avg # of iterations = 10.0

     negative rho (up, down):  8.384E-04 0.000E+00

     total cpu time spent up to now is    19594.3 secs

     total energy              =  -35654.94105403 Ry
     estimated scf accuracy    <       0.00000463 Ry

     iteration # 25     ecut=    77.00 Ry     beta= 0.20
     Davidson diagonalization with overlap
     ethr =  2.65E-10,  avg # of iterations = 13.0

     negative rho (up, down):  8.409E-04 0.000E+00

     total cpu time spent up to now is    20131.5 secs

     total energy              =  -35654.94105357 Ry
     estimated scf accuracy    <       0.00000230 Ry

     iteration # 26     ecut=    77.00 Ry     beta= 0.20
     Davidson diagonalization with overlap
     ethr =  1.32E-10,  avg # of iterations = 15.8

     negative rho (up, down):  8.441E-04 0.000E+00

     total cpu time spent up to now is    20863.0 secs

     total energy              =  -35654.94105206 Ry
     estimated scf accuracy    <       0.00000227 Ry

     iteration # 27     ecut=    77.00 Ry     beta= 0.20
     Davidson diagonalization with overlap
     ethr =  1.30E-10,  avg # of iterations =  9.8

     negative rho (up, down):  8.471E-04 0.000E+00

     total cpu time spent up to now is    21337.9 secs

     End of self-consistent calculation

          k = 0.0000 0.0000 0.0000 (386245 PWs)   bands (ev):

  -103.5915-101.4926 -89.5097 -71.9966 -71.9873 -71.9404 -71.8859 -71.8608
   -71.8550 -71.8420 -69.9566 -69.9492 -69.8702 -69.8441 -69.8178 -69.7920
   -69.7883 -66.7920 -66.7779 -66.7774 -66.7769 -66.7736 -66.7628 -66.7589
   -66.7579 -66.7567 -66.7567 -66.7566 -66.7566 -66.7566 -66.7566 -66.7564
   -66.7563 -66.7562 -66.7560 -66.7558 -66.7557 -66.7556 -66.7556 -66.7556
   -66.7556 -66.7556 -66.7556 -66.7525 -66.7483 -66.7416 -66.7400 -66.7353
   -66.7353 -66.7353 -66.7352 -66.7352 -66.7352 -66.7352 -66.7352 -66.7352
   -66.7352 -66.7349 -66.7349 -66.7348 -66.7347 -66.7346 -66.7345 -66.7344
   -66.7342 -66.7342 -66.7342 -66.7342 -66.7342 -66.7342 -66.7342 -66.7342
   -66.7342 -66.7340 -66.7289 -66.7263 -66.7235 -66.7168 -66.7060 -66.6989
   -66.6919 -57.8971 -57.8247 -57.5927 -56.0359 -55.7189 -55.3671 -55.3420
   -55.3099 -55.0487 -41.1054 -41.1054 -41.1054 -41.1050 -41.1050 -41.1050
   -41.1050 -41.1048 -41.1047 -41.1046 -41.0986 -41.0968 -41.0318 -41.0309
   -41.0301 -41.0301 -41.0300 -41.0300 -41.0300 -41.0300 -41.0297 -41.0296
   -41.0296 -41.0296 -41.0296 -41.0296 -41.0296 -41.0296 -41.0295 -41.0293
   -41.0293 -41.0291 -41.0218 -41.0169 -41.0083 -41.0014 -40.9714 -40.9426
   -40.9376 -40.9372 -40.9370 -40.9312 -40.9267 -40.9120 -40.9083 -40.9037
   -40.9037 -40.9037 -40.9037 -40.9037 -40.9037 -40.9034 -40.9032 -40.9032
   -40.9032 -40.9032 -40.9032 -40.9032 -40.9032 -40.9031 -40.9031 -40.9029
   -40.9028 -40.9023 -40.8992 -40.8969 -40.8959 -40.8959 -40.8959 -40.8958
   -40.8958 -40.8958 -40.8956 -40.8955 -40.8955 -40.8954 -40.8954 -40.8954
   -40.8954 -40.8954 -40.8954 -40.8953 -40.8951 -40.8950 -40.8934 -40.8913
   -40.8854 -40.8822 -40.8795 -40.8722 -40.8693 -40.8687 -40.8687 -40.8687
   -40.8687 -40.8687 -40.8687 -40.8683 -40.8683 -40.8681 -40.8681 -40.8681
   -40.8681 -40.8681 -40.8681 -40.8681 -40.8680 -40.8679 -40.8678 -40.8664
   -40.8623 -40.8607 -40.8568 -40.8554 -40.8539 -40.8539 -40.8539 -40.8539
   -40.8539 -40.8539 -40.8538 -40.8538 -40.8538 -40.8538 -40.8536 -40.8536
   -40.8535 -40.8534 -40.8534 -40.8534 -40.8534 -40.8534 -40.8534 -40.8534
   -40.8534 -40.8534 -40.8534 -40.8533 -40.8533 -40.8531 -40.8531 -40.8528
   -40.8519 -40.8477 -40.8424 -40.8392 -40.8364 -40.8305 -40.7904 -40.7903
   -40.7903 -40.7899 -40.7897 -40.7897 -40.7897 -40.7897 -40.7896 -40.7853
   -40.7783 -40.7750 -40.7432 -40.7432 -40.7432 -40.7432 -40.7432 -40.7432
   -40.7429 -40.7428 -40.7427 -40.7425 -40.7425 -40.7425 -40.7425 -40.7425
   -40.7425 -40.7425 -40.7423 -40.7423 -40.7389 -40.7364 -40.7300 -40.7255
   -40.7175 -40.7131 -40.6956 -40.6956 -40.6950 -40.6950 -40.6949 -40.6949
   -40.6763 -40.6681 -20.3769 -20.2561 -20.1552 -20.0461 -19.8429 -19.4910
   -19.4642 -19.4095 -19.4080 -19.4018 -19.3918 -19.3859 -19.3836 -19.3586
   -19.3549 -19.3400 -19.3062 -19.2952 -19.2926 -19.2747 -19.2710 -19.2545
   -19.2012 -19.1943 -19.1931 -19.1873 -19.1858 -19.1784 -19.0651 -18.9731
   -18.9203 -18.7882 -18.7335 -18.7175 -18.6707 -18.6607 -18.6341 -18.6240
   -18.6038 -18.5892 -18.5746 -18.5674 -18.5506 -18.5181 -18.4922 -18.4839
   -18.4417 -18.4397 -18.4313 -18.4067 -18.3988 -18.3950 -18.3440 -18.3390
   -18.3369 -18.3288 -18.3285 -18.3273 -18.2918 -18.2805 -18.2764 -18.2755
   -18.2738 -18.2733 -18.2711 -18.2577 -18.2471 -18.2438 -18.2395 -18.2378
   -18.2348 -18.2307 -18.2301 -18.2288 -18.2184 -18.2062 -18.2046 -18.2026
   -18.2009 -18.1964 -18.1886 -18.1840 -18.1811 -18.1711 -18.1645 -18.1584
   -18.1579 -18.1531 -18.1510 -18.1423 -18.1401 -18.1372 -18.1157 -18.1058
   -18.1030 -18.0902 -18.0757 -18.0749 -18.0701 -18.0689 -18.0684 -18.0527
   -18.0485 -18.0459 -18.0378 -18.0307 -18.0263 -18.0225 -18.0203 -18.0192
   -18.0129 -18.0113 -18.0106 -17.9954 -17.9947 -17.9943 -17.9856 -17.9830
   -17.9803 -17.9763 -17.9761 -17.9743 -17.9515 -17.9512 -17.9499 -17.9491
   -17.9486 -17.9479 -12.4515 -12.2481 -12.1290 -12.0743 -11.9855 -11.9546
   -11.9455 -11.9417 -11.8417 -11.8357 -11.8250 -11.7654 -11.7166 -11.7102
   -11.7052 -11.6206 -11.5391 -11.5319 -11.4463 -11.4085 -11.4049 -11.3926
   -11.3916 -11.3888 -11.3770 -11.3548 -11.3256 -11.2946 -11.2876 -11.2861
   -11.2837 -11.2797 -11.2784 -11.2564 -11.2329 -11.2295 -11.2251 -11.2167
   -11.2159 -11.2106 -11.2102 -11.2032 -11.2018 -11.1900 -11.1821 -11.1720
   -11.1382 -11.1297 -11.1198 -11.1074 -11.1003 -11.0934 -11.0803 -11.0688
   -11.0563 -11.0498 -11.0450 -11.0416 -11.0388 -11.0230 -11.0054 -11.0038
   -10.9994 -10.9969 -10.9896 -10.9861 -10.9846 -10.9832 -10.9825 -10.9783
   -10.9706 -10.9631 -10.9611 -10.9598 -10.9586 -10.9564 -10.9380 -10.9358
   -10.9329 -10.9314 -10.9300 -10.9249 -10.9233 -10.9116 -10.9099 -10.8919
   -10.8917 -10.8912 -10.8909 -10.8878 -10.8872 -10.8394 -10.8222 -10.8130
   -10.7868 -10.7604 -10.7485 -10.7425 -10.7338 -10.7324 -10.7184 -10.6647
   -10.4864 -10.3756 -10.3329 -10.3107 -10.2845 -10.1692 -10.1311 -10.1244
   -10.0870 -10.0047  -9.9811  -9.9678  -9.9605  -9.9581  -9.9502  -9.9359
    -9.9316  -9.9276  -9.9263  -9.9235  -9.9190  -9.9163  -9.9131  -9.9066
    -9.9053  -9.9024  -9.8965  -9.8895  -9.8848  -9.8694  -9.8488  -9.8436
    -9.8158  -9.7888  -9.7858  -9.7831  -9.7807  -9.7777  -9.7745  -9.7726
    -9.7720  -9.7709  -9.7706  -9.7687  -9.7675  -9.7567  -9.7337  -9.7146
    -9.6972  -9.6964  -9.6956  -9.6954  -9.6951  -9.6950  -9.6943  -9.6933
    -9.6745  -9.6736  -9.6607  -9.6539  -9.6435  -9.6318  -9.6132  -9.6075
    -9.5970  -9.5277  -9.5237  -9.5215  -9.5134  -9.5099  -9.5068  -9.4905
    -9.4891  -9.4812  -9.4681  -9.4649  -9.4579  -9.4299  -9.4268  -9.4137
    -9.3989  -9.3859  -9.3787  -9.3722  -9.3523  -9.3457  -9.3375  -9.3353
    -9.3336  -9.3330  -9.3303  -9.3086  -9.2903  -9.2808  -9.2664  -9.2611
    -9.2483  -9.2424  -9.2000  -9.1388  -9.1365  -9.1360  -9.1338  -9.1161
    -9.1133  -9.1097  -9.1048  -9.1022  -9.0935  -9.0852  -9.0712  -9.0710
    -9.0703  -9.0607  -9.0570  -9.0519  -9.0488  -9.0311  -9.0260  -8.9756
    -8.9755  -8.9750  -8.9748  -8.9746  -8.9742  -8.9242  -8.9142  -8.9032
    -8.8999  -8.8928  -8.8861  -8.8393  -8.8309  -8.8241  -8.8193  -8.8157
    -8.8086  -8.7950  -8.7588  -8.7504  -8.7466  -8.7462  -8.7456  -8.7432
    -8.7193  -8.7045  -8.6466  -8.6363  -8.5317  -8.5205  -8.5203  -8.5184
    -8.5148  -8.5137  -8.5084  -8.5080  -8.4937  -8.4622  -8.4484  -8.4344
    -8.4295  -8.4293  -8.4289  -8.4282  -8.4272  -8.4178  -8.4028  -8.4025
    -8.4019  -8.4012  -8.3999  -8.3937  -8.3747  -8.3745  -8.3744  -8.3739
    -8.3734  -8.3715  -8.3236  -8.2508  -8.1777  -8.1396  -8.1052  -8.0178
    -8.0152  -8.0134  -7.9629  -7.9455  -7.9377  -7.8980  -7.8736  -7.8693
    -7.8555  -7.8262  -7.8002  -7.7979  -7.7918  -7.7885  -7.7826  -7.7706
    -7.7646  -7.7528  -7.7504  -7.7272  -7.7209  -7.7075  -7.6972  -7.6906
    -7.6889  -7.6886  -7.6882  -7.6863  -7.6856  -7.6831  -7.6683  -7.6644
    -7.6618  -7.6613  -7.6607  -7.6587  -7.6566  -7.6538  -7.6368  -7.6367
    -7.6362  -7.6356  -7.6354  -7.6348  -7.6225  -7.6043  -7.5935  -7.5888
    -7.5812  -7.5771  -7.5676  -7.5613  -7.5587  -7.5578  -7.5563  -7.5482
    -7.5200  -7.5158  -7.4998  -7.4849  -7.4801  -7.4598  -7.4571  -7.4494
    -7.4479  -7.4450  -7.4431  -7.4393  -7.4377  -7.4217  -7.4049  -7.4042
    -7.3900  -7.3859  -7.3809  -7.3676  -7.3668  -7.3405  -7.3314  -7.3198
    -7.2579  -7.2551  -7.2472  -7.2152  -7.1975  -7.1343  -7.0667  -7.0351
    -7.0226  -7.0170  -7.0013  -6.9899  -6.9709  -6.9443  -6.9428  -6.9284
    -6.9133  -6.9114  -6.9056  -6.8564  -6.8435  -6.8399  -6.8159  -6.8056
    -6.7845  -6.7785  -6.7715  -6.7711  -6.7622  -6.7614  -6.7468  -6.7233
    -6.7183  -6.7093  -6.7005  -6.6921  -6.6803  -6.6738  -6.6680  -6.6670
    -6.6645  -6.6626  -6.6612  -6.6602  -6.6596  -6.6538  -6.6510  -6.6509
    -6.6509  -6.6506  -6.6504  -6.6468  -6.6357  -6.6209  -6.6170  -6.5952
    -6.5879  -6.5784  -6.5633  -6.5624  -6.5583  -6.5270  -6.5108  -6.4931
    -6.4899  -6.4896  -6.4858  -6.4823  -6.4805  -6.4688  -6.4615  -6.4592
    -6.4477  -6.4424  -6.4409  -6.4346  -6.4285  -6.4258  -6.4104  -6.4069
    -6.4057  -6.4039  -6.4020  -6.4010  -6.3875  -6.3640  -6.2409  -6.1716
    -5.8964  -5.8585  -5.6335  -5.5736  -5.4266  -5.3181  -5.2791  -5.2412
    -5.1355  -4.9039  -4.0183  -4.0051  -4.0046  -4.0021  -3.9994  -3.9897
    -3.9819  -3.9806  -3.9785  -3.9765  -3.9747  -3.9675  -3.8859  -3.8564
    -3.8532  -3.8482  -3.8414  -3.8389  -3.8360  -3.8318  -3.8289  -3.8269
    -3.8253  -3.7847  -3.6934  -3.6723  -3.6670  -3.6637  -3.6539  -3.6492
    -3.6432  -3.6349  -3.6283  -3.6245  -3.6238  -3.6214  -3.6169  -3.6105
    -3.6096  -3.6048  -3.5990  -3.5962  -3.5955  -3.5952  -3.5932  -3.5863
    -3.5810  -3.5796  -3.5786  -3.5738  -3.5690  -3.5643  -3.5629  -3.5588
    -3.5573  -3.5549  -3.5530  -3.5479  -3.5410  -3.5375  -3.5141  -3.5048
    -3.5006  -3.5001  -3.4977  -3.4970  -3.4931  -3.4890  -3.4830  -3.4754
    -3.4652  -3.4588  -3.4414  -3.4380  -3.4341  -3.4295  -3.4278  -3.4099
    -3.3798  -3.3705  -3.3638  -3.3568  -3.3504  -3.3445  -3.2313  -3.2220
    -3.2201  -3.2159  -3.2154  -3.2119  -3.1994  -3.1992  -3.1958  -3.1768
    -3.1536  -3.1468  -3.1399  -3.1309  -3.1299  -3.1268  -3.1253  -3.1249
    -3.1231  -3.1172  -3.1157  -3.1156  -3.1138  -3.1090  -3.1067  -3.1047
    -3.1009  -3.0931  -3.0908  -3.0874  -3.0867  -3.0845  -3.0828  -3.0819
    -3.0813  -3.0806  -3.0780  -3.0757  -3.0474  -3.0396  -3.0344  -3.0315
    -3.0223  -3.0182  -3.0097  -2.9990  -2.9868  -2.9592  -2.9589  -2.9583
    -2.9577  -2.9575  -2.9568  -2.9563  -2.9557  -2.9556  -2.9396  -2.9389
    -2.9233  -2.9094  -2.9055  -2.8893  -2.8856  -2.8772  -2.8745  -2.8665
    -2.8253  -2.8246  -2.7925  -2.7921  -2.7868  -2.7776  -2.7759  -2.7739
    -2.7710  -2.7672  -2.7319  -2.7193  -2.7117  -2.6976  -2.6909  -2.6826
    -2.6197  -2.6104  -2.5729  -2.5691  -2.5662  -2.5616  -2.5587  -2.5562

          k = 0.0000-0.5773 0.0000 (386352 PWs)   bands (ev):

  -103.5915-101.4926 -89.5097 -71.9966 -71.9873 -71.9404 -71.8859 -71.8608
   -71.8550 -71.8420 -69.9566 -69.9492 -69.8702 -69.8441 -69.8178 -69.7920
   -69.7883 -66.7915 -66.7741 -66.7717 -66.7717 -66.7712 -66.7711 -66.7707
   -66.7707 -66.7637 -66.7612 -66.7611 -66.7611 -66.7605 -66.7605 -66.7600
   -66.7600 -66.7552 -66.7521 -66.7469 -66.7460 -66.7460 -66.7460 -66.7459
   -66.7456 -66.7455 -66.7453 -66.7452 -66.7449 -66.7449 -66.7449 -66.7449
   -66.7420 -66.7415 -66.7415 -66.7411 -66.7410 -66.7409 -66.7405 -66.7405
   -66.7353 -66.7352 -66.7352 -66.7352 -66.7349 -66.7347 -66.7347 -66.7344
   -66.7342 -66.7342 -66.7342 -66.7342 -66.7308 -66.7308 -66.7302 -66.7302
   -66.7298 -66.7298 -66.7276 -66.7265 -66.7246 -66.7166 -66.7060 -66.6990
   -66.6918 -57.8971 -57.8247 -57.5927 -56.0359 -55.7189 -55.3671 -55.3420
   -55.3099 -55.0487 -41.0827 -41.0773 -41.0738 -41.0737 -41.0737 -41.0737
   -41.0734 -41.0734 -41.0734 -41.0734 -41.0733 -41.0732 -41.0731 -41.0729
   -41.0620 -41.0542 -41.0469 -41.0469 -41.0465 -41.0465 -41.0464 -41.0463
   -41.0462 -41.0438 -41.0349 -41.0349 -41.0345 -41.0345 -41.0343 -41.0342
   -41.0203 -41.0067 -40.9842 -40.9842 -40.9842 -40.9842 -40.9837 -40.9837
   -40.9837 -40.9837 -40.9836 -40.9836 -40.9836 -40.9835 -40.9786 -40.9739
   -40.9693 -40.9676 -40.9610 -40.9390 -40.9374 -40.9254 -40.9254 -40.9250
   -40.9250 -40.9249 -40.9248 -40.9213 -40.9159 -40.9159 -40.9153 -40.9153
   -40.9153 -40.9153 -40.9128 -40.9045 -40.9045 -40.9041 -40.9041 -40.9040
   -40.9040 -40.9037 -40.8983 -40.8947 -40.8928 -40.8791 -40.8749 -40.8749
   -40.8749 -40.8749 -40.8746 -40.8745 -40.8745 -40.8745 -40.8745 -40.8745
   -40.8743 -40.8742 -40.8738 -40.8707 -40.8662 -40.8662 -40.8657 -40.8657
   -40.8657 -40.8656 -40.8651 -40.8589 -40.8548 -40.8544 -40.8544 -40.8539
   -40.8539 -40.8539 -40.8538 -40.8538 -40.8538 -40.8538 -40.8538 -40.8536
   -40.8534 -40.8534 -40.8534 -40.8534 -40.8534 -40.8533 -40.8531 -40.8512
   -40.8497 -40.8452 -40.8452 -40.8447 -40.8447 -40.8447 -40.8446 -40.8413
   -40.8386 -40.8301 -40.8235 -40.8235 -40.8235 -40.8234 -40.8230 -40.8229
   -40.8229 -40.8228 -40.8228 -40.8228 -40.8228 -40.8227 -40.8223 -40.8149
   -40.8113 -40.8067 -40.7887 -40.7887 -40.7887 -40.7887 -40.7882 -40.7881
   -40.7881 -40.7881 -40.7881 -40.7881 -40.7881 -40.7881 -40.7834 -40.7766
   -40.7766 -40.7761 -40.7759 -40.7759 -40.7759 -40.7751 -40.7725 -40.7722
   -40.7668 -40.7573 -40.7572 -40.7567 -40.7566 -40.7566 -40.7566 -40.7465
   -40.7451 -40.7410 -40.7403 -40.7403 -40.7397 -40.7396 -40.7396 -40.7396
   -40.7203 -40.7108 -40.7096 -40.7096 -40.7091 -40.7089 -40.7089 -40.7089
   -40.7003 -40.6759 -20.2753 -20.0454 -20.0232 -19.9890 -19.9274 -19.8960
   -19.8171 -19.8021 -19.7024 -19.6213 -19.5860 -19.5684 -19.4976 -19.4765
   -19.3940 -19.3794 -19.3026 -19.0478 -18.9757 -18.9408 -18.9081 -18.8969
   -18.8778 -18.8738 -18.8714 -18.8662 -18.8423 -18.8177 -18.8090 -18.8007
   -18.7935 -18.7767 -18.7504 -18.7349 -18.7281 -18.7087 -18.7060 -18.7004
   -18.6852 -18.6765 -18.6672 -18.6374 -18.6307 -18.6300 -18.6227 -18.5906
   -18.5669 -18.5628 -18.5575 -18.5320 -18.5297 -18.5182 -18.4899 -18.4786
   -18.4727 -18.4501 -18.4088 -18.4036 -18.4008 -18.3873 -18.3541 -18.3486
   -18.3358 -18.3192 -18.2890 -18.2736 -18.2716 -18.2641 -18.2569 -18.2541
   -18.2511 -18.2504 -18.2397 -18.2283 -18.2259 -18.2241 -18.2196 -18.2187
   -18.2092 -18.2066 -18.2018 -18.1954 -18.1921 -18.1810 -18.1636 -18.1631
   -18.1580 -18.1545 -18.1526 -18.1499 -18.1467 -18.1417 -18.1396 -18.1305
   -18.1040 -18.1004 -18.0904 -18.0874 -18.0828 -18.0716 -18.0465 -18.0448
   -18.0380 -18.0277 -18.0035 -18.0010 -17.9981 -17.9928 -17.9867 -17.9757
   -17.9724 -17.9720 -17.9719 -17.9707 -17.9699 -17.9673 -17.9573 -17.9560
   -17.9388 -17.9371 -17.9149 -17.9133 -17.8959 -17.8939 -17.8805 -17.8794
   -17.8725 -17.8724 -12.3785 -12.1438 -11.9596 -11.8934 -11.8688 -11.7888
   -11.7235 -11.6783 -11.6562 -11.6537 -11.6500 -11.6375 -11.6320 -11.6275
   -11.6169 -11.5669 -11.5609 -11.5442 -11.5426 -11.5384 -11.5190 -11.4938
   -11.4802 -11.4739 -11.4531 -11.4436 -11.4363 -11.4275 -11.4224 -11.4146
   -11.4125 -11.4058 -11.4031 -11.3669 -11.3577 -11.3517 -11.3506 -11.3423
   -11.3277 -11.3220 -11.3205 -11.3152 -11.3008 -11.2992 -11.2977 -11.2728
   -11.2599 -11.2495 -11.2346 -11.2204 -11.2181 -11.1941 -11.1550 -11.1458
   -11.1177 -11.1046 -11.0882 -11.0731 -11.0684 -11.0651 -11.0467 -11.0158
   -11.0089 -10.9924 -10.9881 -10.9842 -10.9754 -10.9674 -10.9649 -10.9646
   -10.9627 -10.9619 -10.9574 -10.9555 -10.9487 -10.9476 -10.9455 -10.9444
   -10.9380 -10.9372 -10.9343 -10.9312 -10.8996 -10.8973 -10.8959 -10.8956
   -10.8782 -10.8309 -10.7358 -10.7006 -10.6852 -10.6812 -10.6666 -10.6395
   -10.5983 -10.5575 -10.5236 -10.4718 -10.4160 -10.4011 -10.3326 -10.3147
   -10.2931 -10.2866 -10.2699 -10.2652 -10.2495 -10.2415 -10.2110 -10.2076
   -10.1911 -10.1887 -10.1877 -10.1830 -10.1746 -10.1714 -10.1428 -10.1316
   -10.0962 -10.0866 -10.0832 -10.0754 -10.0656 -10.0509 -10.0453 -10.0435
   -10.0255 -10.0221 -10.0060 -10.0024  -9.9731  -9.9547  -9.9484  -9.9362
    -9.9239  -9.9194  -9.8959  -9.8916  -9.8755  -9.8554  -9.8408  -9.8376
    -9.8201  -9.8139  -9.7870  -9.7816  -9.7735  -9.7653  -9.7573  -9.7318
    -9.7274  -9.7157  -9.7002  -9.6899  -9.6875  -9.6854  -9.6605  -9.6468
    -9.6426  -9.6309  -9.6274  -9.6231  -9.6213  -9.6132  -9.6082  -9.6063
    -9.5876  -9.5800  -9.5653  -9.5489  -9.5169  -9.5079  -9.4639  -9.4586
    -9.4323  -9.4043  -9.3828  -9.3680  -9.3669  -9.3596  -9.3513  -9.3302
    -9.3232  -9.3111  -9.2975  -9.2929  -9.2841  -9.2663  -9.2439  -9.2426
    -9.2219  -9.2074  -9.2009  -9.1964  -9.1896  -9.1813  -9.1683  -9.1497
    -9.1403  -9.1341  -9.1164  -9.1077  -9.1033  -9.1003  -9.0934  -9.0846
    -9.0639  -9.0535  -9.0460  -9.0436  -9.0421  -9.0393  -9.0319  -9.0289
    -9.0232  -9.0216  -9.0204  -9.0178  -9.0114  -9.0087  -9.0056  -8.9930
    -8.9924  -8.9888  -8.9742  -8.9669  -8.9578  -8.9465  -8.9451  -8.9444
    -8.9389  -8.9378  -8.9344  -8.9164  -8.9151  -8.9025  -8.8864  -8.8846
    -8.8821  -8.8769  -8.8593  -8.8349  -8.8165  -8.8127  -8.7973  -8.7865
    -8.7512  -8.6977  -8.6688  -8.6593  -8.6506  -8.6444  -8.5972  -8.5845
    -8.5205  -8.5079  -8.4913  -8.4512  -8.4432  -8.4121  -8.3662  -8.2985
    -8.2803  -8.2801  -8.2712  -8.2704  -8.2599  -8.2594  -8.2263  -8.2188
    -8.2008  -8.1473  -8.1252  -8.1188  -8.1090  -8.0509  -8.0242  -8.0041
    -7.9974  -7.9957  -7.9892  -7.9775  -7.9738  -7.9693  -7.9614  -7.9564
    -7.9560  -7.9547  -7.9520  -7.9489  -7.9442  -7.9374  -7.9342  -7.9339
    -7.9316  -7.9279  -7.9220  -7.9219  -7.9188  -7.9171  -7.9164  -7.9140
    -7.9109  -7.9107  -7.9049  -7.8920  -7.8903  -7.8847  -7.8817  -7.8765
    -7.8705  -7.8523  -7.8502  -7.8490  -7.8480  -7.8383  -7.8282  -7.8199
    -7.8191  -7.8174  -7.8170  -7.8105  -7.8000  -7.7912  -7.7802  -7.7657
    -7.7618  -7.7607  -7.7593  -7.7504  -7.7499  -7.7384  -7.7369  -7.7245
    -7.7200  -7.7167  -7.7160  -7.7103  -7.7078  -7.7022  -7.6920  -7.6300
    -7.6202  -7.6124  -7.6092  -7.6072  -7.5940  -7.5603  -7.5592  -7.4902
    -7.4336  -7.3794  -7.3519  -7.3516  -7.3227  -7.3189  -7.3167  -7.3109
    -7.2809  -7.2701  -7.2607  -7.2560  -7.2424  -7.2398  -7.2137  -7.1983
    -7.1807  -7.1761  -7.1660  -7.1553  -7.1436  -7.1401  -7.1299  -7.1190
    -7.0913  -7.0730  -7.0679  -7.0505  -7.0443  -7.0309  -7.0174  -7.0136
    -7.0105  -6.9917  -6.9820  -6.9742  -6.9436  -6.9244  -6.9127  -6.8977
    -6.8655  -6.8411  -6.8280  -6.8057  -6.7935  -6.7804  -6.7712  -6.7634
    -6.7583  -6.7570  -6.7565  -6.7516  -6.7406  -6.7399  -6.7395  -6.7372
    -6.7316  -6.7315  -6.7314  -6.7309  -6.7201  -6.6972  -6.6925  -6.6398
    -6.6350  -6.5734  -6.5571  -6.5530  -6.4881  -6.4811  -6.4779  -6.4681
    -6.4634  -6.4506  -6.4406  -6.4334  -6.4309  -6.4293  -6.4278  -6.4250
    -6.4235  -6.4106  -6.4060  -6.3926  -6.3883  -6.3802  -6.3694  -6.3566
    -6.3531  -6.3506  -6.3500  -6.3129  -6.2166  -6.1519  -6.1459  -6.1096
    -6.0969  -6.0555  -6.0454  -6.0303  -6.0203  -5.9970  -5.9952  -5.8806
    -5.8442  -5.7999  -5.7480  -5.7405  -5.5632  -5.4470  -5.2667  -5.2474
    -5.1463  -4.8944  -4.2448  -4.2421  -4.2381  -4.2245  -4.0947  -4.0837
    -4.0727  -4.0660  -4.0653  -4.0278  -3.9964  -3.9939  -3.9840  -3.9798
    -3.9658  -3.9633  -3.9511  -3.9501  -3.9439  -3.9201  -3.8549  -3.8403
    -3.8365  -3.7933  -3.7672  -3.7559  -3.7520  -3.7505  -3.7494  -3.7346
    -3.7064  -3.7016  -3.6892  -3.6825  -3.6748  -3.6691  -3.6668  -3.6609
    -3.6443  -3.6351  -3.6344  -3.6282  -3.6236  -3.6222  -3.6184  -3.6077
    -3.5999  -3.5980  -3.5856  -3.5808  -3.5737  -3.5710  -3.5648  -3.5548
    -3.5163  -3.5068  -3.5021  -3.5001  -3.4978  -3.4969  -3.4936  -3.4892
    -3.4772  -3.4603  -3.4484  -3.4447  -3.4416  -3.4382  -3.4308  -3.4299
    -3.4270  -3.4252  -3.4090  -3.4059  -3.4014  -3.3954  -3.3868  -3.3815
    -3.3800  -3.3674  -3.3641  -3.3629  -3.3604  -3.3528  -3.3430  -3.3321
    -3.3284  -3.3254  -3.3213  -3.3143  -3.3130  -3.3129  -3.3018  -3.2972
    -3.2606  -3.2499  -3.2448  -3.2214  -3.2196  -3.2169  -3.2127  -3.2101
    -3.1787  -3.1754  -3.1741  -3.1729  -3.1723  -3.1709  -3.1657  -3.1631
    -3.1598  -3.1568  -3.1524  -3.1488  -3.1415  -3.1391  -3.1340  -3.1294
    -3.1266  -3.1222  -3.1203  -3.1124  -3.1110  -3.1067  -3.0995  -3.0978
    -3.0955  -3.0932  -3.0845  -3.0818  -3.0769  -3.0634  -3.0513  -3.0449
    -3.0387  -3.0356  -3.0299  -3.0248  -3.0185  -3.0060  -2.9493  -2.9459
    -2.9404  -2.9368  -2.8931  -2.8797  -2.8689  -2.8610  -2.7720  -2.7644
    -2.7430  -2.7353  -2.7213  -2.7163  -2.7072  -2.6945  -2.6914  -2.6870
    -2.6799  -2.6768  -2.6761  -2.6732  -2.6155  -2.5725  -2.5550  -2.5503
    -2.5452  -2.5408  -2.5346  -2.5289  -2.5217  -2.5157  -2.4938  -2.4899

          k =-0.5000-0.2887 0.0000 (386352 PWs)   bands (ev):

  -103.5915-101.4926 -89.5097 -71.9966 -71.9873 -71.9405 -71.8859 -71.8608
   -71.8550 -71.8420 -69.9566 -69.9492 -69.8702 -69.8441 -69.8178 -69.7920
   -69.7883 -66.7914 -66.7747 -66.7717 -66.7717 -66.7712 -66.7711 -66.7707
   -66.7707 -66.7640 -66.7611 -66.7611 -66.7605 -66.7605 -66.7600 -66.7600
   -66.7600 -66.7550 -66.7525 -66.7464 -66.7460 -66.7460 -66.7460 -66.7459
   -66.7455 -66.7455 -66.7453 -66.7453 -66.7449 -66.7449 -66.7449 -66.7449
   -66.7433 -66.7415 -66.7415 -66.7410 -66.7409 -66.7406 -66.7405 -66.7405
   -66.7353 -66.7352 -66.7352 -66.7352 -66.7348 -66.7348 -66.7346 -66.7345
   -66.7342 -66.7342 -66.7342 -66.7342 -66.7308 -66.7308 -66.7302 -66.7302
   -66.7298 -66.7298 -66.7286 -66.7270 -66.7228 -66.7167 -66.7061 -66.6991
   -66.6918 -57.8971 -57.8247 -57.5927 -56.0359 -55.7189 -55.3671 -55.3420
   -55.3099 -55.0487 -41.0740 -41.0738 -41.0738 -41.0737 -41.0737 -41.0734
   -41.0734 -41.0734 -41.0734 -41.0732 -41.0731 -41.0731 -41.0730 -41.0694
   -41.0668 -41.0642 -41.0561 -41.0469 -41.0469 -41.0465 -41.0465 -41.0463
   -41.0463 -41.0424 -41.0349 -41.0349 -41.0345 -41.0345 -41.0343 -41.0342
   -41.0240 -41.0016 -40.9842 -40.9842 -40.9842 -40.9842 -40.9837 -40.9837
   -40.9837 -40.9837 -40.9836 -40.9836 -40.9836 -40.9835 -40.9787 -40.9743
   -40.9680 -40.9630 -40.9555 -40.9436 -40.9325 -40.9254 -40.9254 -40.9250
   -40.9250 -40.9249 -40.9248 -40.9227 -40.9159 -40.9159 -40.9153 -40.9153
   -40.9153 -40.9153 -40.9130 -40.9045 -40.9045 -40.9041 -40.9041 -40.9041
   -40.9040 -40.9028 -40.9000 -40.8976 -40.8870 -40.8820 -40.8765 -40.8749
   -40.8749 -40.8749 -40.8749 -40.8746 -40.8745 -40.8745 -40.8745 -40.8745
   -40.8745 -40.8743 -40.8742 -40.8700 -40.8662 -40.8662 -40.8657 -40.8657
   -40.8657 -40.8656 -40.8625 -40.8580 -40.8562 -40.8544 -40.8544 -40.8539
   -40.8539 -40.8539 -40.8539 -40.8538 -40.8538 -40.8538 -40.8538 -40.8535
   -40.8534 -40.8534 -40.8534 -40.8534 -40.8534 -40.8533 -40.8532 -40.8507
   -40.8463 -40.8452 -40.8452 -40.8447 -40.8447 -40.8447 -40.8446 -40.8424
   -40.8411 -40.8298 -40.8247 -40.8235 -40.8235 -40.8235 -40.8235 -40.8230
   -40.8229 -40.8228 -40.8228 -40.8228 -40.8228 -40.8228 -40.8228 -40.8207
   -40.8126 -40.8038 -40.7887 -40.7887 -40.7887 -40.7887 -40.7882 -40.7881
   -40.7881 -40.7881 -40.7881 -40.7881 -40.7881 -40.7881 -40.7861 -40.7820
   -40.7766 -40.7766 -40.7760 -40.7759 -40.7759 -40.7759 -40.7738 -40.7655
   -40.7612 -40.7573 -40.7573 -40.7567 -40.7566 -40.7566 -40.7566 -40.7510
   -40.7491 -40.7403 -40.7403 -40.7397 -40.7396 -40.7396 -40.7396 -40.7339
   -40.7227 -40.7096 -40.7096 -40.7090 -40.7089 -40.7089 -40.7089 -40.7012
   -40.6947 -40.6864 -20.2770 -20.0436 -20.0232 -19.9857 -19.9271 -19.8933
   -19.8171 -19.8010 -19.7144 -19.6220 -19.5863 -19.5689 -19.4978 -19.4770
   -19.3935 -19.3796 -19.2932 -19.0260 -19.0095 -18.9320 -18.9124 -18.8922
   -18.8779 -18.8736 -18.8726 -18.8600 -18.8455 -18.8166 -18.8104 -18.8035
   -18.7909 -18.7758 -18.7545 -18.7332 -18.7287 -18.7085 -18.7074 -18.6989
   -18.6847 -18.6781 -18.6689 -18.6373 -18.6309 -18.6292 -18.6223 -18.5915
   -18.5668 -18.5618 -18.5589 -18.5414 -18.5318 -18.5068 -18.4884 -18.4768
   -18.4738 -18.4423 -18.4122 -18.4067 -18.4012 -18.3849 -18.3541 -18.3492
   -18.3382 -18.3160 -18.2903 -18.2742 -18.2719 -18.2646 -18.2555 -18.2541
   -18.2513 -18.2499 -18.2403 -18.2273 -18.2254 -18.2232 -18.2198 -18.2196
   -18.2100 -18.2065 -18.2022 -18.1943 -18.1918 -18.1818 -18.1638 -18.1630
   -18.1585 -18.1545 -18.1525 -18.1503 -18.1465 -18.1412 -18.1399 -18.1308
   -18.1048 -18.1008 -18.0906 -18.0878 -18.0817 -18.0719 -18.0472 -18.0450
   -18.0374 -18.0281 -18.0045 -18.0010 -17.9983 -17.9923 -17.9856 -17.9752
   -17.9725 -17.9721 -17.9718 -17.9704 -17.9700 -17.9673 -17.9574 -17.9559
   -17.9389 -17.9371 -17.9150 -17.9133 -17.8960 -17.8940 -17.8805 -17.8795
   -17.8725 -17.8724 -12.3931 -12.1259 -11.9283 -11.8973 -11.8728 -11.7974
   -11.7325 -11.6721 -11.6596 -11.6522 -11.6502 -11.6442 -11.6293 -11.6230
   -11.6062 -11.5817 -11.5682 -11.5465 -11.5348 -11.5297 -11.5163 -11.4952
   -11.4858 -11.4733 -11.4621 -11.4445 -11.4374 -11.4248 -11.4215 -11.4148
   -11.4123 -11.4073 -11.4028 -11.3688 -11.3592 -11.3548 -11.3474 -11.3348
   -11.3281 -11.3230 -11.3213 -11.3163 -11.3052 -11.2998 -11.2991 -11.2778
   -11.2633 -11.2513 -11.2328 -11.2240 -11.2159 -11.1952 -11.1666 -11.1311
   -11.1140 -11.0965 -11.0855 -11.0825 -11.0650 -11.0599 -11.0426 -11.0378
   -11.0242 -10.9909 -10.9882 -10.9839 -10.9789 -10.9683 -10.9656 -10.9640
   -10.9637 -10.9624 -10.9618 -10.9522 -10.9484 -10.9482 -10.9454 -10.9446
   -10.9374 -10.9364 -10.9345 -10.9336 -10.8989 -10.8966 -10.8963 -10.8958
   -10.8721 -10.8438 -10.7005 -10.6951 -10.6843 -10.6793 -10.6498 -10.6304
   -10.5896 -10.5557 -10.5359 -10.5195 -10.4225 -10.4074 -10.3232 -10.3146
   -10.2867 -10.2853 -10.2669 -10.2619 -10.2446 -10.2368 -10.2107 -10.2047
   -10.1921 -10.1880 -10.1853 -10.1830 -10.1753 -10.1692 -10.1442 -10.1281
   -10.1124 -10.0862 -10.0803 -10.0668 -10.0605 -10.0541 -10.0478 -10.0403
   -10.0372 -10.0190 -10.0121  -9.9940  -9.9772  -9.9590  -9.9415  -9.9371
    -9.9214  -9.9197  -9.8943  -9.8873  -9.8848  -9.8513  -9.8435  -9.8361
    -9.8143  -9.8102  -9.7820  -9.7784  -9.7741  -9.7642  -9.7574  -9.7302
    -9.7185  -9.7096  -9.6988  -9.6942  -9.6859  -9.6804  -9.6617  -9.6454
    -9.6422  -9.6288  -9.6269  -9.6229  -9.6202  -9.6134  -9.6072  -9.6027
    -9.5868  -9.5796  -9.5626  -9.5483  -9.5249  -9.5068  -9.4766  -9.4613
    -9.4324  -9.4191  -9.3812  -9.3788  -9.3605  -9.3586  -9.3516  -9.3267
    -9.3202  -9.3110  -9.2969  -9.2950  -9.2844  -9.2686  -9.2641  -9.2454
    -9.2227  -9.2052  -9.2006  -9.1958  -9.1871  -9.1824  -9.1727  -9.1499
    -9.1410  -9.1327  -9.1104  -9.1081  -9.1031  -9.1001  -9.0944  -9.0845
    -9.0625  -9.0528  -9.0484  -9.0431  -9.0420  -9.0372  -9.0328  -9.0288
    -9.0259  -9.0215  -9.0203  -9.0186  -9.0133  -9.0100  -9.0053  -8.9929
    -8.9925  -8.9916  -8.9741  -8.9659  -8.9620  -8.9464  -8.9445  -8.9440
    -8.9400  -8.9375  -8.9340  -8.9160  -8.9140  -8.8936  -8.8906  -8.8865
    -8.8842  -8.8819  -8.8598  -8.8441  -8.8232  -8.8109  -8.8009  -8.7860
    -8.7509  -8.7008  -8.6604  -8.6573  -8.6365  -8.6264  -8.5979  -8.5838
    -8.5248  -8.5169  -8.4892  -8.4539  -8.4402  -8.3989  -8.3676  -8.2813
    -8.2803  -8.2773  -8.2713  -8.2694  -8.2600  -8.2593  -8.2320  -8.2254
    -8.2117  -8.1689  -8.1229  -8.1196  -8.0849  -8.0499  -8.0360  -8.0100
    -7.9948  -7.9929  -7.9875  -7.9782  -7.9682  -7.9673  -7.9644  -7.9617
    -7.9559  -7.9549  -7.9518  -7.9481  -7.9442  -7.9363  -7.9351  -7.9341
    -7.9311  -7.9245  -7.9220  -7.9214  -7.9187  -7.9171  -7.9163  -7.9125
    -7.9109  -7.9104  -7.9036  -7.8933  -7.8883  -7.8839  -7.8826  -7.8768
    -7.8732  -7.8520  -7.8502  -7.8489  -7.8487  -7.8399  -7.8287  -7.8201
    -7.8194  -7.8175  -7.8174  -7.8099  -7.7999  -7.7956  -7.7795  -7.7682
    -7.7613  -7.7606  -7.7555  -7.7515  -7.7471  -7.7422  -7.7381  -7.7366
    -7.7259  -7.7166  -7.7164  -7.7103  -7.7060  -7.6998  -7.6947  -7.6251
    -7.6139  -7.6120  -7.6089  -7.6027  -7.5904  -7.5587  -7.5462  -7.4897
    -7.4369  -7.3826  -7.3657  -7.3369  -7.3220  -7.3185  -7.3172  -7.3095
    -7.2807  -7.2698  -7.2605  -7.2556  -7.2483  -7.2346  -7.2107  -7.2073
    -7.1798  -7.1772  -7.1686  -7.1536  -7.1511  -7.1435  -7.1302  -7.1265
    -7.0996  -7.0705  -7.0691  -7.0491  -7.0464  -7.0313  -7.0168  -7.0140
    -7.0101  -6.9866  -6.9764  -6.9754  -6.9427  -6.9186  -6.9107  -6.8901
    -6.8652  -6.8379  -6.8253  -6.8084  -6.7950  -6.7783  -6.7713  -6.7621
    -6.7581  -6.7569  -6.7563  -6.7478  -6.7403  -6.7394  -6.7392  -6.7358
    -6.7315  -6.7314  -6.7313  -6.7306  -6.7168  -6.6941  -6.6824  -6.6485
    -6.6346  -6.5752  -6.5637  -6.5545  -6.5003  -6.4790  -6.4782  -6.4692
    -6.4647  -6.4559  -6.4437  -6.4332  -6.4297  -6.4288  -6.4272  -6.4250
    -6.4242  -6.4089  -6.4037  -6.3955  -6.3878  -6.3782  -6.3699  -6.3574
    -6.3540  -6.3500  -6.3474  -6.2967  -6.2390  -6.1510  -6.1467  -6.1063
    -6.0996  -6.0521  -6.0480  -6.0318  -6.0180  -5.9968  -5.9950  -5.8757
    -5.8474  -5.7975  -5.7485  -5.7389  -5.5630  -5.4492  -5.2674  -5.2488
    -5.1468  -4.8915  -4.2446  -4.2440  -4.2332  -4.2268  -4.0931  -4.0792
    -4.0746  -4.0719  -4.0545  -4.0324  -3.9999  -3.9936  -3.9858  -3.9786
    -3.9662  -3.9623  -3.9510  -3.9498  -3.9478  -3.9122  -3.8571  -3.8407
    -3.8348  -3.8075  -3.7673  -3.7557  -3.7543  -3.7497  -3.7481  -3.7257
    -3.7086  -3.7012  -3.6890  -3.6791  -3.6749  -3.6699  -3.6653  -3.6606
    -3.6488  -3.6377  -3.6338  -3.6271  -3.6261  -3.6231  -3.6152  -3.6133
    -3.6005  -3.5929  -3.5872  -3.5792  -3.5695  -3.5653  -3.5569  -3.5507
    -3.5218  -3.5086  -3.5029  -3.5008  -3.4971  -3.4950  -3.4932  -3.4903
    -3.4724  -3.4602  -3.4513  -3.4486  -3.4413  -3.4357  -3.4341  -3.4309
    -3.4269  -3.4249  -3.4172  -3.4048  -3.4003  -3.3917  -3.3887  -3.3821
    -3.3770  -3.3737  -3.3632  -3.3612  -3.3603  -3.3490  -3.3452  -3.3335
    -3.3289  -3.3261  -3.3220  -3.3158  -3.3131  -3.3130  -3.3005  -3.2976
    -3.2578  -3.2521  -3.2440  -3.2228  -3.2193  -3.2166  -3.2141  -3.2084
    -3.1774  -3.1757  -3.1745  -3.1729  -3.1722  -3.1717  -3.1658  -3.1618
    -3.1606  -3.1571  -3.1555  -3.1493  -3.1419  -3.1408  -3.1336  -3.1300
    -3.1271  -3.1219  -3.1196  -3.1166  -3.1111  -3.1066  -3.0987  -3.0978
    -3.0948  -3.0932  -3.0850  -3.0817  -3.0741  -3.0644  -3.0524  -3.0456
    -3.0394  -3.0323  -3.0273  -3.0250  -3.0240  -3.0091  -2.9496  -2.9443
    -2.9409  -2.9360  -2.9006  -2.8798  -2.8680  -2.8576  -2.7777  -2.7618
    -2.7443  -2.7381  -2.7238  -2.7133  -2.7116  -2.6975  -2.6901  -2.6827
    -2.6786  -2.6772  -2.6738  -2.6692  -2.6015  -2.5938  -2.5588  -2.5542
    -2.5483  -2.5459  -2.5376  -2.5322  -2.5243  -2.5201  -2.4941  -2.4908

          k =-0.5000-0.8660 0.0000 (386352 PWs)   bands (ev):

  -103.5915-101.4926 -89.5097 -71.9966 -71.9873 -71.9404 -71.8859 -71.8608
   -71.8550 -71.8420 -69.9566 -69.9492 -69.8702 -69.8441 -69.8178 -69.7920
   -69.7884 -66.7916 -66.7729 -66.7717 -66.7717 -66.7713 -66.7710 -66.7707
   -66.7707 -66.7667 -66.7611 -66.7611 -66.7605 -66.7605 -66.7600 -66.7600
   -66.7593 -66.7552 -66.7514 -66.7478 -66.7460 -66.7460 -66.7460 -66.7459
   -66.7457 -66.7457 -66.7452 -66.7450 -66.7449 -66.7449 -66.7449 -66.7449
   -66.7426 -66.7415 -66.7415 -66.7411 -66.7408 -66.7405 -66.7405 -66.7401
   -66.7353 -66.7352 -66.7352 -66.7352 -66.7352 -66.7348 -66.7346 -66.7342
   -66.7342 -66.7342 -66.7342 -66.7341 -66.7308 -66.7308 -66.7303 -66.7302
   -66.7298 -66.7298 -66.7278 -66.7269 -66.7239 -66.7169 -66.7060 -66.6989
   -66.6919 -57.8971 -57.8247 -57.5927 -56.0359 -55.7189 -55.3671 -55.3420
   -55.3099 -55.0487 -41.0865 -41.0822 -41.0738 -41.0737 -41.0737 -41.0737
   -41.0735 -41.0734 -41.0734 -41.0734 -41.0734 -41.0732 -41.0732 -41.0726
   -41.0547 -41.0522 -41.0469 -41.0469 -41.0465 -41.0465 -41.0464 -41.0462
   -41.0407 -41.0349 -41.0349 -41.0345 -41.0345 -41.0343 -41.0342 -41.0342
   -41.0273 -41.0148 -40.9842 -40.9842 -40.9842 -40.9842 -40.9837 -40.9837
   -40.9837 -40.9837 -40.9836 -40.9836 -40.9835 -40.9835 -40.9803 -40.9773
   -40.9691 -40.9681 -40.9573 -40.9437 -40.9330 -40.9254 -40.9254 -40.9250
   -40.9250 -40.9249 -40.9248 -40.9227 -40.9159 -40.9159 -40.9153 -40.9153
   -40.9153 -40.9153 -40.9107 -40.9063 -40.9045 -40.9045 -40.9041 -40.9041
   -40.9040 -40.9040 -40.9011 -40.8930 -40.8881 -40.8826 -40.8749 -40.8749
   -40.8749 -40.8749 -40.8748 -40.8747 -40.8747 -40.8745 -40.8745 -40.8745
   -40.8745 -40.8742 -40.8740 -40.8662 -40.8662 -40.8658 -40.8657 -40.8657
   -40.8655 -40.8655 -40.8638 -40.8608 -40.8575 -40.8544 -40.8544 -40.8539
   -40.8539 -40.8539 -40.8538 -40.8538 -40.8538 -40.8538 -40.8538 -40.8538
   -40.8535 -40.8534 -40.8534 -40.8534 -40.8534 -40.8532 -40.8529 -40.8501
   -40.8489 -40.8452 -40.8452 -40.8447 -40.8447 -40.8447 -40.8446 -40.8420
   -40.8371 -40.8299 -40.8255 -40.8235 -40.8235 -40.8235 -40.8235 -40.8233
   -40.8230 -40.8228 -40.8228 -40.8228 -40.8228 -40.8227 -40.8224 -40.8213
   -40.8020 -40.8001 -40.7887 -40.7887 -40.7887 -40.7887 -40.7882 -40.7881
   -40.7881 -40.7881 -40.7881 -40.7881 -40.7881 -40.7880 -40.7841 -40.7803
   -40.7767 -40.7766 -40.7766 -40.7761 -40.7759 -40.7759 -40.7758 -40.7687
   -40.7636 -40.7573 -40.7573 -40.7570 -40.7566 -40.7566 -40.7563 -40.7502
   -40.7458 -40.7403 -40.7403 -40.7397 -40.7396 -40.7396 -40.7396 -40.7377
   -40.7242 -40.7136 -40.7096 -40.7096 -40.7092 -40.7089 -40.7089 -40.7088
   -40.6980 -40.6743 -20.2777 -20.0439 -20.0231 -19.9858 -19.9268 -19.8933
   -19.8167 -19.8012 -19.7016 -19.6294 -19.5860 -19.5719 -19.4975 -19.4787
   -19.3939 -19.3802 -19.3053 -19.0260 -18.9774 -18.9318 -18.9246 -18.8972
   -18.8777 -18.8739 -18.8717 -18.8659 -18.8473 -18.8158 -18.8080 -18.7988
   -18.7961 -18.7773 -18.7415 -18.7382 -18.7241 -18.7077 -18.7015 -18.7005
[...]
     atom  172 type  2   force =     0.00000129   -0.00000050    0.00161329
     atom  173 type  2   force =     0.00000119   -0.00000105   -0.00236277
     atom  174 type  2   force =    -0.00000107   -0.00000267   -0.00000529
     atom  175 type  1   force =     0.00000618   -0.00002047   -0.00001237
     atom  176 type  1   force =    -0.00003261    0.00002825   -0.00019247
     atom  177 type  2   force =     0.00015146    0.00017050   -0.00007049
     atom  178 type  2   force =    -0.00001518   -0.00001047   -0.00000117
     atom  179 type  2   force =    -0.00001476   -0.00001098    0.00000940
     atom  180 type  2   force =     0.00023951    0.00000217    0.00002856
     atom  181 type  1   force =     0.00000302   -0.00000142    0.00068451
     atom  182 type  1   force =    -0.00000914   -0.00001146   -0.00000674
     atom  183 type  2   force =    -0.00000051   -0.00000217    0.00000266
     atom  184 type  2   force =     0.00000125   -0.00000048    0.00161342
     atom  185 type  2   force =     0.00000108   -0.00000096   -0.00236270
     atom  186 type  2   force =    -0.00000018   -0.00000369   -0.00000648
     atom  187 type  1   force =     0.00001352   -0.00001467   -0.00002372
     atom  188 type  1   force =     0.00025182    0.00003919    0.00016603
     atom  189 type  2   force =     0.00034406   -0.00005334    0.00018524
     atom  190 type  2   force =     0.00000480   -0.00000441   -0.00001188
     atom  191 type  2   force =     0.00002505    0.00000486    0.00001926
     atom  192 type  2   force =     0.00021715   -0.00015097    0.00009811
     atom  193 type  3   force =     0.00012403    0.00018940    0.00049619
     atom  194 type  4   force =     0.00008262    0.00016399   -0.00007864
     atom  195 type  3   force =    -0.00092949    0.00052704   -0.00030727

     Total force =     0.002709     Total SCF correction =     0.000462
     SCF correction compared to forces is large: reduce conv_thr to get better values
     Energy error            =      1.3E-05 Ry
     Gradient error          =      9.3E-04 Ry/Bohr

     bfgs converged in  29 scf cycles and  28 bfgs steps
     (criteria: energy <  1.0E-04 Ry, force <  1.0E-03 Ry/Bohr)

     End of BFGS Geometry Optimization

     Final energy             =  -35654.9528451972 Ry

     File ./outdir/pwscf.bfgs deleted, as requested
Begin final coordinates

ATOMIC_POSITIONS (angstrom)
Mo               0.0000119917        1.8193638619       -9.1672481230    0   0   0
Mo               1.5756136568        0.9097075315       -3.0554901653    0   0   0
S                0.0000188998        1.8193822938       -4.6232556019    0   0   0
S                1.5756321638        0.9096773839       -7.6014065489    0   0   0
S                1.5756326175        0.9096785128      -10.7330757790    0   0   0
S                0.0000189190        1.8193860094       -1.4877129945    0   0   0
Mo              -0.0002974918        1.8194596777        3.0560566365
Mo               1.5798366763        0.9061197558        9.1701051373
S               -0.0068070085        1.8301863065        7.6288237355
S                1.5745390380        0.9094766514        4.6239661022
S                1.5754753254        0.9094744040        1.4886379859
S               -0.0036576856        1.7092107353       10.8059273004
Mo              -1.5756053507        4.5484193819       -9.1672481230    0   0   0
Mo               0.0000378379        3.6387394919       -3.0554952701    0   0   0
S               -1.5755913433        4.5484363582       -4.6232494962    0   0   0
S                0.0000148214        3.6387329039       -7.6014065489    0   0   0
S                0.0000152751        3.6387340328      -10.7330757790    0   0   0
S               -1.5755906502        4.5484413613       -1.4877305502    0   0   0
Mo              -1.5752562615        4.5481041654        3.0569719170
Mo              -0.0193401824        3.6150094878        9.2186472344
S               -1.5617562993        4.5445829512        7.6302571580
S                0.0003354638        3.6384358310        4.6248357235
S               -0.0001816888        3.6387846634        1.4885123738
S               -1.6527379018        4.5726708455       10.7694088640
Mo              -3.1512226931        7.2774749019       -9.1672481230    0   0   0
Mo              -1.5755910988        6.3678216792       -3.0555115988    0   0   0
S               -3.1512162438        7.2774954350       -4.6232578178    0   0   0
S               -1.5756025210        6.3677884239       -7.6014065489    0   0   0
S               -1.5756020673        6.3677895528      -10.7330757790    0   0   0
S               -3.1512127704        7.2774877076       -1.4877200710    0   0   0
Mo              -3.1510842349        7.2770072339        3.0566926909
Mo              -1.5957063663        6.3787158996        9.1818410873
S               -3.1485333794        7.2734419072        7.5901799041
S               -1.5751579470        6.3673149637        4.6251027023
S               -1.5755446849        6.3672815426        1.4890073752
S               -3.1768684158        7.2897032681       10.7392297309
Mo              -4.7268400355       10.0065304219       -9.1672481230    0   0   0
Mo              -3.1512405618        9.0968403586       -3.0554816746    0   0   0
S               -4.7268341792       10.0065523623       -4.6232463762    0   0   0
S               -3.1512198634        9.0968439439       -7.6014065489    0   0   0
S               -3.1512194097        9.0968450728      -10.7330757790    0   0   0
S               -4.7268370797       10.0065537885       -1.4877176751    0   0   0
Mo              -4.7272205680       10.0062001875        3.0562465097
Mo              -3.1534088952        9.0954182198        9.1564876700
S               -4.7348118984       10.0075453283        7.5945495497
S               -3.1515439487        9.0964658447        4.6239041205
S               -3.1512002606        9.0963121917        1.4887548483
S               -4.7223647016        9.9958152150       10.7304985217
Mo               3.1512517547        1.8193638619       -9.1672481230    0   0   0
Mo               4.7269020221        0.9097289540       -3.0554823951    0   0   0
S                3.1512612351        1.8193882564       -4.6232320683    0   0   0
S                4.7268719268        0.9096773839       -7.6014065489    0   0   0
S                4.7268723805        0.9096785128      -10.7330757790    0   0   0
S                3.1512592485        1.8193890201       -1.4877261251    0   0   0
Mo               3.1509012381        1.8190742737        3.0568492627
Mo               4.7273238207        0.9029159536        9.1475653305
S                3.1490709155        1.8073803291        7.5768276691
S                4.7270746305        0.9092967588        4.6236218175
S                4.7265158056        0.9092462765        1.4887369735
S                3.1696664223        1.8045099600       10.7246164626
Mo               1.5756344123        4.5484193819       -9.1672481230    0   0   0
Mo               3.1512756394        3.6387769522       -3.0554814834    0   0   0
S                1.5756504879        4.5484423799       -4.6232390542    0   0   0
S                3.1512545844        3.6387329039       -7.6014065489    0   0   0
S                3.1512550381        3.6387340328      -10.7330757790    0   0   0
S                1.5756466253        4.5484431864       -1.4877251801    0   0   0
Mo               1.5753269974        4.5483495849        3.0564181016
Mo               3.1976822026        3.6156186308        9.1440014457
S                1.5536535332        4.5637180988        7.6601205059
S                3.1506866253        3.6388464353        4.6249896854
S                3.1512595794        3.6383908917        1.4891416303
S                1.6545033147        4.4806144628       10.7160798166
Mo               0.0000170699        7.2774749019       -9.1672481230    0   0   0
Mo               1.5756764447        6.3678236689       -3.0554877708    0   0   0
S                0.0000381981        7.2774979204       -4.6232454413    0   0   0
S                1.5756372420        6.3677884239       -7.6014065489    0   0   0
S                1.5756376957        6.3677895528      -10.7330757790    0   0   0
S                0.0000328088        7.2774946042       -1.4877307940    0   0   0
Mo               0.0002075828        7.2768016828        3.0566816896
Mo               1.5803335193        6.3911585407        9.2249520665
S                0.0132297519        7.2679850585        7.6361885458
S                1.5757515173        6.3672894771        4.6243919013
S                1.5751624545        6.3673356741        1.4881053615
S               -0.0833261856        7.3520925674       10.7868936382
Mo              -1.5756002725       10.0065304219       -9.1672481230    0   0   0
Mo               0.0000873425        9.0968676911       -3.0554912329    0   0   0
S               -1.5755883952       10.0065504530       -4.6232240150    0   0   0
S                0.0000198996        9.0968439439       -7.6014065489    0   0   0
S                0.0000203533        9.0968450728      -10.7330757790    0   0   0
S               -1.5755859047       10.0065492576       -1.4877362381    0   0   0
Mo              -1.5756200643       10.0059699499        3.0565769909
Mo              -0.0051717833        9.1181179409        9.1616308747
S               -1.5768477098       10.0001859259        7.5808767192
S                0.0001042103        9.0959483705        4.6247125584
S                0.0000355750        9.0963650573        1.4889486637
S               -1.5859665092       10.0164501085       10.7285673135
Mo               6.3024915177        1.8193638619       -9.1672481230    0   0   0
Mo               7.8781001445        0.9096521684       -3.0554919963    0   0   0
S                6.3025008696        1.8193826232       -4.6232480596    0   0   0
S                7.8781116898        0.9096773839       -7.6014065489    0   0   0
S                7.8781121435        0.9096785128      -10.7330757790    0   0   0
S                6.3025042007        1.8193849068       -1.4877147524    0   0   0
Mo               6.3025168453        1.8190116795        3.0560098920
Mo               7.8769989595        0.9102197442        9.1597468349
S                6.3065865564        1.8154874059        7.5819559432
S                7.8779680608        0.9093491261        4.6240185944
S                7.8782803736        0.9092035734        1.4887719499
S                6.2996674223        1.8191083075       10.7197123106
Mo               4.7268741753        4.5484193819       -9.1672481230    0   0   0
Mo               6.3024679138        3.6387501714       -3.0554895197    0   0   0
S                4.7268748770        4.5484386753       -4.6232519432    0   0   0
S                6.3024943474        3.6387329039       -7.6014065489    0   0   0
S                6.3024948011        3.6387340328      -10.7330757790    0   0   0
S                4.7268770533        4.5484432419       -1.4877137856    0   0   0
Mo               4.7266699145        4.5483668148        3.0568202326
Mo               6.3092158808        3.6385184266        9.1493363954
S                4.7390532005        4.5581013890        7.5780064750
S                6.3026966961        3.6382536538        4.6235685810
S                6.3024472146        3.6387667183        1.4887239561
S                4.7500382072        4.5363526641       10.7287936373
Mo               3.1512568329        7.2774749019       -9.1672481230    0   0   0
Mo               4.7268384135        6.3678043337       -3.0554959052    0   0   0
S                3.1512606125        7.2774972547       -4.6232589675    0   0   0
S                4.7268770050        6.3677884239       -7.6014065489    0   0   0
S                4.7268774587        6.3677895528      -10.7330757790    0   0   0
S                3.1512629079        7.2774963749       -1.4877081835    0   0   0
Mo               3.1505708857        7.2771092696        3.0557612599
Mo               4.7298002496        6.3615688790        9.1736572480
S                3.1274173954        7.2702949696        7.6394810685
S                4.7258431392        6.3682816576        4.6240155785
S                4.7267865629        6.3674776233        1.4885935764
S                3.2593205114        7.3409975493       10.8408593838
Mo               1.5756394905       10.0065304219       -9.1672481230    0   0   0
Mo               3.1512330605        9.0968514907       -3.0554878870    0   0   0
S                1.5756499830       10.0065443759       -4.6232632674    0   0   0
S                3.1512596626        9.0968439439       -7.6014065489    0   0   0
S                3.1512601163        9.0968450728      -10.7330757790    0   0   0
S                1.5756503041       10.0065459699       -1.4877044377    0   0   0
Mo               1.5755229964       10.0060657333        3.0568152677
Mo               3.1472010133        9.1048704510        9.1795704532
S                1.5805855052       10.0061491430        7.5935532125
S                3.1509401536        9.0958530075        4.6243928147
S                3.1508780587        9.0968774041        1.4885800008
S                1.5664974699       10.0191859379       10.7394474428
Mo               9.4537312807        1.8193638619       -9.1672481230    0   0   0
Mo              11.0293863460        0.9096952246       -3.0554894007    0   0   0
S                9.4537395970        1.8193770750       -4.6232328036    0   0   0
S               11.0293514528        0.9096773839       -7.6014065489    0   0   0
S               11.0293519066        0.9096785128      -10.7330757790    0   0   0
S                9.4537393632        1.8193794783       -1.4877366147    0   0   0
Mo               9.4537438405        1.8191465044        3.0568401861
Mo              11.0208898055        0.9026190304        9.1750796260
S                9.4560183326        1.8160363430        7.5930118812
S               11.0296162181        0.9096399152        4.6244781695
S               11.0289100871        0.9094619777        1.4887241381
S                9.4418552485        1.8195981866       10.7353795173
Mo               7.8781139383        4.5484193819       -9.1672481230    0   0   0
Mo               9.4537539161        3.6387607911       -3.0554933032    0   0   0
S                7.8781175448        4.5484378232       -4.6232366318    0   0   0
S                9.4537341104        3.6387329039       -7.6014065489    0   0   0
S                9.4537345641        3.6387340328      -10.7330757790    0   0   0
S                7.8781194018        4.5484411585       -1.4877377057    0   0   0
Mo               7.8783510876        4.5482074824        3.0565720356
Mo               9.4391533430        3.6351280669        9.1627939660
S                7.8838417428        4.5505681005        7.5832573700
S                9.4542163334        3.6385850131        4.6247527229
S                9.4540189023        3.6384832833        1.4890381245
S                7.8678878995        4.5490033294       10.7285019343
Mo               6.3024965959        7.2774749019       -9.1672481230    0   0   0
Mo               7.8781361655        6.3678242352       -3.0555014130    0   0   0
S                6.3024973331        7.2774953556       -4.6232392528    0   0   0
S                7.8781167680        6.3677884239       -7.6014065489    0   0   0
S                7.8781172217        6.3677895528      -10.7330757790    0   0   0
S                6.3024989866        7.2774929744       -1.4877349119    0   0   0
Mo               6.3022040457        7.2773491066        3.0564625772
Mo               7.8759040213        6.3681811736        9.1572072918
S                6.2922443273        7.2786681085        7.5952202558
S                7.8779478970        6.3676634326        4.6241082835
S                7.8781765197        6.3675784394        1.4888325366
S                6.3128219359        7.2759939611       10.7336713262
Mo               4.7268792535       10.0065304219       -9.1672481230    0   0   0
Mo               6.3025111524        9.0968738021       -3.0554915260    0   0   0
S                4.7268840634       10.0065452125       -4.6232380477    0   0   0
S                6.3024994256        9.0968439439       -7.6014065489    0   0   0
S                6.3024998793        9.0968450728      -10.7330757790    0   0   0
S                4.7268847312       10.0065459141       -1.4877283294    0   0   0
Mo               4.7265224180       10.0062939683        3.0566196115
Mo               6.2956683340        9.0969196872        9.1659582466
S                4.7157546838       10.0060694269        7.5991513826
S                6.3021010528        9.0966746041        4.6240649926
S                6.3020398706        9.0966013914        1.4885874582
S                4.7256058278       10.0059495484       10.7452917436
Pt               1.5782096362        6.2688365800       12.0964527923
Pd               0.1150411463        3.6433717779       12.1846029980
Pt               0.6827634322        5.1750662503       14.1429514138
End final coordinates



     Writing all to output data dir ./outdir/pwscf.save/ :
     XML data file, charge density, pseudopotentials, collected wavefunctions
 
     init_run     :    175.41s CPU    178.70s WALL (       1 calls)
     electrons    : 231717.74s CPU 234681.73s WALL (      29 calls)
     update_pot   :     54.65s CPU     56.19s WALL (      28 calls)
     forces       :   3816.65s CPU   3883.20s WALL (      29 calls)
     force_dftd3  :     19.97s CPU     20.87s WALL (      29 calls)

     Called by init_run:
     wfcinit      :    151.44s CPU    153.25s WALL (       1 calls)
     potinit      :      1.57s CPU      1.69s WALL (       1 calls)
     hinit0       :     12.78s CPU     12.87s WALL (       1 calls)

     Called by electrons:
     c_bands      : 203168.34s CPU 205095.46s WALL (     397 calls)
     sum_band     :  25442.11s CPU  25998.77s WALL (     397 calls)
     v_of_rho     :    142.90s CPU    160.29s WALL (     402 calls)
     newd         :   2535.59s CPU   3001.23s WALL (     402 calls)
     PAW_pot      :    493.13s CPU    497.17s WALL (     430 calls)
     mix_rho      :     39.53s CPU     45.49s WALL (     397 calls)
     energy_dftd3 :     11.72s CPU     11.78s WALL (      29 calls)

     Called by c_bands:
     init_us_2    :    856.34s CPU    860.49s WALL (    3408 calls)
     init_us_2:cp :    856.31s CPU    860.47s WALL (    3408 calls)
     cegterg      : 199584.51s CPU 201488.58s WALL (    1608 calls)

     Called by *egterg:
     cdiaghg      :  12565.75s CPU  12996.13s WALL (   20286 calls)
     h_psi        : 100769.60s CPU 101405.51s WALL (   20502 calls)
     s_psi        :  22659.08s CPU  22802.26s WALL (   20502 calls)
     g_psi        :    175.56s CPU    176.42s WALL (   18890 calls)

     Called by h_psi:
     h_psi:calbec :  23043.85s CPU  23116.99s WALL (   20502 calls)
     vloc_psi     :  54608.97s CPU  54880.72s WALL (   20502 calls)
     add_vuspsi   :  22699.79s CPU  22841.40s WALL (   20502 calls)

     General routines
     calbec       :  33669.47s CPU  33775.61s WALL (   22666 calls)
     fft          :    160.90s CPU    176.91s WALL (    5539 calls)
     ffts         :      7.20s CPU      7.73s WALL (     799 calls)
     fftw         :  41796.32s CPU  42000.92s WALL (10894540 calls)
     interpolate  :     12.48s CPU     13.67s WALL (     402 calls)
 
     Parallel routines
 
     PWSCF        :   2d17h48m CPU   2d18h41m WALL

 
   This run was terminated on:  19:12:31  14Apr2024            

=------------------------------------------------------------------------------=
   JOB DONE.
=------------------------------------------------------------------------------=
