lammps.data (written by ASE) 

393 	 atoms 
6  atom types
0.0      24.574830899999998  xlo xhi
0.0      20.701456793999998  ylo yhi
0.0      36.159325252999999  zlo zhi
    -7.3724492699999997                       0                       0  xy xz yz


Atoms 

     1   1   6   0.0   0.0062272621500597666      5.3987134579378733       5.849242630389325
     2   1   6   0.0      1.3834606599040649       1.278112745199536      6.4874126678095063
     3   1   6   0.0      3.8973327464875287      2.5122089557864595      5.0000000167850844
     4   1   5   0.0     0.85835238216170018      4.6869382085966365      7.1348636830830499
     5   1   5   0.0     -1.1437843959646772      6.5085943446975358      6.4620451293375893
     6   1   5   0.0      2.9445678942802958      1.7813878693597791      6.2260003445846035
     7   1   5   0.0    -0.95256695355147813      4.1193277180557031      5.1566451788457508
     8   1   5   0.0     0.44202143307493241      1.8610455224938316      5.2100839246980772
     9   1   5   0.0     0.87068445499441194      1.7965011542053499      7.9834773775431644
    10   1   6   0.0     0.10834722242266749      1.0673024202461587      9.2921400201119049
    11   1   6   0.0    -0.93294363406250957      3.8868206930714981      9.9611882771725622
    12   1   6   0.0      1.5338675800804447      5.1015760087092934      8.5903033908949613
    13   1   5   0.0       1.259954856067959     0.54887136623934918      10.365216269693892
    14   1   5   0.0      4.0474975185676358      2.2317906862127881      9.9905725381308823
    15   1   5   0.0      0.6164273958633254      4.5030431104100019      9.8634557680989943
    16   1   5   0.0      1.5599280848399872      6.7511958761480022      8.7552804931584021
    17   1   5   0.0      3.0433988599420538       4.404325750214455      8.6777307092273741
    18   1   5   0.0      3.3949295187211717      4.5442135259367484      11.394223269305137
    19   1   6   0.0     -2.4513310735246727      12.299756332254281      5.8483702143489467
    20   1   6   0.0     -1.0744258284026418      8.1789878135071721      6.4874105705686418
    21   1   6   0.0      1.4398496589450118      9.4126945468859731      5.0000000167850844
    22   1   5   0.0     -1.5981260764636918      11.588701327997821      7.1336650737695626
    23   1   5   0.0     -3.6008855636026942       13.40937540768987      6.4621810160818898
    24   1   5   0.0     0.48677003018626375      8.6822177877901474      6.2263081689204816
    25   1   5   0.0     -3.4100500410939949      11.019813309155218      5.1566451788457508
    26   1   5   0.0     -2.0154616618400341      8.7615311342948026      5.2100839246980772
    27   1   5   0.0     -1.5875240176617127      8.6968146747959931      7.9834703626340655
    28   1   6   0.0     -2.3494379684310691       7.967387727977103      9.2925094237786912
    29   1   6   0.0     -3.3897136705990474      10.787577162733161      9.9612276185184374
    30   1   6   0.0    -0.92316001297134032      12.001786270433447      8.5902053268048757
    31   1   5   0.0     -1.1970887990933026      7.4481380969657458      10.363990613205118
    32   1   5   0.0      1.5897318573320154      9.1322842473731676      9.9898300063868124
    33   1   5   0.0     -1.8403619589477833       11.40250360677199      9.8627663182443968
    34   1   5   0.0    -0.89789289925495586       13.65135581263069       8.756596294845032
    35   1   5   0.0     0.58640057974856696      11.304849928829432      8.6771367199914433
    36   1   5   0.0     0.93845557940718072      11.444424388003151      11.393470468312694
    37   1   6   0.0     -4.9083294692198658      19.200503030828337      5.8478575474355097
    38   1   6   0.0     -3.5316871821609137       15.07979829326961      6.4877550966196527
    39   1   6   0.0     -1.0176334285975051      16.313180137985487      5.0000000167850844
    40   1   5   0.0     -4.0545748167460776      18.489936332534736      7.1331568182938065
    41   1   5   0.0      -6.058293324373536      20.309326404369134      6.4612525169280435
    42   1   5   0.0     -1.9707220075096668      15.582849406965886      6.2261445479737132
    43   1   5   0.0     -5.8675331360089613      17.920298920956188      5.1566451788457508
    44   1   5   0.0     -4.4729447493825507      15.662016725394315      5.2100839246980772
    45   1   5   0.0     -4.0452722651721569       15.59760443240018        7.98348526027607
    46   1   6   0.0     -4.8072245698800993      14.867903998635587      9.2925201630982919
    47   1   6   0.0     -5.8467941167396491      17.688354830686581      9.9606809979985869
    48   1   6   0.0      -3.380146924848054      18.902539986801354      8.5898220379571946
    49   1   5   0.0     -3.6544269049634415      14.349039952958472      10.364021854862136
    50   1   5   0.0    -0.86728229082978514      16.032551500207877       9.990432131470925
    51   1   5   0.0     -4.2975392667843773       18.30251107702539      9.8623652028493645
    52   1   5   0.0     -3.3540839134557592      20.552062764407701      8.7565642576828591
    53   1   5   0.0     -1.8708970194278007      18.205256171245054      8.6771313684113061
    54   1   5   0.0      -1.517768571495608      18.345440785156317      11.393546511373703
    55   1   6   0.0      4.9216381138852627      5.3998027271914601      5.8488103094966011
    56   1   6   0.0      6.2986725218610209       1.278617840043853      6.4876093383795572
    57   1   6   0.0      8.8122989264875287      2.5122089557864595      5.0000000167850844
    58   1   5   0.0      5.7743559886481437      4.6885688623482995      7.1334074747364609
    59   1   5   0.0       3.771775285861422      6.5087159450547443        6.46115344037685
    60   1   5   0.0      7.8596812701449359      1.7823403640883277      6.2263984949149647
    61   1   5   0.0      3.9623992264485213      4.1193277180557031      5.1566451788457508
    62   1   5   0.0      5.3569876130749323      1.8610455224938316      5.2100839246980772
    63   1   5   0.0      5.7848260240860787      1.7968178243899278      7.9834624075825102
    64   1   6   0.0      5.0228293839257097      1.0671483807061546      9.2921274728260439
    65   1   6   0.0      3.9820358974431183      3.8869568879557459      9.9611754044527707
    66   1   6   0.0      6.4490587156250188      5.1013817669401949      8.5898630426320324
    67   1   5   0.0      6.1747617665888948     0.54847638244371966      10.364227131351599
    68   1   5   0.0      8.9626976804476008      2.2316833698607677      9.9895277505870208
    69   1   5   0.0      5.5315051038183984      4.5016171733645747      9.8625177228832808
    70   1   5   0.0      6.4755021871768585      6.7506422777904165      8.7572686413387864
    71   1   5   0.0      7.9589856748389503      4.4047469627558424      8.6780169102867522
    72   1   5   0.0      8.3091518235047932      4.5431175080082475      11.393740072241782
    73   1   6   0.0      2.4639727941416902      12.300059525790486      5.8479651214281372
    74   1   6   0.0       3.841155223696409      8.1789727428466268      6.4873951305367585
    75   1   6   0.0      6.3548158389450116      9.4126945468859731      5.0000000167850844
    76   1   5   0.0      3.3182791884314295      11.589499555470342      7.1329643783648109
    77   1   5   0.0      1.3139411935516772      13.409442024977835       6.461726384885484
    78   1   5   0.0      5.4019177051423908      8.6826482124798083      6.2263001415502757
    79   1   5   0.0      1.5049161389060046      11.019813309155218      5.1566451788457508
    80   1   5   0.0      2.8995045181599659      8.7615311342948026      5.2100839246980772
    81   1   5   0.0      3.3275650905574143      8.6971754183820842      7.9832581435541554
    82   1   6   0.0      2.5649515410445143      7.9676457302331274      9.2915740905123698
    83   1   6   0.0      1.5249820560144494      10.787541369914363      9.9604914508156099
    84   1   6   0.0      3.9923355924406705      12.001497112484948      8.5901753145649167
    85   1   5   0.0      3.7174151135925695      7.4480052350160415      10.363280588694451
    86   1   5   0.0      6.5054966456117711      9.1324339189057877      9.9895325959366073
    87   1   5   0.0      3.0745394516278957       11.40097670872178      9.8617330293659666
    88   1   5   0.0      4.0187165407077323      13.651045456390433      8.7586237482119689
    89   1   5   0.0      5.5019335929681734       11.30476853070132      8.6772796578041689
    90   1   5   0.0      5.8543330260842321      11.444521664148626      11.393353456736177
    91   1   6   0.0   0.0069491846699943861       19.20102255458804      5.8470677554533337
    92   1   6   0.0       1.383418457546959       15.07951006688667      6.4872894729883699
    93   1   6   0.0      3.8973327514024945      16.313180137985487      5.0000000167850844
    94   1   5   0.0     0.86167718475865385      18.490488047059753      7.1318967381273906
    95   1   5   0.0     -1.1429601291039777      20.309428835177354      6.4613366958372334
    96   1   5   0.0      2.9444912724150325      15.583283102485721      6.2267706105311431
    97   1   5   0.0    -0.95256695600896135      17.920298920956188      5.1566451788457508
    98   1   5   0.0     0.44202143061744964      15.662016725394315      5.2100839246980772
    99   1   5   0.0     0.87001007739981939      15.597321629798916      7.9832302647143853
   100   1   6   0.0     0.10745910277883927      14.867991897021135      9.2917441116597104
   101   1   6   0.0     -0.9320147226568718      17.687734801354143      9.9606907248570788
   102   1   6   0.0      1.5352627448377814       18.90196417578063      8.5894901315106971
   103   1   5   0.0       1.260764262528413      14.348474927396737      10.362681790268262
   104   1   5   0.0      4.0481330949617194      16.032597726560898      9.9898386846248712
   105   1   5   0.0     0.61732984263356727       18.30121578687379      9.8614139233206082
   106   1   5   0.0      1.5610014102394096      20.551303559181239       8.758649927563452
   107   1   5   0.0      3.0448107896490315      18.204915259654573      8.6773310402053543
   108   1   5   0.0      3.3951293759909489      18.344501187435352      11.393800747589555
   109   1   6   0.0       9.836597840534667      5.3991616444774637      5.8491329229965086
   110   1   6   0.0      11.212946878593973      1.2782189022699757      6.4879650376620717
   111   1   6   0.0      13.727265106487527      2.5122089557864595      5.0000000167850844
   112   1   5   0.0      10.689448146603786      4.6878825883541211       7.134380919931596
   113   1   5   0.0      8.6870722111380569      6.5083346449220558      6.4624220541440272
   114   1   5   0.0      12.774341223177093       1.781539010695832      6.2262918249054682
   115   1   5   0.0      8.8773654064485203      4.1193277180557031      5.1566451788457508
   116   1   5   0.0      10.271953793074932      1.8610455224938316      5.2100839246980772
   117   1   5   0.0       10.69913594551431      1.7960995873464598      7.9835640152864702
   118   1   6   0.0      9.9377537007012702      1.0669458169514252      9.2928851191680693
   119   1   6   0.0       8.897303930091061      3.8868540017154793      9.9614748398251916
   120   1   6   0.0      11.364109990891977      5.1017635225049336      8.5905503229271147
   121   1   5   0.0      11.090477255300385     0.54869120146087103      10.364694852223746
   122   1   5   0.0      13.877622287206165      2.2319477067625701      9.9905131645188163
   123   1   5   0.0      10.446443841104733      4.5025868088993493      9.8637288794826308
   124   1   5   0.0      11.390476715246916      6.7512974995994037      8.7555961279085341
   125   1   5   0.0       12.87433282124001      4.4048369933914397       8.677875599643663
   126   1   5   0.0      13.223679608181405      4.5435179569884703      11.394091685520541
   127   1   6   0.0      7.3786561153805481       12.30061778197585      5.8473487857292001
   128   1   6   0.0      8.7557860702988446      8.1788553241836901      6.4877283748782908
   129   1   6   0.0       11.26978201894501      9.4126945468859731      5.0000000167850844
   130   1   5   0.0      8.2330860129404595       11.58986586774831      7.1324191318993204
   131   1   5   0.0      6.2289583098036836      13.409291960117534      6.4611153646073589
   132   1   5   0.0      10.317019457112018       8.682288648876753      6.2263966507893764
   133   1   5   0.0      6.4198823189060041      11.019813309155218      5.1566451788457508
   134   1   5   0.0      7.8144706981599654      8.7615311342948026      5.2100839246980772
   135   1   5   0.0      8.2424881835063974      8.6967701045595156      7.9836835580157572
   136   1   6   0.0      7.4802469451391156      7.9674406616021258       9.292549958382299
   137   1   6   0.0      6.4408884248099856      10.787537353831747      9.9607920071271128
   138   1   6   0.0      8.9074449699803253      12.002454347847102      8.5890262435270266
   139   1   5   0.0      8.6329169855864603      7.4489660310287649      10.364539728718411
   140   1   5   0.0      11.420055979456292      9.1329141513004952      9.9897949318413168
   141   1   5   0.0      7.9894490038450545       11.40248586562352      9.8615619957575191
   142   1   5   0.0      8.9328032317445185      13.652176459780918      8.7552067642942095
   143   1   5   0.0      10.416232352508208      11.304525267882532      8.6765913288886534
   144   1   5   0.0      10.766504836467357      11.444288814162606      11.393024334557722
   145   1   6   0.0      4.9213281589155704      19.200222070656729      5.8487794655921599
   146   1   6   0.0      6.2982577355776739      15.079389025468794      6.4879883242675342
   147   1   6   0.0      8.8122989314024931      16.313180137985487      5.0000000167850844
   148   1   5   0.0      5.7754082190127196       18.48966168630745      7.1339469718692357
   149   1   5   0.0      3.7714124335682171      20.309478208151805      6.4613315250537218
   150   1   5   0.0      7.8593236572056799      15.583025327945723      6.2265694200454345
   151   1   5   0.0      3.9623992239910382      17.920298920956188      5.1566451788457508
   152   1   5   0.0      5.3569876106174492      15.662016725394315      5.2100839246980772
   153   1   5   0.0      5.7845479795343095      15.596888865844639      7.9835453570746404
   154   1   6   0.0      5.0234669508810965      14.867734329495702      9.2932932133128752
   155   1   6   0.0      3.9831038286671578      17.687466075743501      9.9611651352043982
   156   1   6   0.0       6.449026561916269      18.902828295990126      8.5904849468670577
   157   1   5   0.0      6.1759076368891348      14.349963196528572      10.365111696925263
   158   1   5   0.0      8.9626270597560431      16.033242742551685      9.9898928151347768
   159   1   5   0.0      5.5320103500542857      18.303248918348444      9.8633990341176734
   160   1   5   0.0      6.4743464648269127      20.552445720656934      8.7561754364584132
   161   1   5   0.0      7.9590200402824802      18.205963995455757      8.6779530890776808
   162   1   5   0.0      8.3104526209114766      18.344877767635893      11.394306869665122
   163   1   6   0.0       14.75128505442674      5.3987138512655521      5.8487795740701349
   164   1   6   0.0      16.128332494435327       1.278514125745315      6.4875157942051276
   165   1   6   0.0      18.642231286487529      2.5122089557864595      5.0000000167850844
   166   1   5   0.0      15.603055377774744      4.6876540028682028      7.1350072356043039
   167   1   5   0.0      13.601037214984673      6.5086019628336365       6.460984974080497
   168   1   5   0.0      17.689406353733709      1.7818738567594752      6.2263238620676429
   169   1   5   0.0      13.792331586448521      4.1193277180557031      5.1566451788457508
   170   1   5   0.0       15.18691997307493      1.8610455224938316      5.2100839246980772
   171   1   5   0.0      15.614736591126036      1.7963453343400613      7.9832276612429673
   172   1   6   0.0      14.852544155915439      1.0669816718745924      9.2919615738417818
   173   1   6   0.0      13.812312993170982      3.8871465132999785       9.961426386329352
   174   1   6   0.0      16.278693464592887      5.1017175031664808      8.5907218627661148
   175   1   5   0.0      16.005082384342284     0.54695337626738505       10.36300064319834
   176   1   5   0.0      18.792900407822195      2.2321038992540809      9.9896905760286376
   177   1   5   0.0      15.361436507857478      4.5023407513838958      9.8634270575947447
   178   1   5   0.0      16.303809067104325      6.7514261798548354      8.7558474352190423
   179   1   5   0.0      17.788386277275489       4.404965176811908        8.67838034766487
   180   1   5   0.0      18.138116330822111      4.5437338524813757      11.394509144930588
   181   1   6   0.0      12.293792527691673      12.300174418875693       5.848411146705133
   182   1   6   0.0      13.670723421564714      8.1789873373736661      6.4873231011608548
   183   1   6   0.0      16.184748198945012      9.4126945468859731      5.0000000167850844
   184   1   5   0.0      13.146325663620749      11.589874562360164      7.1341156189622152
   185   1   5   0.0      11.143622588006076      13.409416582887435      6.4619692309138834
   186   1   5   0.0      15.232031638737981      8.6816760306658498      6.2253123049436896
   187   1   5   0.0      11.334848498906004      11.019813309155218      5.1566451788457508
   188   1   5   0.0      12.729436878159964      8.7615311342948026      5.2100839246980772
   189   1   5   0.0      13.157729127318241      8.6972715145445214      7.9835087276781591
   190   1   6   0.0      12.395024385522838      7.9682387855673618      9.2919993964959975
   191   1   6   0.0      11.354708137341357      10.788082361084763      9.9609085486324034
   192   1   6   0.0      13.821962774818106      12.002239487427037      8.5901791836127188
   193   1   5   0.0      13.546866219764086      7.4480409243275556      10.364124330389904
   194   1   5   0.0      16.334793067967674      9.1324720509892021      9.9904201265749411
   195   1   5   0.0      12.903849938159524      11.403275833214778       9.862717973226534
   196   1   5   0.0      13.848227887162237      13.651640685377632      8.7560827239484631
   197   1   5   0.0      15.331396259140146       11.30509635897111      8.6781979961876186
   198   1   5   0.0      15.683526934533036      11.444809559308258      11.393425160678154
   199   1   6   0.0      9.8363661514864251      19.200653406210492      5.8483315238709253
   200   1   6   0.0      11.213582860472767      15.079559108637813      6.4874777545949618
   201   1   6   0.0      13.727265111402495      16.313180137985487      5.0000000167850844
   202   1   5   0.0      10.689468607607994      18.490245777910893      7.1335172906072541
   203   1   5   0.0      8.6859902575155061      20.309889132069166      6.4614282874080988
   204   1   5   0.0      12.774542107674799      15.583003632819002      6.2264061968512436
   205   1   5   0.0       8.877365403991039      17.920298920956188      5.1566451788457508
   206   1   5   0.0      10.271953790617447      15.662016725394315      5.2100839246980772
   207   1   5   0.0      10.700281914113873      15.597810598208392      7.9837220315378259
   208   1   6   0.0      9.9378500979329587      14.868508067144836      9.2919124333187639
   209   1   6   0.0      8.8978639585399932      17.688524375617725      9.9610794376035496
   210   1   6   0.0      11.364530026359203      18.902976642629515      8.5899778123303854
   211   1   5   0.0      11.090079145497286      14.348665132381761      10.363078385747636
   212   1   5   0.0       13.87799771444034      16.033127166318405      9.9904396526105774
   213   1   5   0.0      10.447191545079765      18.302492114490967      9.8621487531284018
   214   1   5   0.0      11.390159161739506      20.552320787365183      8.7572291915149361
   215   1   5   0.0      12.873689921546315       18.20541706296726      8.6780130050796256
   216   1   5   0.0      13.225294636578354      18.344740827499201      11.393808160251233
   217   1   6   0.0      19.666170530682063      5.3992638889725688      5.8494570551880765
   218   1   6   0.0      21.043256545802716      1.2786238641677801      6.4875659833485795
   219   1   6   0.0      23.557197466487526      2.5122089557864595      5.0000000167850844
   220   1   5   0.0      20.518155431623555      4.6874399084020393      7.1352198162774654
   221   1   5   0.0      18.516905684475997      6.5088400295867679      6.4611608168792021
   222   1   5   0.0      22.604487983831792      1.7824240393766893      6.2265320674624487
   223   1   5   0.0      18.707297766448519      4.1193277180557031      5.1566451788457508
   224   1   5   0.0      20.101886153074933      1.8610455224938316      5.2100839246980772
   225   1   5   0.0      20.529553255397357      1.7965119189628829      7.9831859695409504
   226   1   6   0.0      19.767519553934509      1.0669838041246422      9.2924324405752277
   227   1   6   0.0      18.726645078639201      3.8870629208174448      9.9615421684888119
   228   1   6   0.0      21.193758125770234      5.1014608465051481      8.5911106839905607
   229   1   5   0.0      20.920387918182183     0.54779530451519709      10.363384799869829
   230   1   5   0.0       23.70725719099547      2.2318994102638698      9.9895369712149602
   231   1   5   0.0      20.276016995716436      4.5018060741578205      9.8631922389365503
   232   1   5   0.0      21.220008205690306      6.7511934540775576      8.7572960139480038
   233   1   5   0.0      22.703514690479157      4.4046415716393046      8.6775670521212795
   234   1   5   0.0       23.05335945687894      4.5440931262640349      11.393661498028006
   235   1   6   0.0       17.20948297956544      12.300421449359616      5.8479314209370017
   236   1   6   0.0      18.585730503913265      8.1788124514666709      6.4871709065608645
   237   1   6   0.0      21.099714378945009      9.4126945468859731      5.0000000167850844
   238   1   5   0.0      18.062455589652984      11.589754204090363      7.1336672433290778
   239   1   5   0.0      16.058916814966278      13.409225860365991      6.4612369684181852
   240   1   5   0.0      20.146711868463111      8.6825236104113657      6.2265533291456974
   241   1   5   0.0      16.249814678906002      11.019813309155218      5.1566451788457508
   242   1   5   0.0      17.644403058159966      8.7615311342948026      5.2100839246980772
   243   1   5   0.0      18.072390520435484      8.6971530608087466      7.9834944809040094
   244   1   6   0.0      17.309869288732347      7.9674655861561066      9.2920834307678852
   245   1   6   0.0      16.270477334345777      10.788021540204701       9.960847439372726
   246   1   6   0.0      18.737279244457753      12.002039511354408      8.5897516357509272
   247   1   5   0.0       18.46286135284884      7.4468442973190347      10.362434424324205
   248   1   5   0.0      21.250242209746901      9.1322484959572847      9.9903659960650373
   249   1   5   0.0      17.819615738922312      11.402454730632501      9.8623708437041042
   250   1   5   0.0      18.762641831392184      13.651349664298023      8.7578482753225924
   251   1   5   0.0      20.246784347209488      11.305095717225948      8.6777075672592137
   252   1   5   0.0      20.597260283736176      11.444044185047671      11.393953846172677
   253   1   6   0.0      14.751647668344086      19.200783018031476      5.8482855292092033
   254   1   6   0.0      16.128131396136585      15.079393621192203      6.4875278714197631
   255   1   6   0.0      18.642231291402492      16.313180137985487      5.0000000167850844
   256   1   5   0.0      15.605018415267036      18.490106457106666      7.1332063565694028
   257   1   5   0.0       13.60190880805472      20.309668806464508      6.4619246464658469
   258   1   5   0.0      17.689429191124066      15.583049217426863      6.2263178596196509
   259   1   5   0.0      13.792331583991038      17.920298920956188      5.1566451788457508
   260   1   5   0.0      15.186919970617447      15.662016725394315      5.2100839246980772
   261   1   5   0.0      15.615116638428422      15.597693510768764      7.9836790742594266
   262   1   6   0.0      14.852777550456945      14.868426358494869      9.2920121607378121
   263   1   6   0.0      13.812995517322017      17.688111340151771      9.9612392618211683
   264   1   6   0.0      16.279631992129858      18.902660986816318      8.5899029986864353
   265   1   5   0.0      16.005061670217316      14.349011322843728      10.364014080607209
   266   1   5   0.0      18.792772095257614       16.03290667510209      9.9902400169758554
   267   1   5   0.0      15.362091279651974      18.302628247270846      9.8626382419143486
   268   1   5   0.0      16.306343924049415      20.551922035904418      8.7569282374508557
   269   1   5   0.0      17.789217833031028      18.205509805493694      8.6772572028631867
   270   1   5   0.0      18.141032471183578      18.345314175046568      11.393252897652648
   271   1   2   0.0      1.0975595371540379    -0.26652183705990867      10.882666808746624
   272   1   2   0.0      2.4677933300574906      4.3122761843420578      11.599068161060197
   273   1   2   0.0     -1.3606886361414054      6.6335288785367332      10.883714705992455
   274   1   2   0.0    0.011473809150944198      11.212925875889576      11.599025203781798
   275   1   2   0.0      -3.817407466102797       13.53427356906948      10.883542442966951
   276   1   2   0.0      -2.444298938970459       18.11358672552231      11.599686774796627
   277   1   2   0.0      6.0124242968269135    -0.26657980113893193      10.883117570895227
   278   1   2   0.0      7.3816855285100829      4.3126170338281709      11.597420633723697
   279   1   2   0.0      3.5532868120083432      6.6338098594097987      10.884116942326569
   280   1   2   0.0      4.9272554754245643      11.213529613175519      11.598532677612527
   281   1   2   0.0      1.0972050943679665      13.535019132035917      10.883467593163676
   282   1   2   0.0      2.4683334332335285      18.112750552279486      11.598243836922407
   283   1   2   0.0      10.928142351150747    -0.26632933421318133      10.882666483312695
   284   1   2   0.0      12.296402485319994      4.3117866569932497       11.59797423299332
   285   1   2   0.0      8.4700751518250197      6.6339270710581655      10.882799658107603
   286   1   2   0.0      9.8389952209607348      11.213522864500604      11.596257315911657
   287   1   2   0.0      6.0143708224903234      13.533549183693347      10.882698628952845
   288   1   2   0.0      7.3835861238145419       18.11258827355968       11.59936416129672
   289   1   2   0.0      15.840515719381946    -0.26686082341491046      10.884219164739058
   290   1   2   0.0      17.210619086285366      4.3128172376168248       11.59758063873794
   291   1   2   0.0      13.382597686822297      6.6340635557628085      10.884050300690127
   292   1   2   0.0      14.756288799640851      11.212543644191333      11.598988176632739
   293   1   2   0.0      10.926260155022183       13.53471744970606      10.884057387917878
   294   1   2   0.0      12.298353527837323      18.113212877914066      11.598843069260498
   295   1   2   0.0      20.757077206477099    -0.26665382954842726       10.88299650947428
   296   1   2   0.0      22.125685570915167      4.3130558840107467      11.596990337753185
   297   1   2   0.0      18.297010598909345       6.633909992356311      10.885069740546985
   298   1   2   0.0      19.670182617574799      11.212179339954671      11.598366308557038
   299   1   2   0.0      15.841519984591574      13.534769534571353      10.883272152010683
   300   1   2   0.0      17.213608199149707      18.113817339750995      11.597794376509512
   301   2   1   0.0      0.6516831382121131       13.50888344764493       22.74526369993194
   302   2   1   0.0      1.5440538661167578      13.579847991037207      21.480342807948151
   303   2   1   0.0      1.5312626955552195       15.00183088572919      20.869975228022678
   304   2   1   0.0      1.1682584197433803      12.509700041297032      20.425079622765452
   305   2   1   0.0      3.4075563126275688      12.265491005900722      22.476654481233751
   306   2   1   0.0      5.5323003671127893      11.078859668323959      23.122457943706262
   307   2   1   0.0      6.0086607684686122      11.123279636885476      24.609662355127607
   308   2   1   0.0      4.8189286856945506      11.042460193976165      25.579084513119636
   309   2   1   0.0      3.3564727813476898      12.342839915095434      27.020721889422632
   310   2   1   0.0      3.8880655676728297      12.170335898380436      28.461061368716059
   311   2   1   0.0      4.9356220678425569      13.268085360525088      28.846866884502546
   312   2   1   0.0      4.6967690236047073      14.625372557208834      28.104383956694313
   313   2   1   0.0      3.1952291848726357      14.830049915020258      27.771077079746359
   314   2   1   0.0      2.6764926514062886      13.723704273627726       26.79808670522867
   315   2   1   0.0      6.7234545342026077       10.78635358593759      22.188568622258828
   316   2   1   0.0      12.810990681402219      5.8416747806579021       14.62726269612557
   317   2   1   0.0      11.476973600265142       5.611171882341929       15.38135617085894
   318   2   1   0.0       11.32357741429664      4.1291535404666702      15.799499414590834
   319   2   1   0.0      10.246062652084314      6.1009253545795135      14.578227233257506