
     Program PWSCF v.7.3 starts on 19Mar2024 at 14:38:26 

     This program is part of the open-source Quantum ESPRESSO suite
     for quantum simulation of materials; please cite
         "P. Giannozzi et al., J. Phys.:Condens. Matter 21 395502 (2009);
         "P. Giannozzi et al., J. Phys.:Condens. Matter 29 465901 (2017);
         "P. Giannozzi et al., J. Chem. Phys. 152 154105 (2020);
          URL http://www.quantum-espresso.org", 
     in publications or presentations arising from this work. More details at
     http://www.quantum-espresso.org/quote

     Parallel version (MPI & OpenMP), running on      36 processor cores
     Number of MPI processes:                36
     Threads/MPI process:                     1

     MPI processes distributed on     1 nodes
     558315 MiB available memory on the printing compute node when the environment starts
 
     Waiting for input...
     Reading input from standard input
Warning: card &CELL ignored
Warning: card / ignored

     Current dimensions of program PWSCF are:
     Max number of different atomic species (ntypx) = 10
     Max number of k-points (npk) =  40000
     Max angular momentum in pseudopotentials (lmaxx) =  4
     file Mo.pbe-spn-kjpaw_psl.1.0.0.UPF: wavefunction(s)  4S 4D renormalized
     file S.pbe-n-kjpaw_psl.1.0.0.UPF: wavefunction(s)  3S 3P renormalized
     file Pd.pbe-spn-kjpaw_psl.1.0.0.UPF: wavefunction(s)  4S 5S 4D renormalized
     file Pt.pbe-spfn-kjpaw_psl.1.0.0.UPF: wavefunction(s)  5P 4F renormalized
 
     R & G space division:  proc/nbgrp/npool/nimage =      36
     Subspace diagonalization in iterative solution of the eigenvalue problem:
     one sub-group per band group will be used
     scalapack distributed-memory algorithm (size of sub-group:  6*  6 procs)

 
     Parallelization info
     --------------------
     sticks:   dense  smooth     PW     G-vecs:    dense   smooth      PW
     Min         585     334     89               198743    85850   11735
     Max         586     335     90               198750    85861   11748
     Sum       21073   12049   3205              7154885  3090769  422587
 
     Using Slab Decomposition
 


     bravais-lattice index     =            0
     lattice parameter (alat)  =      23.8199  a.u.
     unit-cell volume          =   33861.0370 (a.u.)^3
     number of atoms/cell      =          194
     number of atomic types    =            4
     number of electrons       =      1714.00
     number of Kohn-Sham states=         1028
     kinetic-energy cutoff     =      77.0000  Ry
     charge density cutoff     =     539.0000  Ry
     scf convergence threshold =      1.0E-06
     mixing beta               =       0.2000
     number of iterations used =            8  plain     mixing
     energy convergence thresh.=      1.0E-04
     force convergence thresh. =      1.0E-03
     Exchange-correlation= SLA  PW   PBX  PBC
                           (   1   4   3   4   0   0   0)
     nstep                     =         1000


     Effective Screening Medium Method
     =================================
     Boundary Conditions: Vacuum-Slab-Vacuum
     total charge in unit cell        =   0.0000
     grid points for fit at edges     =        4 
 

     celldm(1)=  23.819920  celldm(2)=   0.000000  celldm(3)=   0.000000
     celldm(4)=   0.000000  celldm(5)=   0.000000  celldm(6)=   0.000000

     crystal axes: (cart. coord. in units of alat)
               a(1) = (   1.000000   0.000000   0.000000 )  
               a(2) = (  -0.499999   0.866026   0.000000 )  
               a(3) = (   0.000000   0.000000   2.893000 )  

     reciprocal axes: (cart. coord. in units 2 pi/alat)
               b(1) = (  1.000000  0.577349  0.000000 )  
               b(2) = (  0.000000  1.154700  0.000000 )  
               b(3) = (  0.000000  0.000000  0.345662 )  


     PseudoPot. # 1 for Mo read from file:
     ./pseudo/Mo.pbe-spn-kjpaw_psl.1.0.0.UPF
     MD5 check sum: 317bf72632116215fd98f72de1686f13
     Pseudo is Projector augmented-wave + core cor, Zval = 14.0
     Generated using 'atomic' code by A. Dal Corso  v.7.2
     Shape of augmentation charge: PSQ
     Using radial grid of 1229 points,  6 beta functions with: 
                l(1) =   0
                l(2) =   0
                l(3) =   1
                l(4) =   1
                l(5) =   2
                l(6) =   2
     Q(r) pseudized with 0 coefficients 


     PseudoPot. # 2 for S  read from file:
     ./pseudo/S.pbe-n-kjpaw_psl.1.0.0.UPF
     MD5 check sum: 8b7b5302570d38d5e87fed6a1065abda
     Pseudo is Projector augmented-wave + core cor, Zval =  6.0
     Generated using 'atomic' code by A. Dal Corso  v.7.2
     Shape of augmentation charge: PSQ
     Using radial grid of 1151 points,  6 beta functions with: 
                l(1) =   0
                l(2) =   0
                l(3) =   1
                l(4) =   1
                l(5) =   2
                l(6) =   2
     Q(r) pseudized with 0 coefficients 


     PseudoPot. # 3 for Pd read from file:
     ./pseudo/Pd.pbe-spn-kjpaw_psl.1.0.0.UPF
     MD5 check sum: a60571a671f2502b8a6a4569d20a6edb
     Pseudo is Projector augmented-wave + core cor, Zval = 18.0
     Generated using 'atomic' code by A. Dal Corso  v.7.2
     Shape of augmentation charge: PSQ
     Using radial grid of 1235 points,  6 beta functions with: 
                l(1) =   0
                l(2) =   0
                l(3) =   1
                l(4) =   1
                l(5) =   2
                l(6) =   2
     Q(r) pseudized with 0 coefficients 


     PseudoPot. # 4 for Pt read from file:
     ./pseudo/Pt.pbe-spfn-kjpaw_psl.1.0.0.UPF
     MD5 check sum: 620096ebf4e6ebacc94de60fd67efcb5
     Pseudo is Projector augmented-wave + core cor, Zval = 32.0
     Generated using 'atomic' code by A. Dal Corso  v.7.2
     Shape of augmentation charge: PSQ
     Using radial grid of 1277 points,  8 beta functions with: 
                l(1) =   0
                l(2) =   0
                l(3) =   1
                l(4) =   1
                l(5) =   2
                l(6) =   2
                l(7) =   3
                l(8) =   3
     Q(r) pseudized with 0 coefficients 


     atomic species   valence    mass     pseudopotential
     Mo               14.00    95.95000     Mo( 1.00)
     S                 6.00    32.06000     S ( 1.00)
     Pd               18.00   106.42000     Pd( 1.00)
     Pt               32.00   195.08400     Pt( 1.00)

     No symmetry found



   Cartesian axes

     site n.     atom                  positions (alat units)
         1        Mo     tau(   1) = (   0.0000010   0.1443372  -0.7272732  )
         2        Mo     tau(   2) = (   0.1249995   0.0721706  -0.2424038  )
         3        S      tau(   3) = (   0.0000015   0.1443386  -0.3667807  )
         4        S      tau(   4) = (   0.1250010   0.0721682  -0.6030489  )
         5        S      tau(   5) = (   0.1250010   0.0721683  -0.8514963  )
         6        S      tau(   6) = (   0.0000015   0.1443389  -0.1180260  )
         7        Mo     tau(   7) = (   0.0000007   0.1443589   0.2424205  )
         8        Mo     tau(   8) = (   0.1250041   0.0720322   0.7266168  )
         9        S      tau(   9) = (   0.0000742   0.1444871   0.6020949  )
        10        S      tau(  10) = (   0.1250024   0.0721701   0.3667478  )
        11        S      tau(  11) = (   0.1250035   0.0721876   0.1180348  )
        12        S      tau(  12) = (  -0.0004118   0.1430864   0.8514340  )
        13        Mo     tau(  13) = (  -0.1249989   0.3608437  -0.7272732  )
        14        Mo     tau(  14) = (   0.0000030   0.2886752  -0.2424042  )
        15        S      tau(  15) = (  -0.1249977   0.3608450  -0.3667802  )
        16        S      tau(  16) = (   0.0000012   0.2886747  -0.6030489  )
        17        S      tau(  17) = (   0.0000012   0.2886748  -0.8514963  )
        18        S      tau(  18) = (  -0.1249977   0.3608454  -0.1180274  )
        19        Mo     tau(  19) = (  -0.1249729   0.3608584   0.2424608  )
        20        Mo     tau(  20) = (  -0.0007193   0.2876626   0.7275440  )
        21        S      tau(  21) = (  -0.1251115   0.3607789   0.6027257  )
        22        S      tau(  22) = (   0.0000621   0.2887099   0.3668377  )
        23        S      tau(  23) = (  -0.0000096   0.2886902   0.1180527  )
        24        S      tau(  24) = (  -0.1254673   0.3605734   0.8517408  )
        25        Mo     tau(  25) = (  -0.2499987   0.5773502  -0.7272732  )
        26        Mo     tau(  26) = (  -0.1249977   0.5051839  -0.2424055  )
        27        S      tau(  27) = (  -0.2499981   0.5773518  -0.3667809  )
        28        S      tau(  28) = (  -0.1249986   0.5051812  -0.6030489  )
        29        S      tau(  29) = (  -0.1249986   0.5051813  -0.8514963  )
        30        S      tau(  30) = (  -0.2499979   0.5773512  -0.1180266  )
        31        Mo     tau(  31) = (  -0.2499795   0.5773389   0.2424205  )
        32        Mo     tau(  32) = (  -0.1262356   0.5050639   0.7275441  )
        33        S      tau(  33) = (  -0.2498323   0.5773390   0.6020948  )
        34        S      tau(  34) = (  -0.1249376   0.5052159   0.3668377  )
        35        S      tau(  35) = (  -0.1249905   0.5051638   0.1180531  )
        36        S      tau(  36) = (  -0.2512883   0.5776183   0.8514340  )
        37        Mo     tau(  37) = (  -0.3749985   0.7938567  -0.7272732  )
        38        Mo     tau(  38) = (  -0.2500001   0.7216874  -0.2424031  )
        39        S      tau(  39) = (  -0.3749980   0.7938584  -0.3667800  )
        40        S      tau(  40) = (  -0.2499984   0.7216877  -0.6030489  )
        41        S      tau(  41) = (  -0.2499984   0.7216878  -0.8514963  )
        42        S      tau(  42) = (  -0.3749982   0.7938585  -0.1180264  )
        43        Mo     tau(  43) = (  -0.3749962   0.7938568   0.2423838  )
        44        Mo     tau(  44) = (  -0.2501148   0.7217588   0.7266170  )
        45        S      tau(  45) = (  -0.3749945   0.7938590   0.6021274  )
        46        S      tau(  46) = (  -0.2499958   0.7216877   0.3667488  )
        47        S      tau(  47) = (  -0.2499810   0.7216794   0.1180323  )
        48        S      tau(  48) = (  -0.3749953   0.7938585   0.8511588  )
        49        Mo     tau(  49) = (   0.2500010   0.1443372  -0.7272732  )
        50        Mo     tau(  50) = (   0.3750034   0.0721723  -0.2424032  )
        51        S      tau(  51) = (   0.2500017   0.1443391  -0.3667788  )
        52        S      tau(  52) = (   0.3750010   0.0721682  -0.6030489  )
        53        S      tau(  53) = (   0.3750010   0.0721683  -0.8514963  )
        54        S      tau(  54) = (   0.2500016   0.1443391  -0.1180271  )
        55        Mo     tau(  55) = (   0.2500054   0.1443594   0.2424211  )
        56        Mo     tau(  56) = (   0.3749279   0.0721263   0.7263991  )
        57        S      tau(  57) = (   0.2499344   0.1444864   0.6020948  )
        58        S      tau(  58) = (   0.3750316   0.0721860   0.3667597  )
        59        S      tau(  59) = (   0.3749924   0.0721644   0.1180346  )
        60        S      tau(  60) = (   0.2504199   0.1430865   0.8514340  )
        61        Mo     tau(  61) = (   0.1250012   0.3608437  -0.7272732  )
        62        Mo     tau(  62) = (   0.2500029   0.2886782  -0.2424031  )
        63        S      tau(  63) = (   0.1250024   0.3608455  -0.3667794  )
        64        S      tau(  64) = (   0.2500012   0.2886747  -0.6030489  )
        65        S      tau(  65) = (   0.2500012   0.2886748  -0.8514963  )
        66        S      tau(  66) = (   0.1250021   0.3608455  -0.1180270  )
        67        Mo     tau(  67) = (   0.1250038   0.3608653   0.2423963  )
        68        Mo     tau(  68) = (   0.2507284   0.2876625   0.7275438  )
        69        S      tau(  69) = (   0.1250046   0.3627170   0.6061948  )
        70        S      tau(  70) = (   0.2499461   0.2887116   0.3668373  )
        71        S      tau(  71) = (   0.2500171   0.2886900   0.1180543  )
        72        S      tau(  72) = (   0.1250046   0.3519103   0.8557806  )
        73        Mo     tau(  73) = (   0.0000014   0.5773502  -0.7272732  )
        74        Mo     tau(  74) = (   0.1250045   0.5051840  -0.2424036  )
        75        S      tau(  75) = (   0.0000030   0.5773520  -0.3667799  )
        76        S      tau(  76) = (   0.1250014   0.5051812  -0.6030489  )
        77        S      tau(  77) = (   0.1250014   0.5051813  -0.8514963  )
        78        S      tau(  78) = (   0.0000026   0.5773517  -0.1180274  )
        79        Mo     tau(  79) = (   0.0000222   0.5773400   0.2423964  )
        80        Mo     tau(  80) = (   0.1250047   0.5051836   0.7321380  )
        81        S      tau(  81) = (   0.0016251   0.5764170   0.6061946  )
        82        S      tau(  82) = (   0.1250047   0.5051815   0.3667777  )
        83        S      tau(  83) = (   0.1250048   0.5051819   0.1179962  )
        84        S      tau(  84) = (  -0.0077335   0.5818202   0.8557807  )
        85        Mo     tau(  85) = (  -0.1249984   0.7938567  -0.7272732  )
        86        Mo     tau(  86) = (   0.0000069   0.7216896  -0.2424039  )
        87        S      tau(  87) = (  -0.1249975   0.7938582  -0.3667782  )
        88        S      tau(  88) = (   0.0000016   0.7216877  -0.6030489  )
        89        S      tau(  89) = (   0.0000016   0.7216878  -0.8514963  )
        90        S      tau(  90) = (  -0.1249973   0.7938582  -0.1180279  )
        91        Mo     tau(  91) = (  -0.1249774   0.7938494   0.2424207  )
        92        Mo     tau(  92) = (  -0.0005116   0.7228241   0.7275438  )
        93        S      tau(  93) = (  -0.1249026   0.7937246   0.6020948  )
        94        S      tau(  94) = (   0.0000043   0.7216209   0.3668361  )
        95        S      tau(  95) = (   0.0000226   0.7216928   0.1180549  )
        96        S      tau(  96) = (  -0.1258721   0.7948451   0.8514341  )
        97        Mo     tau(  97) = (   0.5000010   0.1443372  -0.7272732  )
        98        Mo     tau(  98) = (   0.6250001   0.0721662  -0.2424040  )
        99        S      tau(  99) = (   0.5000017   0.1443386  -0.3667801  )
       100        S      tau( 100) = (   0.6250010   0.0721682  -0.6030489  )
       101        S      tau( 101) = (   0.6250010   0.0721683  -0.8514963  )
       102        S      tau( 102) = (   0.5000020   0.1443388  -0.1180261  )
       103        Mo     tau( 103) = (   0.5000075   0.1443411   0.2423793  )
       104        Mo     tau( 104) = (   0.6250042   0.0723339   0.7270464  )
       105        S      tau( 105) = (   0.5002366   0.1444733   0.6023595  )
       106        S      tau( 106) = (   0.6250029   0.0721787   0.3667562  )
       107        S      tau( 107) = (   0.6250040   0.0721260   0.1180315  )
       108        S      tau( 108) = (   0.4998752   0.1442648   0.8512770  )
       109        Mo     tau( 109) = (   0.3750012   0.3608437  -0.7272732  )
       110        Mo     tau( 110) = (   0.4999991   0.2886761  -0.2424038  )
       111        S      tau( 111) = (   0.3750012   0.3608452  -0.3667804  )
       112        S      tau( 112) = (   0.5000012   0.2886747  -0.6030489  )
       113        S      tau( 113) = (   0.5000012   0.2886748  -0.8514963  )
       114        S      tau( 114) = (   0.3750014   0.3608455  -0.1180261  )
       115        Mo     tau( 115) = (   0.3749795   0.3608597   0.2424601  )
       116        Mo     tau( 116) = (   0.5001461   0.2885951   0.7270464  )
       117        S      tau( 117) = (   0.3751205   0.3607791   0.6027254  )
       118        S      tau( 118) = (   0.5000105   0.2886721   0.3667569  )
       119        S      tau( 119) = (   0.4999655   0.2886989   0.1180297  )
       120        S      tau( 120) = (   0.3754765   0.3605739   0.8517402  )
       121        Mo     tau( 121) = (   0.2500014   0.5773502  -0.7272732  )
       122        Mo     tau( 122) = (   0.3749983   0.5051825  -0.2424043  )
       123        S      tau( 123) = (   0.2500017   0.5773519  -0.3667810  )
       124        S      tau( 124) = (   0.3750014   0.5051812  -0.6030489  )
       125        S      tau( 125) = (   0.3750014   0.5051813  -0.8514963  )
       126        S      tau( 126) = (   0.2500018   0.5773519  -0.1180256  )
       127        Mo     tau( 127) = (   0.2499863   0.5773402   0.2423965  )
       128        Mo     tau( 128) = (   0.3762454   0.5050642   0.7275433  )
       129        S      tau( 129) = (   0.2483844   0.5764169   0.6061944  )
       130        S      tau( 130) = (   0.3749442   0.5052158   0.3668400  )
       131        S      tau( 131) = (   0.3749972   0.5051650   0.1180510  )
       132        S      tau( 132) = (   0.2577438   0.5818204   0.8557797  )
       133        Mo     tau( 133) = (   0.1250016   0.7938567  -0.7272732  )
       134        Mo     tau( 134) = (   0.2499995   0.7216883  -0.2424036  )
       135        S      tau( 135) = (   0.1250024   0.7938578  -0.3667813  )
       136        S      tau( 136) = (   0.2500016   0.7216877  -0.6030489  )
       137        S      tau( 137) = (   0.2500016   0.7216878  -0.8514963  )
       138        S      tau( 138) = (   0.1250024   0.7938579  -0.1180253  )
       139        Mo     tau( 139) = (   0.1250047   0.7938294   0.2424606  )
       140        Mo     tau( 140) = (   0.2505220   0.7228241   0.7275433  )
       141        S      tau( 141) = (   0.1250053   0.7939926   0.6027252  )
       142        S      tau( 142) = (   0.2500048   0.7216200   0.3668387  )
       143        S      tau( 143) = (   0.2499864   0.7216915   0.1180524  )
       144        S      tau( 144) = (   0.1250054   0.7944033   0.8517402  )
       145        Mo     tau( 145) = (   0.7500010   0.1443372  -0.7272732  )
       146        Mo     tau( 146) = (   0.8750038   0.0721696  -0.2424038  )
       147        S      tau( 147) = (   0.7500016   0.1443382  -0.3667789  )
       148        S      tau( 148) = (   0.8750010   0.0721682  -0.6030489  )
       149        S      tau( 149) = (   0.8750010   0.0721683  -0.8514963  )
       150        S      tau( 150) = (   0.7500016   0.1443384  -0.1180279  )
       151        Mo     tau( 151) = (   0.7499986   0.1443409   0.2423802  )
       152        Mo     tau( 152) = (   0.8750804   0.0721266   0.7263988  )
       153        S      tau( 153) = (   0.7497713   0.1444738   0.6023592  )
       154        S      tau( 154) = (   0.8749758   0.0721848   0.3667595  )
       155        S      tau( 155) = (   0.8750127   0.0721632   0.1180342  )
       156        S      tau( 156) = (   0.7501331   0.1442647   0.8512770  )
       157        Mo     tau( 157) = (   0.6250012   0.3608437  -0.7272732  )
       158        Mo     tau( 158) = (   0.7500028   0.2886769  -0.2424041  )
       159        S      tau( 159) = (   0.6250015   0.3608451  -0.3667792  )
       160        S      tau( 160) = (   0.7500012   0.2886747  -0.6030489  )
       161        S      tau( 161) = (   0.7500012   0.2886748  -0.8514963  )
       162        S      tau( 162) = (   0.6250016   0.3608454  -0.1180280  )
       163        Mo     tau( 163) = (   0.6250032   0.3608391   0.2423797  )
       164        Mo     tau( 164) = (   0.7498627   0.2885951   0.7270467  )
       165        S      tau( 165) = (   0.6250046   0.3605769   0.6023590  )
       166        S      tau( 166) = (   0.7499943   0.2886711   0.3667569  )
       167        S      tau( 167) = (   0.7500399   0.2886970   0.1180318  )
       168        S      tau( 168) = (   0.6250043   0.3609947   0.8512770  )
       169        Mo     tau( 169) = (   0.5000014   0.5773502  -0.7272732  )
       170        Mo     tau( 170) = (   0.6250029   0.5051841  -0.2424047  )
       171        S      tau( 171) = (   0.5000014   0.5773518  -0.3667794  )
       172        S      tau( 172) = (   0.6250014   0.5051812  -0.6030489  )
       173        S      tau( 173) = (   0.6250014   0.5051813  -0.8514963  )
       174        S      tau( 174) = (   0.5000016   0.5773516  -0.1180277  )
       175        Mo     tau( 175) = (   0.4999855   0.5773383   0.2424207  )
       176        Mo     tau( 176) = (   0.6250049   0.5052713   0.7263986  )
       177        S      tau( 177) = (   0.4998428   0.5773389   0.6020941  )
       178        S      tau( 178) = (   0.6250030   0.5051500   0.3667588  )
       179        S      tau( 179) = (   0.6250025   0.5051935   0.1180351  )
       180        S      tau( 180) = (   0.5012979   0.5776190   0.8514332  )
       181        Mo     tau( 181) = (   0.3750016   0.7938567  -0.7272732  )
       182        Mo     tau( 182) = (   0.5000025   0.7216901  -0.2424039  )
       183        S      tau( 183) = (   0.3750019   0.7938578  -0.3667793  )
       184        S      tau( 184) = (   0.5000016   0.7216877  -0.6030489  )
       185        S      tau( 185) = (   0.5000016   0.7216878  -0.8514963  )
       186        S      tau( 186) = (   0.3750020   0.7938579  -0.1180272  )
       187        Mo     tau( 187) = (   0.3749848   0.7938487   0.2424206  )
       188        Mo     tau( 188) = (   0.5001249   0.7217591   0.7266160  )
       189        S      tau( 189) = (   0.3749125   0.7937251   0.6020942  )
       190        S      tau( 190) = (   0.5000021   0.7216868   0.3667472  )
       191        S      tau( 191) = (   0.4999874   0.7216780   0.1180346  )
       192        S      tau( 192) = (   0.3758826   0.7948451   0.8514332  )
       193        Pd     tau( 193) = (   0.1250063   0.5051842   0.9601361  )
       194        Pt     tau( 194) = (   0.6249921   0.5052773   0.9704117  )

     --------------------------------------------
     DFT-D3 Dispersion Correction (3-body terms):
     --------------------------------------------
       Reference C6 values for interpolation: 

         atom   Coordination number   C6
         S          0.000           268.01
         S          0.995           261.99
         S          1.990           251.62
         Mo         0.000          1691.79
         Mo         1.942          1004.01
         Mo        11.056           674.22
         Pd         0.000          1217.01
         Pd         1.863           573.90
         Pd         5.710           531.75
         Pt         0.000           782.29
         Pt         1.919           692.72
         Pt         6.667           673.75

       Values used:

         atom   Coordination number  R0_AB[au]  C6      C8
         Mo        10.208            3.547    674.22  77634.20
         Mo        10.221            3.547    674.22  77634.20
         S          3.858            3.128    251.62  12327.25
         S          3.859            3.128    251.62  12327.25
         S          3.758            3.128    251.62  12327.25
         S          3.859            3.128    251.62  12327.25
         Mo        10.220            3.547    674.22  77634.20
         Mo        10.234            3.547    674.22  77634.20
         S          3.847            3.128    251.62  12327.25
         S          3.861            3.128    251.62  12327.25
         S          3.859            3.128    251.62  12327.25
         S          3.805            3.128    251.62  12327.25
         Mo        10.208            3.547    674.22  77634.20
         Mo        10.221            3.547    674.22  77634.20
         S          3.858            3.128    251.62  12327.25
         S          3.859            3.128    251.62  12327.25
         S          3.758            3.128    251.62  12327.25
         S          3.859            3.128    251.62  12327.25
         Mo        10.221            3.547    674.22  77634.20
         Mo        10.191            3.547    674.22  77634.20
         S          3.855            3.128    251.62  12327.25
         S          3.856            3.128    251.62  12327.25
         S          3.859            3.128    251.62  12327.25
         S          3.769            3.128    251.62  12327.25
         Mo        10.208            3.547    674.22  77634.20
         Mo        10.221            3.547    674.22  77634.20
         S          3.858            3.128    251.62  12327.25
         S          3.859            3.128    251.62  12327.25
         S          3.758            3.128    251.62  12327.25
         S          3.859            3.128    251.62  12327.25
         Mo        10.220            3.547    674.22  77634.20
         Mo        10.202            3.547    674.22  77634.20
         S          3.848            3.128    251.62  12327.25
         S          3.856            3.128    251.62  12327.25
         S          3.859            3.128    251.62  12327.25
         S          4.774            3.128    251.62  12327.25
         Mo        10.208            3.547    674.22  77634.20
         Mo        10.221            3.547    674.22  77634.20
         S          3.858            3.128    251.62  12327.25
         S          3.859            3.128    251.62  12327.25
         S          3.758            3.128    251.62  12327.25
         S          3.859            3.128    251.62  12327.25
         Mo        10.219            3.547    674.22  77634.20
         Mo        10.244            3.547    674.22  77634.20
         S          3.856            3.128    251.62  12327.25
         S          3.861            3.128    251.62  12327.25
         S          3.859            3.128    251.62  12327.25
         S          3.794            3.128    251.62  12327.25
         Mo        10.208            3.547    674.22  77634.20
         Mo        10.221            3.547    674.22  77634.20
         S          3.858            3.128    251.62  12327.25
         S          3.859            3.128    251.62  12327.25
         S          3.758            3.128    251.62  12327.25
         S          3.859            3.128    251.62  12327.25
         Mo        10.220            3.547    674.22  77634.20
         Mo        10.244            3.547    674.22  77634.20
         S          3.847            3.128    251.62  12327.25
         S          3.860            3.128    251.62  12327.25
         S          3.859            3.128    251.62  12327.25
         S          3.805            3.128    251.62  12327.25
         Mo        10.208            3.547    674.22  77634.20
         Mo        10.221            3.547    674.22  77634.20
         S          3.858            3.128    251.62  12327.25
         S          3.859            3.128    251.62  12327.25
         S          3.758            3.128    251.62  12327.25
         S          3.859            3.128    251.62  12327.25
         Mo        10.222            3.547    674.22  77634.20
         Mo        10.191            3.547    674.22  77634.20
         S          3.865            3.128    251.62  12327.25
         S          3.856            3.128    251.62  12327.25
         S          3.859            3.128    251.62  12327.25
         S          4.653            3.128    251.62  12327.25
         Mo        10.208            3.547    674.22  77634.20
         Mo        10.221            3.547    674.22  77634.20
         S          3.858            3.128    251.62  12327.25
         S          3.859            3.128    251.62  12327.25
         S          3.758            3.128    251.62  12327.25
         S          3.859            3.128    251.62  12327.25
         Mo        10.222            3.547    674.22  77634.20
         Mo        10.821            3.547    674.22  77634.20
         S          3.865            3.128    251.62  12327.25
         S          3.853            3.128    251.62  12327.25
         S          3.859            3.128    251.62  12327.25
         S          4.654            3.128    251.62  12327.25
         Mo        10.208            3.547    674.22  77634.20
         Mo        10.221            3.547    674.22  77634.20
         S          3.858            3.128    251.62  12327.25
         S          3.859            3.128    251.62  12327.25
         S          3.758            3.128    251.62  12327.25
         S          3.859            3.128    251.62  12327.25
         Mo        10.220            3.547    674.22  77634.20
         Mo        10.191            3.547    674.22  77634.20
         S          3.847            3.128    251.62  12327.25
         S          3.856            3.128    251.62  12327.25
         S          3.859            3.128    251.62  12327.25
         S          3.806            3.128    251.62  12327.25
         Mo        10.208            3.547    674.22  77634.20
         Mo        10.221            3.547    674.22  77634.20
         S          3.858            3.128    251.62  12327.25
         S          3.859            3.128    251.62  12327.25
         S          3.758            3.128    251.62  12327.25
         S          3.859            3.128    251.62  12327.25
         Mo        10.220            3.547    674.22  77634.20
         Mo        10.230            3.547    674.22  77634.20
         S          3.862            3.128    251.62  12327.25
         S          3.860            3.128    251.62  12327.25
         S          3.859            3.128    251.62  12327.25
         S          3.766            3.128    251.62  12327.25
         Mo        10.208            3.547    674.22  77634.20
         Mo        10.221            3.547    674.22  77634.20
         S          3.858            3.128    251.62  12327.25
         S          3.859            3.128    251.62  12327.25
         S          3.758            3.128    251.62  12327.25
         S          3.859            3.128    251.62  12327.25
         Mo        10.221            3.547    674.22  77634.20
         Mo        10.240            3.547    674.22  77634.20
         S          3.855            3.128    251.62  12327.25
         S          3.860            3.128    251.62  12327.25
         S          3.859            3.128    251.62  12327.25
         S          3.769            3.128    251.62  12327.25
         Mo        10.208            3.547    674.22  77634.20
         Mo        10.221            3.547    674.22  77634.20
         S          3.858            3.128    251.62  12327.25
         S          3.859            3.128    251.62  12327.25
         S          3.758            3.128    251.62  12327.25
         S          3.859            3.128    251.62  12327.25
         Mo        10.222            3.547    674.22  77634.20
         Mo        10.202            3.547    674.22  77634.20
         S          3.865            3.128    251.62  12327.25
         S          3.856            3.128    251.62  12327.25
         S          3.859            3.128    251.62  12327.25
         S          4.654            3.128    251.62  12327.25
         Mo        10.208            3.547    674.22  77634.20
         Mo        10.221            3.547    674.22  77634.20
         S          3.858            3.128    251.62  12327.25
         S          3.859            3.128    251.62  12327.25
         S          3.758            3.128    251.62  12327.25
         S          3.859            3.128    251.62  12327.25
         Mo        10.221            3.547    674.22  77634.20
         Mo        10.191            3.547    674.22  77634.20
         S          3.855            3.128    251.62  12327.25
         S          3.856            3.128    251.62  12327.25
         S          3.859            3.128    251.62  12327.25
         S          3.756            3.128    251.62  12327.25
         Mo        10.208            3.547    674.22  77634.20
         Mo        10.221            3.547    674.22  77634.20
         S          3.858            3.128    251.62  12327.25
         S          3.859            3.128    251.62  12327.25
         S          3.758            3.128    251.62  12327.25
         S          3.859            3.128    251.62  12327.25
         Mo        10.220            3.547    674.22  77634.20
         Mo        10.244            3.547    674.22  77634.20
         S          3.862            3.128    251.62  12327.25
         S          3.860            3.128    251.62  12327.25
         S          3.859            3.128    251.62  12327.25
         S          3.766            3.128    251.62  12327.25
         Mo        10.208            3.547    674.22  77634.20
         Mo        10.220            3.547    674.22  77634.20
         S          3.858            3.128    251.62  12327.25
         S          3.859            3.128    251.62  12327.25
         S          3.758            3.128    251.62  12327.25
         S          3.859            3.128    251.62  12327.25
         Mo        10.220            3.547    674.22  77634.20
         Mo        10.240            3.547    674.22  77634.20
         S          3.863            3.128    251.62  12327.25
         S          3.860            3.128    251.62  12327.25
         S          3.859            3.128    251.62  12327.25
         S          4.731            3.128    251.62  12327.25
         Mo        10.208            3.547    674.22  77634.20
         Mo        10.221            3.547    674.22  77634.20
         S          3.858            3.128    251.62  12327.25
         S          3.859            3.128    251.62  12327.25
         S          3.758            3.128    251.62  12327.25
         S          3.859            3.128    251.62  12327.25
         Mo        10.220            3.547    674.22  77634.20
         Mo        10.835            3.547    674.22  77634.20
         S          3.848            3.128    251.62  12327.25
         S          3.860            3.128    251.62  12327.25
         S          3.859            3.128    251.62  12327.25
         S          4.774            3.128    251.62  12327.25
         Mo        10.208            3.547    674.22  77634.20
         Mo        10.221            3.547    674.22  77634.20
         S          3.858            3.128    251.62  12327.25
         S          3.859            3.128    251.62  12327.25
         S          3.758            3.128    251.62  12327.25
         S          3.859            3.128    251.62  12327.25
         Mo        10.220            3.547    674.22  77634.20
         Mo        10.244            3.547    674.22  77634.20
         S          3.847            3.128    251.62  12327.25
         S          3.861            3.128    251.62  12327.25
         S          3.859            3.128    251.62  12327.25
         S          3.806            3.128    251.62  12327.25
         Pd         3.767            3.168    558.55  51175.93
         Pt         3.615            3.168    692.72  72035.25

         Molecular C6 ( Ry / a.u.^6 ) =  13983856.87


     number of k points=     4  Gaussian smearing, width (Ry)=  0.0100
                       cart. coord. in units 2pi/alat
        k(    1) = (   0.0000000   0.0000000   0.0000000), wk =   0.5000000
        k(    2) = (   0.0000000  -0.5773499   0.0000000), wk =   0.5000000
        k(    3) = (  -0.5000000  -0.2886744   0.0000000), wk =   0.5000000
        k(    4) = (  -0.5000000  -0.8660242   0.0000000), wk =   0.5000000

     Dense  grid:  7154885 G-vectors     FFT dimensions: ( 180, 180, 512)

     Smooth grid:  3090769 G-vectors     FFT dimensions: ( 135, 135, 400)

     Estimated max dynamical RAM per process >       4.31 GB

     Estimated total dynamical RAM >     155.10 GB

     Initial potential from superposition of free atoms

     starting charge    1713.9389, renormalised to    1714.0000

     negative rho (up, down):  8.698E-04 0.000E+00
     Starting wfcs are 1179 randomized atomic wfcs
     Checking if some PAW data can be deallocated... 

     total cpu time spent up to now is      180.9 secs

     Self-consistent Calculation

     iteration #  1     ecut=    77.00 Ry     beta= 0.20
     Davidson diagonalization with overlap
     ethr =  1.00E-02,  avg # of iterations =  2.0

     Threshold (ethr) on eigenvalues was too large:
     Diagonalizing with lowered threshold

     Davidson diagonalization with overlap
     ethr =  1.64E-04,  avg # of iterations = 16.2

     negative rho (up, down):  2.342E-04 0.000E+00

     total cpu time spent up to now is     2209.1 secs

     total energy              =  -33980.23020084 Ry
     estimated scf accuracy    <       6.49424467 Ry

     iteration #  2     ecut=    77.00 Ry     beta= 0.20
     Davidson diagonalization with overlap
     ethr =  3.79E-04,  avg # of iterations =  2.0

     negative rho (up, down):  2.381E-05 0.000E+00

     total cpu time spent up to now is     2614.3 secs

     total energy              =  -33978.87461660 Ry
     estimated scf accuracy    <       3.40207774 Ry

     iteration #  3     ecut=    77.00 Ry     beta= 0.20
     Davidson diagonalization with overlap
     ethr =  1.98E-04,  avg # of iterations = 13.0

     negative rho (up, down):  1.573E-05 0.000E+00

     total cpu time spent up to now is     3144.9 secs

     total energy              =  -33979.28573103 Ry
     estimated scf accuracy    <       0.84972649 Ry

     iteration #  4     ecut=    77.00 Ry     beta= 0.20
     Davidson diagonalization with overlap
     c_bands:  2 eigenvalues not converged
     c_bands:  2 eigenvalues not converged
     c_bands:  1 eigenvalues not converged
     ethr =  4.96E-05,  avg # of iterations = 19.8

     negative rho (up, down):  1.831E-05 0.000E+00

     total cpu time spent up to now is     4367.8 secs

     total energy              =  -33980.07789929 Ry
     estimated scf accuracy    <       0.36853625 Ry

     iteration #  5     ecut=    77.00 Ry     beta= 0.20
     Davidson diagonalization with overlap
     ethr =  2.15E-05,  avg # of iterations = 12.2

     negative rho (up, down):  4.494E-05 0.000E+00

     total cpu time spent up to now is     5024.2 secs

     total energy              =  -33980.16730967 Ry
     estimated scf accuracy    <       0.20959148 Ry

     iteration #  6     ecut=    77.00 Ry     beta= 0.20
     Davidson diagonalization with overlap
     c_bands:  1 eigenvalues not converged
     ethr =  1.22E-05,  avg # of iterations = 12.0

     negative rho (up, down):  2.506E-04 0.000E+00

     total cpu time spent up to now is     5525.4 secs

     total energy              =  -33980.15503906 Ry
     estimated scf accuracy    <       0.12324422 Ry

     iteration #  7     ecut=    77.00 Ry     beta= 0.20
     Davidson diagonalization with overlap
     c_bands:  1 eigenvalues not converged
     c_bands:  2 eigenvalues not converged
     c_bands:  3 eigenvalues not converged
     ethr =  7.19E-06,  avg # of iterations = 19.5

     negative rho (up, down):  5.773E-04 0.000E+00

     total cpu time spent up to now is     6374.4 secs

     total energy              =  -33980.22828412 Ry
     estimated scf accuracy    <       0.07182892 Ry

     iteration #  8     ecut=    77.00 Ry     beta= 0.20
     Davidson diagonalization with overlap
     c_bands:  5 eigenvalues not converged
     c_bands:  5 eigenvalues not converged
     c_bands:  5 eigenvalues not converged
     ethr =  4.19E-06,  avg # of iterations = 39.8

     negative rho (up, down):  4.499E-04 0.000E+00

     total cpu time spent up to now is     7436.0 secs

     total energy              =  -33980.22744300 Ry
     estimated scf accuracy    <       0.04095221 Ry

     iteration #  9     ecut=    77.00 Ry     beta= 0.20
     Davidson diagonalization with overlap
     c_bands:  5 eigenvalues not converged
     c_bands:  3 eigenvalues not converged
     c_bands:  1 eigenvalues not converged
     ethr =  2.39E-06,  avg # of iterations = 53.5

     negative rho (up, down):  4.313E-04 0.000E+00

     total cpu time spent up to now is     8870.2 secs

     total energy              =  -33980.24493601 Ry
     estimated scf accuracy    <       0.00289291 Ry

     iteration # 10     ecut=    77.00 Ry     beta= 0.20
     Davidson diagonalization with overlap
     c_bands:  4 eigenvalues not converged
     c_bands:  3 eigenvalues not converged
     c_bands:  5 eigenvalues not converged
     ethr =  1.69E-07,  avg # of iterations = 20.5

     negative rho (up, down):  4.902E-04 0.000E+00

     total cpu time spent up to now is    10903.4 secs

     total energy              =  -33980.25352454 Ry
     estimated scf accuracy    <       0.00533592 Ry

     iteration # 11     ecut=    77.00 Ry     beta= 0.20
     Davidson diagonalization with overlap
     c_bands:  2 eigenvalues not converged
     c_bands:  3 eigenvalues not converged
     ethr =  1.69E-07,  avg # of iterations = 27.8

     negative rho (up, down):  7.703E-04 0.000E+00

     total cpu time spent up to now is    11684.3 secs

     total energy              =  -33980.25343053 Ry
     estimated scf accuracy    <       0.00188759 Ry

     iteration # 12     ecut=    77.00 Ry     beta= 0.20
     Davidson diagonalization with overlap
     c_bands:  5 eigenvalues not converged
     ethr =  1.10E-07,  avg # of iterations = 18.2

     negative rho (up, down):  7.582E-04 0.000E+00

     total cpu time spent up to now is    13042.1 secs

     total energy              =  -33980.25206302 Ry
     estimated scf accuracy    <       0.01465224 Ry

     iteration # 13     ecut=    77.00 Ry     beta= 0.20
     Davidson diagonalization with overlap
     ethr =  1.10E-07,  avg # of iterations = 14.5

     negative rho (up, down):  7.547E-04 0.000E+00

     total cpu time spent up to now is    13889.0 secs

     total energy              =  -33980.25337986 Ry
     estimated scf accuracy    <       0.00126050 Ry

     iteration # 14     ecut=    77.00 Ry     beta= 0.20
     Davidson diagonalization with overlap
     ethr =  7.35E-08,  avg # of iterations =  9.2

     negative rho (up, down):  7.984E-04 0.000E+00

     total cpu time spent up to now is    14589.6 secs

     total energy              =  -33980.25409375 Ry
     estimated scf accuracy    <       0.00014820 Ry

     iteration # 15     ecut=    77.00 Ry     beta= 0.20
     Davidson diagonalization with overlap
     ethr =  8.65E-09,  avg # of iterations = 16.8

     negative rho (up, down):  8.409E-04 0.000E+00

     total cpu time spent up to now is    15597.8 secs

     total energy              =  -33980.25426046 Ry
     estimated scf accuracy    <       0.00007199 Ry

     iteration # 16     ecut=    77.00 Ry     beta= 0.20
     Davidson diagonalization with overlap
     ethr =  4.20E-09,  avg # of iterations = 10.0

     negative rho (up, down):  8.576E-04 0.000E+00

     total cpu time spent up to now is    16266.6 secs

     total energy              =  -33980.25429167 Ry
     estimated scf accuracy    <       0.00001883 Ry

     iteration # 17     ecut=    77.00 Ry     beta= 0.20
     Davidson diagonalization with overlap
     c_bands:  1 eigenvalues not converged
     ethr =  1.10E-09,  avg # of iterations = 17.5

     negative rho (up, down):  8.646E-04 0.000E+00

     total cpu time spent up to now is    17151.6 secs

     total energy              =  -33980.25429765 Ry
     estimated scf accuracy    <       0.00001556 Ry

     iteration # 18     ecut=    77.00 Ry     beta= 0.20
     Davidson diagonalization with overlap
     ethr =  9.08E-10,  avg # of iterations =  7.8

     negative rho (up, down):  8.706E-04 0.000E+00

     total cpu time spent up to now is    17580.3 secs

     total energy              =  -33980.25429190 Ry
     estimated scf accuracy    <       0.00000643 Ry

     iteration # 19     ecut=    77.00 Ry     beta= 0.20
     Davidson diagonalization with overlap
     c_bands:  3 eigenvalues not converged
     ethr =  3.75E-10,  avg # of iterations = 18.0

     negative rho (up, down):  8.716E-04 0.000E+00

     total cpu time spent up to now is    18566.8 secs

     total energy              =  -33980.25429815 Ry
     estimated scf accuracy    <       0.00000136 Ry

     iteration # 20     ecut=    77.00 Ry     beta= 0.20
     Davidson diagonalization with overlap
     ethr =  7.92E-11,  avg # of iterations = 16.0

     negative rho (up, down):  8.714E-04 0.000E+00

     total cpu time spent up to now is    19644.0 secs

     total energy              =  -33980.25429951 Ry
     estimated scf accuracy    <       0.00000174 Ry

     iteration # 21     ecut=    77.00 Ry     beta= 0.20
     Davidson diagonalization with overlap
     ethr =  7.92E-11,  avg # of iterations =  2.8

     negative rho (up, down):  8.784E-04 0.000E+00

     total cpu time spent up to now is    20050.0 secs

     End of self-consistent calculation

          k = 0.0000 0.0000 0.0000 (386245 PWs)   bands (ev):

  -102.2442 -88.6783 -70.5573 -70.5562 -70.5534 -70.5519 -70.5271 -70.5264
   -70.5106 -66.5819 -66.5818 -66.5806 -66.5749 -66.5679 -66.5607 -66.5607
   -66.5607 -66.5606 -66.5606 -66.5606 -66.5606 -66.5606 -66.5606 -66.5604
   -66.5603 -66.5602 -66.5592 -66.5592 -66.5592 -66.5592 -66.5592 -66.5592
   -66.5581 -66.5558 -66.5419 -66.5397 -66.5395 -66.5394 -66.5393 -66.5392
   -66.5392 -66.5392 -66.5392 -66.5392 -66.5392 -66.5392 -66.5392 -66.5392
   -66.5392 -66.5391 -66.5390 -66.5388 -66.5388 -66.5387 -66.5378 -66.5378
   -66.5378 -66.5378 -66.5378 -66.5378 -66.5378 -66.5378 -66.5378 -66.5364
   -66.5321 -66.5278 -66.5221 -66.5204 -66.5196 -66.5125 -66.5123 -66.4953
   -66.4940 -56.5033 -56.4755 -56.4741 -54.4996 -54.4723 -54.4694 -40.9092
   -40.9092 -40.9092 -40.9092 -40.9092 -40.9090 -40.9085 -40.9085 -40.9085
   -40.8941 -40.8900 -40.8854 -40.8341 -40.8340 -40.8339 -40.8339 -40.8339
   -40.8339 -40.8339 -40.8339 -40.8339 -40.8337 -40.8337 -40.8336 -40.8332
   -40.8332 -40.8332 -40.8332 -40.8332 -40.8332 -40.8220 -40.8162 -40.8107
   -40.8083 -40.8080 -40.8063 -40.7573 -40.7415 -40.7414 -40.7409 -40.7332
   -40.7134 -40.7077 -40.7077 -40.7076 -40.7076 -40.7076 -40.7076 -40.7076
   -40.7076 -40.7075 -40.7074 -40.7073 -40.7073 -40.7067 -40.7067 -40.7067
   -40.7067 -40.7067 -40.7067 -40.7010 -40.7000 -40.7000 -40.6999 -40.6998
   -40.6998 -40.6998 -40.6998 -40.6998 -40.6998 -40.6996 -40.6995 -40.6995
   -40.6991 -40.6991 -40.6991 -40.6991 -40.6991 -40.6991 -40.6989 -40.6953
   -40.6929 -40.6908 -40.6887 -40.6851 -40.6841 -40.6810 -40.6727 -40.6726
   -40.6726 -40.6726 -40.6726 -40.6726 -40.6726 -40.6725 -40.6725 -40.6724
   -40.6723 -40.6723 -40.6723 -40.6716 -40.6716 -40.6716 -40.6716 -40.6716
   -40.6716 -40.6671 -40.6643 -40.6621 -40.6581 -40.6580 -40.6580 -40.6579
   -40.6579 -40.6579 -40.6579 -40.6579 -40.6579 -40.6578 -40.6578 -40.6578
   -40.6578 -40.6578 -40.6577 -40.6577 -40.6576 -40.6575 -40.6574 -40.6571
   -40.6571 -40.6571 -40.6571 -40.6571 -40.6571 -40.6570 -40.6570 -40.6570
   -40.6548 -40.6543 -40.6530 -40.6517 -40.6505 -40.6486 -40.6458 -40.6412
   -40.6362 -40.6353 -40.6345 -40.5942 -40.5942 -40.5942 -40.5942 -40.5942
   -40.5940 -40.5932 -40.5932 -40.5932 -40.5782 -40.5702 -40.5700 -40.5473
   -40.5472 -40.5471 -40.5471 -40.5471 -40.5471 -40.5471 -40.5471 -40.5471
   -40.5469 -40.5468 -40.5467 -40.5461 -40.5460 -40.5460 -40.5460 -40.5460
   -40.5460 -40.5327 -40.5263 -40.5252 -40.5224 -40.5190 -40.5133 -40.4995
   -40.4995 -40.4994 -40.4994 -40.4984 -40.4984 -40.4760 -40.4710 -20.1083
   -20.0464 -19.9460 -19.8436 -19.4065 -19.2629 -19.2405 -19.2131 -19.2099
   -19.2046 -19.1935 -19.1870 -19.1821 -19.1632 -19.1571 -19.1409 -19.1049
   -19.0965 -19.0924 -19.0802 -19.0752 -19.0560 -19.0011 -18.9970 -18.9956
   -18.9916 -18.9897 -18.9813 -18.8651 -18.7475 -18.5908 -18.5335 -18.5184
   -18.5176 -18.4650 -18.4605 -18.4336 -18.4274 -18.3985 -18.3871 -18.3785
   -18.3669 -18.3608 -18.3443 -18.3174 -18.2744 -18.2469 -18.2422 -18.2418
   -18.2284 -18.2067 -18.1898 -18.1558 -18.1457 -18.1419 -18.1387 -18.1309
   -18.1293 -18.1158 -18.0963 -18.0805 -18.0788 -18.0779 -18.0771 -18.0759
   -18.0722 -18.0519 -18.0454 -18.0427 -18.0420 -18.0361 -18.0356 -18.0344
   -18.0327 -18.0297 -18.0170 -18.0075 -18.0067 -18.0053 -17.9990 -17.9918
   -17.9906 -17.9816 -17.9781 -17.9722 -17.9644 -17.9619 -17.9590 -17.9534
   -17.9474 -17.9435 -17.9408 -17.9103 -17.9097 -17.9019 -17.8920 -17.8845
   -17.8757 -17.8747 -17.8735 -17.8701 -17.8528 -17.8527 -17.8420 -17.8411
   -17.8331 -17.8289 -17.8246 -17.8239 -17.8188 -17.8166 -17.8140 -17.8104
   -17.7986 -17.7985 -17.7956 -17.7892 -17.7844 -17.7825 -17.7798 -17.7783
   -17.7745 -17.7551 -17.7540 -17.7534 -17.7524 -17.7519 -17.7500 -12.0963
   -11.9245 -11.8196 -11.8073 -11.7656 -11.7384 -11.7325 -11.7181 -11.6376
   -11.6191 -11.6153 -11.5408 -11.5097 -11.5082 -11.4971 -11.3692 -11.3121
   -11.2264 -11.2048 -11.1991 -11.1968 -11.1949 -11.1787 -11.1762 -11.1089
   -11.0966 -11.0919 -11.0903 -11.0892 -11.0845 -11.0759 -11.0722 -11.0417
   -11.0398 -11.0318 -11.0288 -11.0227 -11.0209 -11.0160 -11.0110 -10.9941
   -10.9929 -10.9928 -10.9589 -10.9562 -10.9412 -10.9190 -10.9152 -10.9057
   -10.8936 -10.8915 -10.8876 -10.8737 -10.8562 -10.8546 -10.8469 -10.8437
   -10.8304 -10.8200 -10.8099 -10.8073 -10.8060 -10.8028 -10.7972 -10.7946
   -10.7880 -10.7879 -10.7833 -10.7783 -10.7770 -10.7687 -10.7660 -10.7653
   -10.7645 -10.7624 -10.7551 -10.7346 -10.7345 -10.7333 -10.7313 -10.7276
   -10.7222 -10.7198 -10.7160 -10.7100 -10.6951 -10.6947 -10.6947 -10.6919
   -10.6919 -10.6908 -10.6166 -10.6166 -10.6153 -10.5727 -10.5511 -10.5492
   -10.5463 -10.5391 -10.5330 -10.3592 -10.3215 -10.2178 -10.1962 -10.1751
   -10.0815 -10.0715  -9.9856  -9.8735  -9.8636  -9.8568  -9.8098  -9.7827
    -9.7753  -9.7604  -9.7540  -9.7523  -9.7457  -9.7334  -9.7286  -9.7279
    -9.7269  -9.7231  -9.7194  -9.7114  -9.7088  -9.7078  -9.7071  -9.6915
    -9.6893  -9.6788  -9.6743  -9.6539  -9.6283  -9.5911  -9.5872  -9.5846
    -9.5835  -9.5824  -9.5762  -9.5756  -9.5753  -9.5749  -9.5728  -9.5727
    -9.5682  -9.5486  -9.5471  -9.5420  -9.5259  -9.4996  -9.4993  -9.4989
    -9.4988  -9.4985  -9.4983  -9.4861  -9.4820  -9.4815  -9.4741  -9.4677
    -9.4612  -9.4597  -9.4463  -9.4113  -9.4018  -9.3480  -9.3392  -9.3234
    -9.3115  -9.3037  -9.2927  -9.2906  -9.2890  -9.2838  -9.2801  -9.2708
    -9.2613  -9.2180  -9.2080  -9.1985  -9.1902  -9.1876  -9.1764  -9.1507
    -9.1436  -9.1411  -9.1387  -9.1375  -9.1354  -9.1237  -9.1127  -9.1060
    -9.0988  -9.0797  -9.0731  -9.0658  -9.0422  -9.0158  -8.9714  -8.9536
    -8.9403  -8.9388  -8.9385  -8.9344  -8.9226  -8.9139  -8.9072  -8.9043
    -8.9031  -8.8832  -8.8750  -8.8748  -8.8706  -8.8694  -8.8591  -8.8447
    -8.8413  -8.8389  -8.8217  -8.7789  -8.7788  -8.7787  -8.7784  -8.7780
    -8.7777  -8.7101  -8.7099  -8.7058  -8.7003  -8.6966  -8.6849  -8.6244
    -8.6232  -8.6208  -8.6169  -8.6149  -8.6003  -8.5526  -8.5504  -8.5501
    -8.5492  -8.5480  -8.5472  -8.5427  -8.5321  -8.4589  -8.3653  -8.3238
    -8.3238  -8.3190  -8.3187  -8.3126  -8.3123  -8.3023  -8.2895  -8.2655
    -8.2560  -8.2450  -8.2389  -8.2334  -8.2334  -8.2324  -8.2307  -8.2293
    -8.2229  -8.2071  -8.2069  -8.2052  -8.2030  -8.2027  -8.1989  -8.1788
    -8.1787  -8.1777  -8.1770  -8.1768  -8.1759  -8.1688  -8.1056  -8.0998
    -7.9449  -7.9419  -7.9001  -7.8147  -7.8145  -7.8121  -7.7332  -7.7266
    -7.7162  -7.6543  -7.6454  -7.6152  -7.5985  -7.5983  -7.5868  -7.5721
    -7.5711  -7.5663  -7.5661  -7.5622  -7.5365  -7.5284  -7.5266  -7.5118
    -7.5094  -7.5072  -7.5003  -7.4967  -7.4907  -7.4902  -7.4902  -7.4893
    -7.4851  -7.4814  -7.4762  -7.4708  -7.4645  -7.4634  -7.4629  -7.4611
    -7.4604  -7.4600  -7.4408  -7.4395  -7.4394  -7.4387  -7.4386  -7.4384
    -7.4217  -7.4093  -7.4002  -7.3843  -7.3840  -7.3754  -7.3730  -7.3691
    -7.3657  -7.3589  -7.3271  -7.3240  -7.2969  -7.2954  -7.2761  -7.2687
    -7.2660  -7.2563  -7.2540  -7.2478  -7.2449  -7.2366  -7.2307  -7.2250
    -7.2073  -7.2071  -7.1890  -7.1884  -7.1711  -7.1708  -7.1565  -7.1347
    -7.0931  -7.0848  -7.0792  -7.0656  -7.0465  -7.0026  -6.9382  -6.9111
    -6.8557  -6.8544  -6.8296  -6.8161  -6.7913  -6.7662  -6.7629  -6.7500
    -6.7379  -6.7371  -6.7210  -6.7048  -6.6934  -6.6845  -6.6667  -6.6552
    -6.6503  -6.6354  -6.6112  -6.5830  -6.5817  -6.5781  -6.5730  -6.5623
    -6.5536  -6.5413  -6.5311  -6.5169  -6.5083  -6.5013  -6.4937  -6.4817
    -6.4720  -6.4688  -6.4682  -6.4672  -6.4662  -6.4650  -6.4638  -6.4622
    -6.4551  -6.4547  -6.4546  -6.4544  -6.4544  -6.4539  -6.4427  -6.4166
    -6.4130  -6.4010  -6.3767  -6.3716  -6.3670  -6.3592  -6.3498  -6.3159
    -6.3080  -6.2906  -6.2900  -6.2895  -6.2894  -6.2835  -6.2819  -6.2576
    -6.2517  -6.2501  -6.2501  -6.2433  -6.2431  -6.2295  -6.2133  -6.2117
    -6.2117  -6.2089  -6.2088  -6.2066  -6.1994  -6.1675  -6.1159  -6.0823
    -5.8588  -5.7280  -5.6805  -5.6752  -5.5387  -5.3945  -5.3843  -5.2723
    -5.1087  -4.3759  -3.8632  -3.8133  -3.8116  -3.8055  -3.8009  -3.7865
    -3.7843  -3.7840  -3.7811  -3.7808  -3.7768  -3.7607  -3.7196  -3.6683
    -3.6638  -3.6473  -3.6428  -3.6390  -3.6370  -3.6300  -3.6294  -3.6233
    -3.6214  -3.5384  -3.4964  -3.4751  -3.4700  -3.4641  -3.4485  -3.4462
    -3.4380  -3.4345  -3.4294  -3.4286  -3.4281  -3.4251  -3.4243  -3.4130
    -3.4114  -3.4070  -3.3997  -3.3990  -3.3989  -3.3970  -3.3894  -3.3838
    -3.3835  -3.3822  -3.3709  -3.3686  -3.3669  -3.3657  -3.3645  -3.3596
    -3.3587  -3.3537  -3.3510  -3.3464  -3.3464  -3.3114  -3.3092  -3.3039
    -3.3020  -3.2996  -3.2970  -3.2937  -3.2926  -3.2925  -3.2833  -3.2716
    -3.2633  -3.2503  -3.2431  -3.2391  -3.2385  -3.2338  -3.2225  -3.2153
    -3.2002  -3.1722  -3.1706  -3.1549  -3.1481  -3.0447  -3.0221  -3.0197
    -3.0156  -3.0146  -3.0145  -3.0123  -2.9980  -2.9977  -2.9923  -2.9683
    -2.9441  -2.9425  -2.9320  -2.9307  -2.9285  -2.9280  -2.9273  -2.9214
    -2.9205  -2.9199  -2.9194  -2.9168  -2.9134  -2.9107  -2.9104  -2.9017
    -2.8940  -2.8937  -2.8886  -2.8880  -2.8870  -2.8841  -2.8837  -2.8829
    -2.8821  -2.8795  -2.8788  -2.8429  -2.8379  -2.8336  -2.8281  -2.8247
    -2.8142  -2.8015  -2.7933  -2.7917  -2.7653  -2.7608  -2.7604  -2.7599
    -2.7596  -2.7589  -2.7586  -2.7583  -2.7575  -2.7493  -2.7423  -2.7401
    -2.7116  -2.7070  -2.7049  -2.6879  -2.6835  -2.6773  -2.6761  -2.6253
    -2.6231  -2.5951  -2.5931  -2.5856  -2.5805  -2.5797  -2.5744  -2.5730
    -2.5717  -2.5586  -2.5326  -2.5136  -2.5103  -2.4967  -2.4922  -2.3967
    -2.3771  -2.3694  -2.3681  -2.3631

          k = 0.0000-0.5773 0.0000 (386352 PWs)   bands (ev):

  -102.2442 -88.6783 -70.5573 -70.5562 -70.5534 -70.5519 -70.5271 -70.5264
   -70.5107 -66.5757 -66.5757 -66.5756 -66.5755 -66.5743 -66.5743 -66.5723
   -66.5707 -66.5650 -66.5650 -66.5650 -66.5649 -66.5637 -66.5637 -66.5583
   -66.5558 -66.5501 -66.5499 -66.5499 -66.5499 -66.5499 -66.5499 -66.5496
   -66.5496 -66.5485 -66.5485 -66.5485 -66.5485 -66.5455 -66.5455 -66.5454
   -66.5453 -66.5441 -66.5441 -66.5430 -66.5415 -66.5393 -66.5392 -66.5392
   -66.5392 -66.5392 -66.5392 -66.5390 -66.5388 -66.5378 -66.5378 -66.5378
   -66.5378 -66.5348 -66.5348 -66.5347 -66.5346 -66.5334 -66.5334 -66.5312
   -66.5305 -66.5283 -66.5236 -66.5221 -66.5197 -66.5123 -66.5121 -66.4951
   -66.4942 -56.5033 -56.4755 -56.4741 -54.4996 -54.4723 -54.4694 -40.8778
   -40.8777 -40.8776 -40.8776 -40.8776 -40.8776 -40.8775 -40.8775 -40.8773
   -40.8769 -40.8769 -40.8769 -40.8769 -40.8608 -40.8508 -40.8508 -40.8508
   -40.8506 -40.8501 -40.8501 -40.8484 -40.8409 -40.8387 -40.8387 -40.8387
   -40.8386 -40.8380 -40.8380 -40.8365 -40.8209 -40.8207 -40.8149 -40.7881
   -40.7881 -40.7881 -40.7880 -40.7880 -40.7880 -40.7879 -40.7879 -40.7872
   -40.7872 -40.7872 -40.7872 -40.7705 -40.7693 -40.7646 -40.7637 -40.7549
   -40.7294 -40.7294 -40.7293 -40.7292 -40.7291 -40.7287 -40.7287 -40.7256
   -40.7198 -40.7198 -40.7197 -40.7196 -40.7189 -40.7189 -40.7085 -40.7085
   -40.7084 -40.7084 -40.7078 -40.7078 -40.7033 -40.7009 -40.6959 -40.6913
   -40.6813 -40.6789 -40.6789 -40.6789 -40.6789 -40.6789 -40.6789 -40.6786
   -40.6786 -40.6781 -40.6781 -40.6781 -40.6781 -40.6708 -40.6702 -40.6702
   -40.6701 -40.6700 -40.6694 -40.6694 -40.6683 -40.6655 -40.6655 -40.6638
   -40.6583 -40.6583 -40.6582 -40.6582 -40.6579 -40.6579 -40.6579 -40.6579
   -40.6578 -40.6578 -40.6578 -40.6574 -40.6574 -40.6574 -40.6571 -40.6571
   -40.6571 -40.6571 -40.6525 -40.6492 -40.6492 -40.6491 -40.6491 -40.6484
   -40.6484 -40.6481 -40.6426 -40.6395 -40.6391 -40.6331 -40.6329 -40.6275
   -40.6274 -40.6274 -40.6273 -40.6273 -40.6273 -40.6272 -40.6271 -40.6264
   -40.6264 -40.6264 -40.6264 -40.6193 -40.6067 -40.6005 -40.5940 -40.5926
   -40.5926 -40.5926 -40.5926 -40.5926 -40.5926 -40.5925 -40.5925 -40.5916
   -40.5916 -40.5916 -40.5916 -40.5805 -40.5805 -40.5804 -40.5803 -40.5794
   -40.5794 -40.5755 -40.5732 -40.5697 -40.5682 -40.5614 -40.5612 -40.5611
   -40.5611 -40.5610 -40.5601 -40.5601 -40.5448 -40.5447 -40.5442 -40.5442
   -40.5441 -40.5440 -40.5431 -40.5431 -40.5318 -40.5223 -40.5171 -40.5135
   -40.5135 -40.5134 -40.5133 -40.5124 -40.5124 -40.4977 -40.4769 -19.9329
   -19.8421 -19.8210 -19.7780 -19.7201 -19.6872 -19.6128 -19.6013 -19.4600
   -19.4159 -19.3826 -19.3656 -19.2886 -19.2770 -19.1864 -19.1823 -18.8648
   -18.7863 -18.7747 -18.7487 -18.7326 -18.6849 -18.6786 -18.6764 -18.6761
   -18.6570 -18.6433 -18.6301 -18.6059 -18.6038 -18.6005 -18.5580 -18.5458
   -18.5403 -18.5285 -18.5104 -18.5060 -18.5048 -18.4933 -18.4923 -18.4492
   -18.4454 -18.4331 -18.4258 -18.4234 -18.3908 -18.3876 -18.3683 -18.3676
   -18.3538 -18.3327 -18.3129 -18.3033 -18.2875 -18.2697 -18.2534 -18.2201
   -18.2170 -18.1926 -18.1890 -18.1767 -18.1539 -18.1355 -18.1225 -18.1151
   -18.0895 -18.0778 -18.0630 -18.0582 -18.0575 -18.0560 -18.0525 -18.0342
   -18.0289 -18.0274 -18.0271 -18.0249 -18.0213 -18.0202 -18.0108 -18.0056
   -17.9955 -17.9867 -17.9844 -17.9690 -17.9620 -17.9613 -17.9592 -17.9581
   -17.9520 -17.9444 -17.9439 -17.9436 -17.9324 -17.9120 -17.8966 -17.8913
   -17.8843 -17.8751 -17.8743 -17.8506 -17.8489 -17.8382 -17.8302 -17.8285
   -17.8055 -17.7987 -17.7954 -17.7923 -17.7885 -17.7764 -17.7755 -17.7748
   -17.7747 -17.7732 -17.7721 -17.7619 -17.7599 -17.7423 -17.7385 -17.7177
   -17.7145 -17.6985 -17.6938 -17.6838 -17.6801 -17.6760 -17.6753 -12.0120
   -11.6819 -11.6708 -11.5919 -11.5647 -11.4873 -11.4725 -11.4708 -11.4521
   -11.4509 -11.4411 -11.4331 -11.4257 -11.4040 -11.3986 -11.3851 -11.3841
   -11.3575 -11.3410 -11.3232 -11.2959 -11.2941 -11.2916 -11.2727 -11.2700
   -11.2486 -11.2302 -11.2236 -11.2196 -11.2137 -11.2124 -11.2122 -11.2042
   -11.1652 -11.1624 -11.1604 -11.1488 -11.1389 -11.1263 -11.1257 -11.1235
   -11.1127 -11.1045 -11.1032 -11.1024 -11.0726 -11.0559 -11.0231 -11.0167
   -11.0114 -10.9803 -10.9217 -10.9160 -10.8915 -10.8883 -10.8762 -10.8703
   -10.8624 -10.8530 -10.8506 -10.8416 -10.8146 -10.8033 -10.7917 -10.7864
   -10.7858 -10.7810 -10.7693 -10.7676 -10.7675 -10.7666 -10.7568 -10.7567
   -10.7504 -10.7503 -10.7498 -10.7472 -10.7468 -10.7397 -10.7392 -10.7374
   -10.7248 -10.6999 -10.6997 -10.6993 -10.6976 -10.5758 -10.5080 -10.4997
   -10.4917 -10.4783 -10.4351 -10.4230 -10.3914 -10.3769 -10.3384 -10.3096
   -10.2768 -10.2054 -10.1801 -10.1613 -10.1372 -10.0966 -10.0795 -10.0775
   -10.0690 -10.0470 -10.0239 -10.0172 -10.0119 -10.0069  -9.9961  -9.9876
    -9.9749  -9.9716  -9.9632  -9.9501  -9.9371  -9.9075  -9.8890  -9.8794
    -9.8699  -9.8643  -9.8564  -9.8495  -9.8489  -9.8283  -9.8091  -9.7966
    -9.7890  -9.7630  -9.7625  -9.7533  -9.7434  -9.7252  -9.7145  -9.7040
    -9.6768  -9.6741  -9.6721  -9.6582  -9.6187  -9.6158  -9.6080  -9.5977
    -9.5731  -9.5627  -9.5492  -9.5393  -9.5292  -9.5246  -9.5033  -9.4963
    -9.4940  -9.4759  -9.4755  -9.4461  -9.4451  -9.4368  -9.4325  -9.4319
    -9.4193  -9.4166  -9.4130  -9.3988  -9.3868  -9.3853  -9.3752  -9.3299
    -9.3083  -9.2777  -9.2479  -9.2291  -9.2238  -9.2030  -9.1802  -9.1685
    -9.1642  -9.1596  -9.1472  -9.1423  -9.1363  -9.1032  -9.0888  -9.0878
    -9.0508  -9.0458  -9.0442  -9.0414  -9.0257  -9.0250  -9.0123  -9.0081
    -8.9897  -8.9864  -8.9806  -8.9730  -8.9538  -8.9378  -8.9250  -8.9113
    -8.9072  -8.9042  -8.8902  -8.8774  -8.8761  -8.8658  -8.8571  -8.8451
    -8.8414  -8.8412  -8.8388  -8.8333  -8.8329  -8.8255  -8.8255  -8.8227
    -8.8146  -8.8017  -8.8006  -8.7962  -8.7947  -8.7947  -8.7907  -8.7808
    -8.7579  -8.7574  -8.7510  -8.7406  -8.7389  -8.7382  -8.7369  -8.7209
    -8.7124  -8.6917  -8.6899  -8.6871  -8.6829  -8.6782  -8.6611  -8.6504
    -8.6177  -8.6029  -8.5905  -8.5436  -8.4974  -8.4767  -8.4602  -8.4529
    -8.4003  -8.3861  -8.3639  -8.3154  -8.3056  -8.3029  -8.2438  -8.1983
    -8.1245  -8.1120  -8.0847  -8.0840  -8.0787  -8.0750  -8.0706  -8.0637
    -8.0622  -8.0546  -8.0201  -8.0199  -8.0162  -7.9292  -7.9244  -7.9047
    -7.8895  -7.8435  -7.8115  -7.8046  -7.7984  -7.7984  -7.7859  -7.7846
    -7.7789  -7.7721  -7.7721  -7.7589  -7.7559  -7.7545  -7.7503  -7.7485
    -7.7433  -7.7398  -7.7393  -7.7373  -7.7332  -7.7279  -7.7253  -7.7246
    -7.7228  -7.7210  -7.7174  -7.7164  -7.7145  -7.7134  -7.6981  -7.6980
    -7.6922  -7.6882  -7.6832  -7.6808  -7.6666  -7.6549  -7.6534  -7.6517
    -7.6511  -7.6269  -7.6224  -7.6210  -7.6209  -7.6185  -7.6150  -7.6123
    -7.5951  -7.5816  -7.5661  -7.5640  -7.5625  -7.5578  -7.5527  -7.5509
    -7.5487  -7.5413  -7.5375  -7.5338  -7.5203  -7.5199  -7.5099  -7.5079
    -7.4955  -7.4947  -7.4302  -7.4188  -7.4123  -7.4112  -7.4083  -7.4052
    -7.3821  -7.3347  -7.2428  -7.1597  -7.1361  -7.1290  -7.1276  -7.1231
    -7.1199  -7.1181  -7.0797  -7.0791  -7.0655  -7.0578  -7.0566  -7.0287
    -6.9991  -6.9965  -6.9831  -6.9786  -6.9722  -6.9493  -6.9373  -6.9319
    -6.9144  -6.9114  -6.8785  -6.8705  -6.8600  -6.8580  -6.8380  -6.8357
    -6.8299  -6.8155  -6.8120  -6.8016  -6.7930  -6.7717  -6.7358  -6.7284
    -6.7177  -6.6944  -6.6449  -6.6243  -6.6155  -6.5992  -6.5959  -6.5939
    -6.5776  -6.5630  -6.5621  -6.5615  -6.5604  -6.5597  -6.5447  -6.5443
    -6.5431  -6.5429  -6.5355  -6.5353  -6.5351  -6.5350  -6.5343  -6.5152
    -6.4823  -6.4656  -6.3878  -6.3805  -6.3641  -6.3366  -6.2946  -6.2868
    -6.2788  -6.2757  -6.2710  -6.2658  -6.2512  -6.2495  -6.2337  -6.2328
    -6.2290  -6.2281  -6.2237  -6.2185  -6.2096  -6.1947  -6.1781  -6.1702
    -6.1624  -6.1558  -6.1534  -6.1462  -6.1458  -5.9559  -5.9506  -5.9408
    -5.9127  -5.9011  -5.8561  -5.8502  -5.8141  -5.8027  -5.8025  -5.7113
    -5.6791  -5.6743  -5.6334  -5.6007  -5.5623  -5.5468  -5.4457  -5.3730
    -5.3656  -4.3796  -4.0508  -4.0499  -4.0361  -4.0192  -3.8951  -3.8823
    -3.8767  -3.8761  -3.8483  -3.8172  -3.7978  -3.7966  -3.7836  -3.7797
    -3.7671  -3.7642  -3.7541  -3.7539  -3.7416  -3.7204  -3.6511  -3.6451
    -3.6410  -3.6203  -3.5715  -3.5624  -3.5568  -3.5547  -3.5519  -3.5450
    -3.5080  -3.5064  -3.4884  -3.4736  -3.4729  -3.4697  -3.4676  -3.4652
    -3.4464  -3.4362  -3.4347  -3.4299  -3.4298  -3.4261  -3.4202  -3.4190
    -3.4015  -3.3981  -3.3962  -3.3825  -3.3704  -3.3704  -3.3633  -3.3558
    -3.3165  -3.3067  -3.3034  -3.2990  -3.2984  -3.2965  -3.2944  -3.2918
    -3.2855  -3.2632  -3.2510  -3.2445  -3.2390  -3.2351  -3.2340  -3.2331
    -3.2300  -3.2273  -3.2168  -3.1985  -3.1927  -3.1886  -3.1872  -3.1806
    -3.1732  -3.1692  -3.1666  -3.1641  -3.1514  -3.1447  -3.1405  -3.1340
    -3.1307  -3.1246  -3.1166  -3.1165  -3.1124  -3.1120  -3.0847  -3.0612
    -3.0516  -3.0417  -3.0236  -3.0234  -3.0205  -3.0160  -3.0054  -2.9846
    -2.9805  -2.9772  -2.9769  -2.9757  -2.9745  -2.9698  -2.9669  -2.9617
    -2.9594  -2.9578  -2.9491  -2.9443  -2.9423  -2.9342  -2.9335  -2.9282
    -2.9239  -2.9216  -2.9202  -2.9192  -2.9100  -2.9059  -2.9010  -2.8998
    -2.8935  -2.8915  -2.8854  -2.8776  -2.8665  -2.8530  -2.8511  -2.8384
    -2.8358  -2.8305  -2.8266  -2.8117  -2.7944  -2.7528  -2.7520  -2.7411
    -2.7393  -2.6985  -2.6781  -2.6708  -2.6633  -2.5886  -2.5669  -2.5644
    -2.5333  -2.5279  -2.5119  -2.5054  -2.4973  -2.4880  -2.4876  -2.4808
    -2.4799  -2.4753  -2.4746  -2.4674  -2.3611  -2.3549  -2.3504  -2.3476
    -2.3311  -2.3290  -2.3149  -2.3026

          k =-0.5000-0.2887 0.0000 (386352 PWs)   bands (ev):

  -102.2442 -88.6783 -70.5573 -70.5562 -70.5534 -70.5519 -70.5271 -70.5264
   -70.5107 -66.5757 -66.5757 -66.5757 -66.5755 -66.5743 -66.5743 -66.5729
   -66.5677 -66.5652 -66.5650 -66.5650 -66.5649 -66.5649 -66.5637 -66.5637
   -66.5500 -66.5499 -66.5499 -66.5499 -66.5499 -66.5499 -66.5496 -66.5496
   -66.5485 -66.5485 -66.5485 -66.5485 -66.5480 -66.5455 -66.5455 -66.5455
   -66.5453 -66.5450 -66.5441 -66.5441 -66.5411 -66.5394 -66.5392 -66.5392
   -66.5392 -66.5392 -66.5391 -66.5391 -66.5388 -66.5378 -66.5378 -66.5378
   -66.5378 -66.5360 -66.5348 -66.5348 -66.5347 -66.5346 -66.5334 -66.5334
   -66.5305 -66.5264 -66.5243 -66.5214 -66.5159 -66.5154 -66.5120 -66.4951
   -66.4941 -56.5033 -56.4755 -56.4741 -54.4996 -54.4723 -54.4694 -40.8777
   -40.8776 -40.8776 -40.8776 -40.8776 -40.8776 -40.8776 -40.8773 -40.8769
   -40.8769 -40.8769 -40.8769 -40.8627 -40.8581 -40.8571 -40.8559 -40.8508
   -40.8508 -40.8508 -40.8507 -40.8501 -40.8501 -40.8387 -40.8387 -40.8387
   -40.8387 -40.8380 -40.8380 -40.8373 -40.8358 -40.8119 -40.8063 -40.7881
   -40.7881 -40.7880 -40.7880 -40.7880 -40.7880 -40.7880 -40.7879 -40.7872
   -40.7872 -40.7872 -40.7872 -40.7666 -40.7654 -40.7643 -40.7627 -40.7543
   -40.7313 -40.7294 -40.7294 -40.7293 -40.7292 -40.7287 -40.7287 -40.7198
   -40.7198 -40.7198 -40.7197 -40.7197 -40.7189 -40.7189 -40.7124 -40.7085
   -40.7085 -40.7084 -40.7084 -40.7078 -40.7078 -40.7002 -40.6954 -40.6849
   -40.6800 -40.6790 -40.6789 -40.6789 -40.6789 -40.6789 -40.6789 -40.6786
   -40.6786 -40.6781 -40.6781 -40.6781 -40.6781 -40.6775 -40.6745 -40.6702
   -40.6701 -40.6701 -40.6700 -40.6694 -40.6694 -40.6657 -40.6642 -40.6583
   -40.6583 -40.6582 -40.6582 -40.6580 -40.6579 -40.6578 -40.6578 -40.6578
   -40.6578 -40.6577 -40.6575 -40.6574 -40.6574 -40.6571 -40.6571 -40.6571
   -40.6571 -40.6560 -40.6549 -40.6492 -40.6492 -40.6491 -40.6491 -40.6484
   -40.6484 -40.6469 -40.6464 -40.6402 -40.6360 -40.6352 -40.6332 -40.6275
   -40.6274 -40.6274 -40.6273 -40.6273 -40.6273 -40.6272 -40.6270 -40.6264
   -40.6264 -40.6264 -40.6264 -40.6131 -40.6088 -40.6059 -40.6013 -40.5926
   -40.5926 -40.5926 -40.5926 -40.5926 -40.5925 -40.5925 -40.5925 -40.5916
   -40.5916 -40.5916 -40.5916 -40.5805 -40.5805 -40.5805 -40.5803 -40.5794
   -40.5794 -40.5735 -40.5707 -40.5700 -40.5663 -40.5612 -40.5612 -40.5611
   -40.5609 -40.5601 -40.5601 -40.5552 -40.5532 -40.5442 -40.5442 -40.5441
   -40.5440 -40.5431 -40.5431 -40.5425 -40.5368 -40.5173 -40.5135 -40.5135
   -40.5135 -40.5133 -40.5124 -40.5124 -40.5117 -40.4900 -40.4874 -19.9171
   -19.8486 -19.8198 -19.7929 -19.7198 -19.7007 -19.6132 -19.6061 -19.4349
   -19.4150 -19.3777 -19.3639 -19.2852 -19.2751 -19.1852 -19.1814 -18.8835
   -18.8024 -18.7751 -18.7412 -18.7153 -18.6946 -18.6784 -18.6770 -18.6761
   -18.6612 -18.6381 -18.6323 -18.6048 -18.6044 -18.5959 -18.5846 -18.5521
   -18.5441 -18.5172 -18.5129 -18.5101 -18.5077 -18.4842 -18.4808 -18.4555
   -18.4538 -18.4352 -18.4315 -18.4207 -18.4138 -18.3654 -18.3638 -18.3617
   -18.3591 -18.3212 -18.3087 -18.2895 -18.2845 -18.2699 -18.2422 -18.2161
   -18.2065 -18.2009 -18.1964 -18.1569 -18.1510 -18.1366 -18.1312 -18.0938
   -18.0909 -18.0737 -18.0645 -18.0612 -18.0581 -18.0550 -18.0526 -18.0463
   -18.0397 -18.0291 -18.0251 -18.0231 -18.0228 -18.0135 -18.0126 -18.0023
   -17.9986 -17.9964 -17.9932 -17.9667 -17.9644 -17.9612 -17.9597 -17.9561
   -17.9557 -17.9515 -17.9492 -17.9395 -17.9387 -17.9044 -17.9007 -17.8930
   -17.8923 -17.8849 -17.8817 -17.8481 -17.8476 -17.8384 -17.8353 -17.8094
   -17.8056 -17.8006 -17.7977 -17.7911 -17.7812 -17.7759 -17.7757 -17.7752
   -17.7744 -17.7733 -17.7694 -17.7605 -17.7589 -17.7398 -17.7391 -17.7157
   -17.7154 -17.6962 -17.6953 -17.6825 -17.6816 -17.6759 -17.6757 -11.9817
   -11.6881 -11.6634 -11.5912 -11.5812 -11.5366 -11.4812 -11.4761 -11.4674
   -11.4498 -11.4465 -11.4446 -11.4369 -11.4248 -11.4097 -11.3926 -11.3459
   -11.3427 -11.3323 -11.3288 -11.3025 -11.2850 -11.2783 -11.2734 -11.2503
   -11.2411 -11.2326 -11.2255 -11.2186 -11.2171 -11.2088 -11.2042 -11.1904
   -11.1634 -11.1601 -11.1551 -11.1485 -11.1419 -11.1277 -11.1246 -11.1234
   -11.1220 -11.1027 -11.1016 -11.0770 -11.0726 -11.0408 -11.0322 -11.0291
   -11.0151 -10.9700 -10.9432 -10.9145 -10.9008 -10.8931 -10.8885 -10.8709
   -10.8631 -10.8484 -10.8404 -10.8164 -10.8107 -10.8078 -10.7926 -10.7903
   -10.7847 -10.7779 -10.7758 -10.7677 -10.7671 -10.7667 -10.7648 -10.7543
   -10.7538 -10.7522 -10.7497 -10.7483 -10.7479 -10.7386 -10.7380 -10.7376
   -10.7348 -10.6996 -10.6996 -10.6994 -10.6990 -10.5277 -10.5053 -10.5029
   -10.5006 -10.4780 -10.4540 -10.4288 -10.3932 -10.3722 -10.3464 -10.2955
   -10.2835 -10.2090 -10.1858 -10.1122 -10.1092 -10.1014 -10.0942 -10.0712
   -10.0637 -10.0578 -10.0514 -10.0187 -10.0081  -9.9904  -9.9871  -9.9852
    -9.9803  -9.9777  -9.9712  -9.9471  -9.9409  -9.8995  -9.8944  -9.8836
    -9.8733  -9.8670  -9.8612  -9.8485  -9.8444  -9.8133  -9.8127  -9.7905
    -9.7859  -9.7698  -9.7586  -9.7495  -9.7345  -9.7325  -9.7188  -9.6990
    -9.6917  -9.6551  -9.6491  -9.6401  -9.6341  -9.6131  -9.6002  -9.5879
    -9.5808  -9.5674  -9.5660  -9.5323  -9.5273  -9.5175  -9.5068  -9.4969
    -9.4926  -9.4860  -9.4765  -9.4467  -9.4457  -9.4366  -9.4325  -9.4276
    -9.4251  -9.4155  -9.4130  -9.4086  -9.4062  -9.3847  -9.3818  -9.3319
    -9.3317  -9.3107  -9.2923  -9.2351  -9.2241  -9.1939  -9.1869  -9.1825
    -9.1785  -9.1533  -9.1437  -9.1324  -9.1292  -9.1147  -9.1059  -9.0828
    -9.0725  -9.0479  -9.0415  -9.0370  -9.0300  -9.0111  -9.0064  -8.9950
    -8.9912  -8.9894  -8.9810  -8.9478  -8.9431  -8.9286  -8.9240  -8.9090
    -8.9076  -8.8920  -8.8904  -8.8743  -8.8661  -8.8471  -8.8455  -8.8439
    -8.8435  -8.8380  -8.8336  -8.8279  -8.8268  -8.8233  -8.8219  -8.8190
    -8.8136  -8.8112  -8.8027  -8.7963  -8.7961  -8.7901  -8.7894  -8.7836
    -8.7679  -8.7499  -8.7483  -8.7433  -8.7422  -8.7402  -8.7398  -8.7193
    -8.7179  -8.6896  -8.6896  -8.6834  -8.6818  -8.6706  -8.6631  -8.6159
    -8.6116  -8.6054  -8.5953  -8.5580  -8.5422  -8.4600  -8.4597  -8.4102
    -8.4037  -8.3706  -8.3558  -8.3067  -8.3046  -8.2646  -8.2593  -8.2234
    -8.2033  -8.1113  -8.1041  -8.0841  -8.0840  -8.0755  -8.0750  -8.0643
    -8.0636  -8.0509  -8.0188  -8.0112  -7.9910  -7.9427  -7.9339  -7.9183
    -7.9096  -7.8442  -7.8379  -7.8042  -7.7975  -7.7906  -7.7861  -7.7834
    -7.7815  -7.7682  -7.7635  -7.7603  -7.7576  -7.7536  -7.7510  -7.7466
    -7.7437  -7.7413  -7.7397  -7.7365  -7.7363  -7.7307  -7.7285  -7.7247
    -7.7244  -7.7211  -7.7198  -7.7155  -7.7145  -7.7141  -7.7136  -7.6963
    -7.6925  -7.6846  -7.6838  -7.6786  -7.6769  -7.6525  -7.6523  -7.6521
    -7.6519  -7.6239  -7.6234  -7.6223  -7.6222  -7.6089  -7.6083  -7.5995
    -7.5947  -7.5795  -7.5705  -7.5671  -7.5641  -7.5619  -7.5607  -7.5547
    -7.5505  -7.5407  -7.5400  -7.5237  -7.5201  -7.5199  -7.5168  -7.5153
    -7.5119  -7.4503  -7.4464  -7.4228  -7.4195  -7.4120  -7.4107  -7.3739
    -7.3690  -7.2806  -7.2675  -7.1558  -7.1508  -7.1277  -7.1263  -7.1217
    -7.1210  -7.0849  -7.0785  -7.0756  -7.0739  -7.0601  -7.0581  -7.0270
    -7.0206  -6.9962  -6.9937  -6.9794  -6.9778  -6.9678  -6.9585  -6.9304
    -6.9283  -6.8726  -6.8695  -6.8686  -6.8659  -6.8486  -6.8426  -6.8306
    -6.8269  -6.8155  -6.8154  -6.7776  -6.7689  -6.7554  -6.7424  -6.7128
    -6.7116  -6.6802  -6.6663  -6.6394  -6.6277  -6.6209  -6.5974  -6.5811
    -6.5756  -6.5638  -6.5619  -6.5610  -6.5606  -6.5601  -6.5449  -6.5441
    -6.5438  -6.5428  -6.5409  -6.5353  -6.5352  -6.5350  -6.5349  -6.4923
    -6.4759  -6.4409  -6.4346  -6.3743  -6.3713  -6.3253  -6.2880  -6.2825
    -6.2774  -6.2758  -6.2712  -6.2547  -6.2394  -6.2359  -6.2331  -6.2326
    -6.2288  -6.2284  -6.2215  -6.2068  -6.2053  -6.2004  -6.1916  -6.1868
    -6.1686  -6.1593  -6.1569  -6.1553  -6.1375  -5.9608  -5.9560  -5.9294
    -5.9247  -5.8910  -5.8744  -5.8537  -5.8418  -5.8047  -5.8010  -5.7092
    -5.6856  -5.6753  -5.6553  -5.5785  -5.5611  -5.5314  -5.4480  -5.3845
    -5.3457  -4.3679  -4.0499  -4.0437  -4.0408  -4.0219  -3.9092  -3.8824
    -3.8788  -3.8681  -3.8600  -3.8219  -3.7996  -3.7960  -3.7866  -3.7784
    -3.7709  -3.7619  -3.7606  -3.7532  -3.7516  -3.7080  -3.6661  -3.6395
    -3.6286  -3.6025  -3.5881  -3.5602  -3.5563  -3.5546  -3.5540  -3.5208
    -3.5078  -3.5059  -3.4945  -3.4805  -3.4794  -3.4699  -3.4664  -3.4622
    -3.4515  -3.4357  -3.4347  -3.4310  -3.4280  -3.4247  -3.4202  -3.4136
    -3.4081  -3.4003  -3.3947  -3.3824  -3.3777  -3.3686  -3.3683  -3.3394
    -3.3270  -3.3031  -3.3027  -3.3021  -3.3004  -3.2988  -3.2938  -3.2893
    -3.2850  -3.2578  -3.2522  -3.2438  -3.2413  -3.2348  -3.2336  -3.2307
    -3.2291  -3.2275  -3.2204  -3.1992  -3.1968  -3.1894  -3.1844  -3.1779
    -3.1735  -3.1681  -3.1663  -3.1634  -3.1528  -3.1448  -3.1414  -3.1329
    -3.1274  -3.1241  -3.1178  -3.1166  -3.1166  -3.1051  -3.1001  -3.0594
    -3.0561  -3.0385  -3.0256  -3.0225  -3.0187  -3.0157  -3.0136  -2.9792
    -2.9782  -2.9773  -2.9770  -2.9767  -2.9756  -2.9668  -2.9658  -2.9597
    -2.9580  -2.9574  -2.9538  -2.9451  -2.9424  -2.9326  -2.9298  -2.9288
    -2.9268  -2.9241  -2.9214  -2.9196  -2.9109  -2.9050  -2.9014  -2.8997
    -2.8939  -2.8856  -2.8829  -2.8780  -2.8706  -2.8488  -2.8458  -2.8431
    -2.8393  -2.8322  -2.8238  -2.8159  -2.8138  -2.7489  -2.7464  -2.7456
    -2.7451  -2.6967  -2.6837  -2.6770  -2.6662  -2.5732  -2.5636  -2.5475
    -2.5450  -2.5292  -2.5260  -2.5189  -2.4990  -2.4941  -2.4908  -2.4828
    -2.4807  -2.4781  -2.4759  -2.4104  -2.3570  -2.3537  -2.3516  -2.3463
    -2.3402  -2.3286  -2.3096  -2.2971

          k =-0.5000-0.8660 0.0000 (386352 PWs)   bands (ev):

  -102.2442 -88.6783 -70.5573 -70.5562 -70.5534 -70.5519 -70.5271 -70.5264
   -70.5107 -66.5757 -66.5757 -66.5757 -66.5755 -66.5743 -66.5743 -66.5729
   -66.5677 -66.5652 -66.5650 -66.5650 -66.5649 -66.5649 -66.5637 -66.5637
   -66.5500 -66.5499 -66.5499 -66.5499 -66.5499 -66.5499 -66.5496 -66.5496
   -66.5485 -66.5485 -66.5485 -66.5485 -66.5480 -66.5455 -66.5455 -66.5455
   -66.5453 -66.5450 -66.5441 -66.5441 -66.5411 -66.5394 -66.5392 -66.5392
   -66.5392 -66.5392 -66.5391 -66.5391 -66.5388 -66.5378 -66.5378 -66.5378
   -66.5378 -66.5360 -66.5348 -66.5348 -66.5347 -66.5346 -66.5334 -66.5334
   -66.5305 -66.5263 -66.5243 -66.5214 -66.5159 -66.5154 -66.5120 -66.4951
   -66.4941 -56.5033 -56.4755 -56.4741 -54.4996 -54.4723 -54.4694 -40.8777
   -40.8776 -40.8776 -40.8776 -40.8776 -40.8776 -40.8776 -40.8773 -40.8769
   -40.8769 -40.8769 -40.8769 -40.8627 -40.8581 -40.8571 -40.8559 -40.8508
   -40.8508 -40.8508 -40.8507 -40.8501 -40.8501 -40.8387 -40.8387 -40.8387
   -40.8387 -40.8380 -40.8380 -40.8373 -40.8358 -40.8119 -40.8063 -40.7881
   -40.7881 -40.7881 -40.7880 -40.7880 -40.7880 -40.7880 -40.7879 -40.7872
   -40.7872 -40.7872 -40.7872 -40.7666 -40.7654 -40.7643 -40.7627 -40.7543
   -40.7313 -40.7294 -40.7294 -40.7293 -40.7292 -40.7287 -40.7287 -40.7198
   -40.7198 -40.7198 -40.7197 -40.7197 -40.7189 -40.7189 -40.7124 -40.7085
   -40.7085 -40.7084 -40.7084 -40.7078 -40.7078 -40.7002 -40.6954 -40.6849
   -40.6800 -40.6790 -40.6789 -40.6789 -40.6789 -40.6789 -40.6789 -40.6786
   -40.6786 -40.6781 -40.6781 -40.6781 -40.6781 -40.6775 -40.6745 -40.6702
   -40.6702 -40.6701 -40.6700 -40.6694 -40.6694 -40.6657 -40.6642 -40.6583
   -40.6583 -40.6582 -40.6582 -40.6580 -40.6579 -40.6578 -40.6578 -40.6578
   -40.6578 -40.6577 -40.6575 -40.6574 -40.6574 -40.6571 -40.6571 -40.6571
   -40.6571 -40.6560 -40.6549 -40.6492 -40.6492 -40.6491 -40.6491 -40.6484
   -40.6484 -40.6469 -40.6464 -40.6402 -40.6360 -40.6352 -40.6332 -40.6275
   -40.6274 -40.6274 -40.6273 -40.6273 -40.6273 -40.6272 -40.6270 -40.6264
   -40.6264 -40.6264 -40.6264 -40.6131 -40.6088 -40.6059 -40.6013 -40.5926
   -40.5926 -40.5926 -40.5926 -40.5926 -40.5925 -40.5925 -40.5925 -40.5916
   -40.5916 -40.5916 -40.5916 -40.5805 -40.5805 -40.5805 -40.5803 -40.5794
   -40.5794 -40.5735 -40.5707 -40.5700 -40.5663 -40.5612 -40.5612 -40.5611
   -40.5609 -40.5601 -40.5601 -40.5552 -40.5532 -40.5442 -40.5442 -40.5441
   -40.5440 -40.5431 -40.5431 -40.5425 -40.5368 -40.5173 -40.5135 -40.5135
   -40.5135 -40.5133 -40.5124 -40.5124 -40.5117 -40.4900 -40.4874 -19.9171
   -19.8487 -19.8198 -19.7929 -19.7198 -19.7007 -19.6132 -19.6061 -19.4349
   -19.4150 -19.3777 -19.3639 -19.2852 -19.2751 -19.1852 -19.1814 -18.8834
   -18.8025 -18.7751 -18.7412 -18.7153 -18.6946 -18.6784 -18.6770 -18.6761
   -18.6612 -18.6381 -18.6323 -18.6048 -18.6044 -18.5959 -18.5846 -18.5521
   -18.5441 -18.5172 -18.5129 -18.5101 -18.5077 -18.4842 -18.4808 -18.4555
   -18.4538 -18.4352 -18.4315 -18.4207 -18.4138 -18.3654 -18.3638 -18.3617
   -18.3591 -18.3212 -18.3087 -18.2895 -18.2845 -18.2699 -18.2423 -18.2161
   -18.2065 -18.2009 -18.1964 -18.1569 -18.1510 -18.1367 -18.1312 -18.0938
   -18.0909 -18.0737 -18.0645 -18.0612 -18.0580 -18.0550 -18.0526 -18.0463
   -18.0397 -18.0291 -18.0251 -18.0231 -18.0228 -18.0135 -18.0126 -18.0023
   -17.9986 -17.9964 -17.9932 -17.9667 -17.9644 -17.9612 -17.9597 -17.9561
   -17.9557 -17.9515 -17.9492 -17.9395 -17.9387 -17.9044 -17.9007 -17.8930
   -17.8923 -17.8849 -17.8817 -17.8482 -17.8477 -17.8384 -17.8353 -17.8094
   -17.8056 -17.8006 -17.7977 -17.7910 -17.7812 -17.7760 -17.7757 -17.7752
   -17.7744 -17.7733 -17.7693 -17.7605 -17.7589 -17.7398 -17.7391 -17.7157
   -17.7154 -17.6962 -17.6953 -17.6825 -17.6816 -17.6759 -17.6757 -11.9817
   -11.6881 -11.6634 -11.5912 -11.5812 -11.5366 -11.4812 -11.4761 -11.4674
   -11.4498 -11.4465 -11.4446 -11.4369 -11.4248 -11.4097 -11.3926 -11.3459
   -11.3427 -11.3323 -11.3288 -11.3025 -11.2850 -11.2783 -11.2734 -11.2503
   -11.2411 -11.2326 -11.2255 -11.2186 -11.2171 -11.2088 -11.2042 -11.1904
   -11.1634 -11.1601 -11.1551 -11.1485 -11.1419 -11.1277 -11.1246 -11.1234
   -11.1220 -11.1027 -11.1016 -11.0770 -11.0726 -11.0408 -11.0322 -11.0291
   -11.0151 -10.9700 -10.9433 -10.9145 -10.9008 -10.8931 -10.8885 -10.8709
   -10.8631 -10.8484 -10.8404 -10.8164 -10.8107 -10.8078 -10.7926 -10.7903
   -10.7846 -10.7779 -10.7758 -10.7677 -10.7672 -10.7667 -10.7648 -10.7543
   -10.7538 -10.7522 -10.7497 -10.7483 -10.7479 -10.7386 -10.7380 -10.7376
   -10.7348 -10.6996 -10.6996 -10.6994 -10.6990 -10.5277 -10.5053 -10.5029
   -10.5006 -10.4780 -10.4540 -10.4288 -10.3931 -10.3722 -10.3464 -10.2955
   -10.2835 -10.2090 -10.1858 -10.1122 -10.1092 -10.1014 -10.0942 -10.0712
   -10.0637 -10.0578 -10.0514 -10.0187 -10.0081  -9.9904  -9.9871  -9.9852
    -9.9803  -9.9777  -9.9713  -9.9471  -9.9409  -9.8995  -9.8945  -9.8836
    -9.8733  -9.8670  -9.8612  -9.8485  -9.8444  -9.8133  -9.8127  -9.7905
    -9.7859  -9.7698  -9.7587  -9.7495  -9.7345  -9.7325  -9.7188  -9.6990
    -9.6917  -9.6551  -9.6491  -9.6401  -9.6341  -9.6131  -9.6002  -9.5879
    -9.5808  -9.5674  -9.5660  -9.5322  -9.5273  -9.5175  -9.5068  -9.4969
    -9.4926  -9.4860  -9.4765  -9.4467  -9.4457  -9.4366  -9.4325  -9.4276
    -9.4251  -9.4155  -9.4130  -9.4086  -9.4062  -9.3847  -9.3818  -9.3319
    -9.3317  -9.3107  -9.2923  -9.2351  -9.2241  -9.1939  -9.1870  -9.1825
    -9.1785  -9.1533  -9.1437  -9.1324  -9.1292  -9.1147  -9.1059  -9.0828
    -9.0725  -9.0479  -9.0415  -9.0370  -9.0300  -9.0111  -9.0064  -8.9950
    -8.9912  -8.9894  -8.9810  -8.9478  -8.9431  -8.9286  -8.9240  -8.9090
    -8.9076  -8.8920  -8.8904  -8.8743  -8.8661  -8.8471  -8.8455  -8.8439
    -8.8435  -8.8380  -8.8336  -8.8279  -8.8268  -8.8233  -8.8219  -8.8190
    -8.8136  -8.8112  -8.8027  -8.7962  -8.7961  -8.7902  -8.7894  -8.7836
    -8.7679  -8.7499  -8.7483  -8.7432  -8.7421  -8.7402  -8.7398  -8.7193
    -8.7179  -8.6897  -8.6896  -8.6834  -8.6818  -8.6706  -8.6631  -8.6159
    -8.6116  -8.6054  -8.5953  -8.5580  -8.5422  -8.4600  -8.4596  -8.4102
    -8.4037  -8.3706  -8.3558  -8.3067  -8.3046  -8.2646  -8.2593  -8.2234
    -8.2033  -8.1113  -8.1041  -8.0841  -8.0840  -8.0755  -8.0750  -8.0643
[...]
     atom  170 type  1   force =    -0.00001271   -0.00001495    0.00000814
     atom  171 type  2   force =    -0.00000396    0.00000028    0.00000569
     atom  172 type  2   force =    -0.00000044    0.00000055    0.00161518
     atom  173 type  2   force =    -0.00000056    0.00000008   -0.00235918
     atom  174 type  2   force =    -0.00000608    0.00000000   -0.00000396
     atom  175 type  1   force =    -0.00001766    0.00001342    0.00001937
     atom  176 type  1   force =     0.00000019    0.00004251   -0.00058382
     atom  177 type  2   force =     0.00004868   -0.00000906    0.00021212
     atom  178 type  2   force =    -0.00000017    0.00000231   -0.00000893
     atom  179 type  2   force =     0.00000010    0.00000096    0.00000440
     atom  180 type  2   force =    -0.00005372   -0.00001426    0.00002396
     atom  181 type  1   force =     0.00000124   -0.00000009    0.00068788
     atom  182 type  1   force =    -0.00000940   -0.00000749   -0.00000165
     atom  183 type  2   force =    -0.00000207   -0.00000106    0.00000525
     atom  184 type  2   force =    -0.00000040    0.00000060    0.00161511
     atom  185 type  2   force =    -0.00000058    0.00000012   -0.00235908
     atom  186 type  2   force =    -0.00000099   -0.00000295   -0.00000582
     atom  187 type  1   force =    -0.00000627    0.00000373    0.00001535
     atom  188 type  1   force =    -0.00000380    0.00013040   -0.00002157
     atom  189 type  2   force =     0.00003510   -0.00001265   -0.00006402
     atom  190 type  2   force =     0.00000812    0.00000618    0.00003188
     atom  191 type  2   force =    -0.00000592   -0.00000656    0.00000332
     atom  192 type  2   force =    -0.00011005   -0.00002163    0.00016411
     atom  193 type  3   force =    -0.00000024   -0.00002019   -0.00009530
     atom  194 type  4   force =    -0.00000072   -0.00004633   -0.00089322

     Total force =     0.001497     Total SCF correction =     0.001500
     SCF correction compared to forces is large: reduce conv_thr to get better values
     Energy error            =      3.3E-06 Ry
     Gradient error          =      8.9E-04 Ry/Bohr

     bfgs converged in  21 scf cycles and  20 bfgs steps
     (criteria: energy <  1.0E-04 Ry, force <  1.0E-03 Ry/Bohr)

     End of BFGS Geometry Optimization

     Final energy             =  -33980.2823452793 Ry

     File ./outdir/pwscf.bfgs deleted, as requested
Begin final coordinates

ATOMIC_POSITIONS (angstrom)
Mo               0.0000119917        1.8193638619       -9.1672481230    0   0   0
Mo               1.5756136568        0.9097075315       -3.0554901653    0   0   0
S                0.0000188998        1.8193822938       -4.6232556019    0   0   0
S                1.5756321638        0.9096773839       -7.6014065489    0   0   0
S                1.5756326175        0.9096785128      -10.7330757790    0   0   0
S                0.0000189190        1.8193860094       -1.4877129945    0   0   0
Mo               0.0000767773        1.8196773120        3.0559090465
Mo               1.5756718067        0.9114778555        9.1542743114
S                0.0029105281        1.8255140713        7.5815029188
S                1.5756565986        0.9098512425        4.6231929912
S                1.5756559647        0.9095427759        1.4882858973
S               -0.0068204078        1.8021631753       10.7247109226
Mo              -1.5756053507        4.5484193819       -9.1672481230    0   0   0
Mo               0.0000378379        3.6387394919       -3.0554952701    0   0   0
S               -1.5755913433        4.5484363582       -4.6232494962    0   0   0
S                0.0000148214        3.6387329039       -7.6014065489    0   0   0
S                0.0000152751        3.6387340328      -10.7330757790    0   0   0
S               -1.5755906502        4.5484413613       -1.4877305502    0   0   0
Mo              -1.5755933588        4.5487700068        3.0568889006
Mo              -0.0061663409        3.6263020190        9.1699385100
S               -1.5760769601        4.5515366052        7.6014016705
S                0.0006293193        3.6392379807        4.6239853449
S               -0.0003837106        3.6390565733        1.4883425157
S               -1.5735969492        4.5440476753       10.7375731034
Mo              -3.1512226931        7.2774749019       -9.1672481230    0   0   0
Mo              -1.5755910988        6.3678216792       -3.0555115988    0   0   0
S               -3.1512162438        7.2774954350       -4.6232578178    0   0   0
S               -1.5756025210        6.3677884239       -7.6014065489    0   0   0
S               -1.5756020673        6.3677895528      -10.7330757790    0   0   0
S               -3.1512127704        7.2774877076       -1.4877200710    0   0   0
Mo              -3.1513711208        7.2771744589        3.0561898026
Mo              -1.5719888362        6.3665327959        9.1795451764
S               -3.1746691278        7.2622542699        7.6408364514
S               -1.5756783009        6.3683131451        4.6249254136
S               -1.5756497062        6.3675987077        1.4886227101
S               -3.0372874772        7.3589710399       10.8083716288
Mo              -4.7268400355       10.0065304219       -9.1672481230    0   0   0
Mo              -3.1512405618        9.0968403586       -3.0554816746    0   0   0
S               -4.7268341792       10.0065523623       -4.6232463762    0   0   0
S               -3.1512198634        9.0968439439       -7.6014065489    0   0   0
S               -3.1512194097        9.0968450728      -10.7330757790    0   0   0
S               -4.7268370797       10.0065537885       -1.4877176751    0   0   0
Mo              -4.7268126947       10.0062897865        3.0562680091
Mo              -3.1476454932        9.1154503092        9.1648428509
S               -4.7267977682       10.0065128840        7.5888088181
S               -3.1513665993        9.0960889167        4.6239903095
S               -3.1511991105        9.0967324277        1.4885241362
S               -4.7268005418       10.0166892690       10.7277621225
Mo               3.1512517547        1.8193638619       -9.1672481230    0   0   0
Mo               4.7269020221        0.9097289540       -3.0554823951    0   0   0
S                3.1512612351        1.8193882564       -4.6232320683    0   0   0
S                4.7268719268        0.9096773839       -7.6014065489    0   0   0
S                4.7268723805        0.9096785128      -10.7330757790    0   0   0
S                3.1512592485        1.8193890201       -1.4877261251    0   0   0
Mo               3.1512374921        1.8196771245        3.0559087194
Mo               4.7267565048        0.9085715534        9.1424682236
S                3.1484364793        1.8255115674        7.5815034861
S                4.7267568427        0.9100073738        4.6235195628
S                4.7269702444        0.9096229401        1.4884890860
S                3.1581657001        1.8021647788       10.7247108123
Mo               1.5756344123        4.5484193819       -9.1672481230    0   0   0
Mo               3.1512756394        3.6387769522       -3.0554814834    0   0   0
S                1.5756504879        4.5484423799       -4.6232390542    0   0   0
S                3.1512545844        3.6387329039       -7.6014065489    0   0   0
S                3.1512550381        3.6387340328      -10.7330757790    0   0   0
S                1.5756466253        4.5484431864       -1.4877251801    0   0   0
Mo               1.5756606985        4.5486661967        3.0555710411
Mo               3.1575154667        3.6263019284        9.1699366158
S                1.5756740523        4.5689318133        7.6347232467
S                3.1506898624        3.6392369655        4.6239863654
S                3.1517037282        3.6390573076        1.4883422309
S                1.5756763836        4.4369924635       10.7834193063
Mo               0.0000170699        7.2774749019       -9.1672481230    0   0   0
Mo               1.5756764447        6.3678236689       -3.0554877708    0   0   0
S                0.0000381981        7.2774979204       -4.6232454413    0   0   0
S                1.5756372420        6.3677884239       -7.6014065489    0   0   0
S                1.5756376957        6.3677895528      -10.7330757790    0   0   0
S                0.0000328088        7.2774946042       -1.4877307940    0   0   0
Mo               0.0000534478        7.2771960126        3.0561204594
Mo               1.5756760362        6.3687225455        9.2169636528
S                0.0182231861        7.2644321591        7.6300738537
S                1.5756622544        6.3673997489        4.6238252436
S                1.5756642105        6.3679472169        1.4880035653
S               -0.0718481691        7.3383893366       10.7814813547
Mo              -1.5756002725       10.0065304219       -9.1672481230    0   0   0
Mo               0.0000873425        9.0968676911       -3.0554912329    0   0   0
S               -1.5755883952       10.0065504530       -4.6232240150    0   0   0
S                0.0000198996        9.0968439439       -7.6014065489    0   0   0
S                0.0000203533        9.0968450728      -10.7330757790    0   0   0
S               -1.5755859047       10.0065492576       -1.4877362381    0   0   0
Mo              -1.5756277052       10.0063226608        3.0563922059
Mo              -0.0039991737        9.1114488218        9.1597247362
S               -1.5768458832       10.0022969260        7.5781358511
S                0.0001676935        9.0961723558        4.6238618202
S               -0.0001046925        9.0967102118        1.4884567686
S               -1.5727653138       10.0335048890       10.7260753160
Mo               6.3024915177        1.8193638619       -9.1672481230    0   0   0
Mo               7.8781001445        0.9096521684       -3.0554919963    0   0   0
S                6.3025008696        1.8193826232       -4.6232480596    0   0   0
S                7.8781116898        0.9096773839       -7.6014065489    0   0   0
S                7.8781121435        0.9096785128      -10.7330757790    0   0   0
S                6.3025042007        1.8193849068       -1.4877147524    0   0   0
Mo               6.3025293959        1.8197234007        3.0561483677
Mo               7.8781503015        0.9105992242        9.1519164662
S                6.3048652366        1.8261011223        7.5810402458
S                7.8781350749        0.9096744078        4.6232430615
S                7.8781355334        0.9098006646        1.4884147362
S                6.2936341459        1.7976959932       10.7237452616
Mo               4.7268741753        4.5484193819       -9.1672481230    0   0   0
Mo               6.3024679138        3.6387501714       -3.0554895197    0   0   0
S                4.7268748770        4.5484386753       -4.6232519432    0   0   0
S                6.3024943474        3.6387329039       -7.6014065489    0   0   0
S                6.3024948011        3.6387340328      -10.7330757790    0   0   0
S                4.7268770533        4.5484432419       -1.4877137856    0   0   0
Mo               4.7269132886        4.5487693854        3.0568901816
Mo               6.2916067850        3.6247724276        9.1722054585
S                4.7274261518        4.5515360842        7.6013976095
S                6.3030076634        3.6393952995        4.6241833874
S                6.3022485911        3.6390569425        1.4885474945
S                4.7249465015        4.5440507631       10.7375694688
Mo               3.1512568329        7.2774749019       -9.1672481230    0   0   0
Mo               4.7268384135        6.3678043337       -3.0554959052    0   0   0
S                3.1512606125        7.2774972547       -4.6232589675    0   0   0
S                4.7268770050        6.3677884239       -7.6014065489    0   0   0
S                4.7268774587        6.3677895528      -10.7330757790    0   0   0
S                3.1512629079        7.2774963749       -1.4877081835    0   0   0
Mo               3.1512735104        7.2771957385        3.0561222913
Mo               4.7233408832        6.3665348539        9.1795400282
S                3.1331244548        7.2644328710        7.6300686639
S                4.7270032883        6.3683129410        4.6249264887
S                4.7269745376        6.3675981912        1.4886254571
S                3.2232033013        7.3383929796       10.7814759517
Mo               1.5756394905       10.0065304219       -9.1672481230    0   0   0
Mo               3.1512330605        9.0968514907       -3.0554878870    0   0   0
S                1.5756499830       10.0065443759       -4.6232632674    0   0   0
S                3.1512596626        9.0968439439       -7.6014065489    0   0   0
S                3.1512601163        9.0968450728      -10.7330757790    0   0   0
S                1.5756503041       10.0065459699       -1.4877044377    0   0   0
Mo               1.5756664359       10.0062960163        3.0560679369
Mo               3.1553571783        9.1114506363        9.1597182678
S                1.5756772633       10.0074704878        7.5846912930
S                3.1511640448        9.0961729600        4.6238625625
S                3.1514379649        9.0967103083        1.4884606542
S                1.5756821348       10.0142050284       10.7233133135
Mo               9.4537312807        1.8193638619       -9.1672481230    0   0   0
Mo              11.0293863460        0.9096952246       -3.0554894007    0   0   0
S                9.4537395970        1.8193770750       -4.6232328036    0   0   0
S               11.0293514528        0.9096773839       -7.6014065489    0   0   0
S               11.0293519066        0.9096785128      -10.7330757790    0   0   0
S                9.4537393632        1.8193794783       -1.4877366147    0   0   0
Mo               9.4537429172        1.8197244642        3.0561490640
Mo              11.0295453789        0.9085740474        9.1424647339
S                9.4514356715        1.8261040611        7.5810395968
S               11.0295157479        0.9100093057        4.6235199162
S               11.0293014382        0.9096219914        1.4884899818
S                9.4626700171        1.7976952598       10.7237442400
Mo               7.8781139383        4.5484193819       -9.1672481230    0   0   0
Mo               9.4537539161        3.6387607911       -3.0554933032    0   0   0
S                7.8781175448        4.5484378232       -4.6232366318    0   0   0
S                9.4537341104        3.6387329039       -7.6014065489    0   0   0
S                9.4537345641        3.6387340328      -10.7330757790    0   0   0
S                7.8781194018        4.5484411585       -1.4877377057    0   0   0
Mo               7.8781400032        4.5488201937        3.0559004217
Mo               9.4646986177        3.6247732512        9.1722072959
S                7.8781535694        4.5744173310        7.6447811641
S                9.4532717104        3.6393965904        4.6241841355
S                9.4540276640        3.6390560505        1.4885457659
S                7.8781521859        4.3897534707       10.8112122442
Mo               6.3024965959        7.2774749019       -9.1672481230    0   0   0
Mo               7.8781361655        6.3678242352       -3.0555014130    0   0   0
S                6.3024973331        7.2774953556       -4.6232392528    0   0   0
S                7.8781167680        6.3677884239       -7.6014065489    0   0   0
S                7.8781172217        6.3677895528      -10.7330757790    0   0   0
S                6.3024989866        7.2774929744       -1.4877349119    0   0   0
Mo               6.3026979670        7.2771747982        3.0561913797
Mo               7.8781553284        6.3679287414        9.2216311351
S                6.3260215543        7.2622562258        7.6408330790
S                7.8781431526        6.3675690311        4.6243391602
S                7.8781408947        6.3678615816        1.4880911723
S                6.1886462242        7.3589671169       10.8083680622
Mo               4.7268792535       10.0065304219       -9.1672481230    0   0   0
Mo               6.3025111524        9.0968738021       -3.0554915260    0   0   0
S                4.7268840634       10.0065452125       -4.6232380477    0   0   0
S                6.3024994256        9.0968439439       -7.6014065489    0   0   0
S                6.3024998793        9.0968450728      -10.7330757790    0   0   0
S                4.7268847312       10.0065459141       -1.4877283294    0   0   0
Mo               4.7269620459       10.0063230569        3.0563949444
Mo               6.2990040422        9.1154503667        9.1648400827
S                4.7282058452       10.0023006541        7.5781302730
S                6.3027003312        9.0960896113        4.6239919532
S                6.3025297051        9.0967317946        1.4885253513
S                4.7241244624       10.0335068117       10.7260696430
Pd               1.5756811881        6.3557718746       12.1082412770
Pt               7.8781609491        6.3525359005       11.9742808070
End final coordinates



     Writing all to output data dir ./outdir/pwscf.save/ :
     XML data file, charge density, pseudopotentials, collected wavefunctions
 
     init_run     :    174.66s CPU    178.27s WALL (       1 calls)
     electrons    : 166668.39s CPU 168757.39s WALL (      21 calls)
     update_pot   :     33.79s CPU     34.84s WALL (      20 calls)
     forces       :   2709.65s CPU   2757.62s WALL (      21 calls)
     force_dftd3  :     14.00s CPU     14.60s WALL (      21 calls)

     Called by init_run:
     wfcinit      :    151.02s CPU    152.79s WALL (       1 calls)
     potinit      :      1.31s CPU      1.59s WALL (       1 calls)
     hinit0       :     12.70s CPU     12.85s WALL (       1 calls)

     Called by electrons:
     c_bands      : 147002.07s CPU 148383.83s WALL (     277 calls)
     sum_band     :  17553.52s CPU  17917.25s WALL (     277 calls)
     v_of_rho     :    101.52s CPU    113.92s WALL (     283 calls)
     newd         :   1784.12s CPU   2120.72s WALL (     283 calls)
     PAW_pot      :    262.68s CPU    265.37s WALL (     303 calls)
     mix_rho      :     27.67s CPU     31.81s WALL (     277 calls)
     energy_dftd3 :      8.05s CPU      8.08s WALL (      21 calls)

     Called by c_bands:
     init_us_2    :    600.07s CPU    603.32s WALL (    2384 calls)
     init_us_2:cp :    600.04s CPU    603.31s WALL (    2384 calls)
     cegterg      : 144404.95s CPU 145770.16s WALL (    1131 calls)

     Called by *egterg:
     cdiaghg      :   8333.21s CPU   8621.60s WALL (   13136 calls)
     h_psi        :  73567.19s CPU  74029.59s WALL (   13288 calls)
     s_psi        :  17052.94s CPU  17156.59s WALL (   13288 calls)
     g_psi        :    130.83s CPU    131.47s WALL (   12153 calls)

     Called by h_psi:
     h_psi:calbec :  16513.65s CPU  16568.11s WALL (   13288 calls)
     vloc_psi     :  39606.53s CPU  39802.96s WALL (   13288 calls)
     add_vuspsi   :  17145.86s CPU  17253.29s WALL (   13288 calls)

     General routines
     calbec       :  23806.04s CPU  23883.64s WALL (   14812 calls)
     fft          :     83.24s CPU     94.15s WALL (    3903 calls)
     ffts         :      5.05s CPU      5.37s WALL (     560 calls)
     fftw         :  29900.10s CPU  30048.09s WALL ( 7824482 calls)
     interpolate  :      8.77s CPU      9.62s WALL (     283 calls)
 
     Parallel routines
 
     PWSCF        :   1d23h20m CPU   1d23h57m WALL

 
   This run was terminated on:  14:35:51  21Mar2024            

=------------------------------------------------------------------------------=
   JOB DONE.
=------------------------------------------------------------------------------=
