
     Program PWSCF v.7.3 starts on 30Mar2024 at 20:39: 1 

     This program is part of the open-source Quantum ESPRESSO suite
     for quantum simulation of materials; please cite
         "P. Giannozzi et al., J. Phys.:Condens. Matter 21 395502 (2009);
         "P. Giannozzi et al., J. Phys.:Condens. Matter 29 465901 (2017);
         "P. Giannozzi et al., J. Chem. Phys. 152 154105 (2020);
          URL http://www.quantum-espresso.org", 
     in publications or presentations arising from this work. More details at
     http://www.quantum-espresso.org/quote

     Parallel version (MPI & OpenMP), running on      36 processor cores
     Number of MPI processes:                36
     Threads/MPI process:                     1

     MPI processes distributed on     1 nodes
     556637 MiB available memory on the printing compute node when the environment starts
 
     Waiting for input...
     Reading input from standard input
Warning: card &CELL ignored
Warning: card / ignored

     Current dimensions of program PWSCF are:
     Max number of different atomic species (ntypx) = 10
     Max number of k-points (npk) =  40000
     Max angular momentum in pseudopotentials (lmaxx) =  4
     file Mo.pbe-spn-kjpaw_psl.1.0.0.UPF: wavefunction(s)  4S 4D renormalized
     file S.pbe-n-kjpaw_psl.1.0.0.UPF: wavefunction(s)  3S 3P renormalized
     file Pt.pbe-spfn-kjpaw_psl.1.0.0.UPF: wavefunction(s)  5P 4F renormalized
     file Pd.pbe-spn-kjpaw_psl.1.0.0.UPF: wavefunction(s)  4S 5S 4D renormalized
 
     R & G space division:  proc/nbgrp/npool/nimage =      36
     Subspace diagonalization in iterative solution of the eigenvalue problem:
     one sub-group per band group will be used
     scalapack distributed-memory algorithm (size of sub-group:  6*  6 procs)

 
     Parallelization info
     --------------------
     sticks:   dense  smooth     PW     G-vecs:    dense   smooth      PW
     Min         586     335     89               165416    71459    9765
     Max         587     337     90               165425    71461    9778
     Sum       21109   12085   3205              5955087  2572543  351657
 
     Using Slab Decomposition
 


     bravais-lattice index     =            0
     lattice parameter (alat)  =      23.8395  a.u.
     unit-cell volume          =   28182.8498 (a.u.)^3
     number of atoms/cell      =          147
     number of atomic types    =            4
     number of electrons       =      1330.00
     number of Kohn-Sham states=          798
     kinetic-energy cutoff     =      77.0000  Ry
     charge density cutoff     =     539.0000  Ry
     scf convergence threshold =      1.0E-06
     mixing beta               =       0.2000
     number of iterations used =            8  plain     mixing
     energy convergence thresh.=      1.0E-04
     force convergence thresh. =      1.0E-03
     Exchange-correlation= SLA  PW   PBX  PBC
                           (   1   4   3   4   0   0   0)
     nstep                     =         1000


     Effective Screening Medium Method
     =================================
     Boundary Conditions: Vacuum-Slab-Vacuum
     total charge in unit cell        =   0.0000
     grid points for fit at edges     =        4 
 

     celldm(1)=  23.839504  celldm(2)=   0.000000  celldm(3)=   0.000000
     celldm(4)=   0.000000  celldm(5)=   0.000000  celldm(6)=   0.000000

     crystal axes: (cart. coord. in units of alat)
               a(1) = (   1.000000   0.000000   0.000000 )  
               a(2) = (  -0.500001   0.866026   0.000000 )  
               a(3) = (   0.000000   0.000000   2.401941 )  

     reciprocal axes: (cart. coord. in units 2 pi/alat)
               b(1) = (  1.000000  0.577351  0.000000 )  
               b(2) = (  0.000000  1.154700  0.000000 )  
               b(3) = (  0.000000  0.000000  0.416330 )  


     PseudoPot. # 1 for Mo read from file:
     ./pseudo/Mo.pbe-spn-kjpaw_psl.1.0.0.UPF
     MD5 check sum: 317bf72632116215fd98f72de1686f13
     Pseudo is Projector augmented-wave + core cor, Zval = 14.0
     Generated using 'atomic' code by A. Dal Corso  v.7.2
     Shape of augmentation charge: PSQ
     Using radial grid of 1229 points,  6 beta functions with: 
                l(1) =   0
                l(2) =   0
                l(3) =   1
                l(4) =   1
                l(5) =   2
                l(6) =   2
     Q(r) pseudized with 0 coefficients 


     PseudoPot. # 2 for S  read from file:
     ./pseudo/S.pbe-n-kjpaw_psl.1.0.0.UPF
     MD5 check sum: 8b7b5302570d38d5e87fed6a1065abda
     Pseudo is Projector augmented-wave + core cor, Zval =  6.0
     Generated using 'atomic' code by A. Dal Corso  v.7.2
     Shape of augmentation charge: PSQ
     Using radial grid of 1151 points,  6 beta functions with: 
                l(1) =   0
                l(2) =   0
                l(3) =   1
                l(4) =   1
                l(5) =   2
                l(6) =   2
     Q(r) pseudized with 0 coefficients 


     PseudoPot. # 3 for Pt read from file:
     ./pseudo/Pt.pbe-spfn-kjpaw_psl.1.0.0.UPF
     MD5 check sum: 620096ebf4e6ebacc94de60fd67efcb5
     Pseudo is Projector augmented-wave + core cor, Zval = 32.0
     Generated using 'atomic' code by A. Dal Corso  v.7.2
     Shape of augmentation charge: PSQ
     Using radial grid of 1277 points,  8 beta functions with: 
                l(1) =   0
                l(2) =   0
                l(3) =   1
                l(4) =   1
                l(5) =   2
                l(6) =   2
                l(7) =   3
                l(8) =   3
     Q(r) pseudized with 0 coefficients 


     PseudoPot. # 4 for Pd read from file:
     ./pseudo/Pd.pbe-spn-kjpaw_psl.1.0.0.UPF
     MD5 check sum: a60571a671f2502b8a6a4569d20a6edb
     Pseudo is Projector augmented-wave + core cor, Zval = 18.0
     Generated using 'atomic' code by A. Dal Corso  v.7.2
     Shape of augmentation charge: PSQ
     Using radial grid of 1235 points,  6 beta functions with: 
                l(1) =   0
                l(2) =   0
                l(3) =   1
                l(4) =   1
                l(5) =   2
                l(6) =   2
     Q(r) pseudized with 0 coefficients 


     atomic species   valence    mass     pseudopotential
     Mo               14.00    95.95000     Mo( 1.00)
     S                 6.00    32.06000     S ( 1.00)
     Pt               32.00   195.08400     Pt( 1.00)
     Pd               18.00   106.42000     Pd( 1.00)

     No symmetry found



   Cartesian axes

     site n.     atom                  positions (alat units)
         1        Mo     tau(   1) = (   0.1246074   0.2157200   0.4826345  )
         2        Mo     tau(   2) = (   0.1250004   0.0721694  -0.4825273  )
         3        Mo     tau(   3) = (   0.0000068   0.1443549  -0.0000406  )
         4        S      tau(   4) = (   0.0000004   0.0000006  -0.6064556  )
         5        S      tau(   5) = (   0.1249873   0.0722031  -0.1241756  )
         6        S      tau(   6) = (   0.0000973   0.1450650   0.3573519  )
         7        S      tau(   7) = (   0.0000004   0.0000005  -0.3584711  )
         8        S      tau(   8) = (   0.1249847   0.0720950   0.1240801  )
         9        S      tau(   9) = (  -0.0005301   0.1434694   0.6062599  )
        10        Mo     tau(  10) = (  -0.0009156   0.4330317   0.4832560  )
        11        Mo     tau(  11) = (   0.0000001   0.2886759  -0.4825273  )
        12        Mo     tau(  12) = (  -0.1249829   0.3608507   0.0000027  )
        13        S      tau(  13) = (  -0.1249999   0.2165071  -0.6064556  )
        14        S      tau(  14) = (   0.0000128   0.2886930  -0.1241006  )
        15        S      tau(  15) = (  -0.1248837   0.3612581   0.3580377  )
        16        S      tau(  16) = (  -0.1249998   0.2165070  -0.3584711  )
        17        S      tau(  17) = (   0.0000764   0.2887257   0.1242499  )
        18        S      tau(  18) = (  -0.1253220   0.3603286   0.6073134  )
        19        Mo     tau(  19) = (  -0.1249684   0.6493789   0.4818062  )
        20        Mo     tau(  20) = (  -0.1250002   0.5051824  -0.4825273  )
        21        Mo     tau(  21) = (  -0.2500040   0.5773207  -0.0001409  )
        22        S      tau(  22) = (  -0.2500002   0.4330136  -0.6064556  )
        23        S      tau(  23) = (  -0.1249903   0.5051158  -0.1241917  )
        24        S      tau(  24) = (  -0.2499555   0.5769406   0.3578597  )
        25        S      tau(  25) = (  -0.2500001   0.4330135  -0.3584711  )
        26        S      tau(  26) = (  -0.1249930   0.5052458   0.1241101  )
        27        S      tau(  27) = (  -0.2497899   0.5778453   0.6063597  )
        28        Mo     tau(  28) = (   0.2497834  -0.0005160   0.4806710  )
        29        Mo     tau(  29) = (  -0.2500004   0.7216889  -0.4825273  )
        30        Mo     tau(  30) = (  -0.3750188   0.7938286  -0.0001549  )
        31        S      tau(  31) = (  -0.3750004   0.6495201  -0.6064556  )
        32        S      tau(  32) = (  -0.2500074   0.7216649  -0.1242513  )
        33        S      tau(  33) = (  -0.3752234   0.7935039   0.3566636  )
        34        S      tau(  34) = (  -0.3750004   0.6495200  -0.3584711  )
        35        S      tau(  35) = (  -0.2499996   0.7216607   0.1240200  )
        36        S      tau(  36) = (  -0.3746819   0.7948899   0.6057341  )
        37        Mo     tau(  37) = (   0.3750034   0.2123618   0.4807886  )
        38        Mo     tau(  38) = (   0.3750004   0.0721694  -0.4825273  )
        39        Mo     tau(  39) = (   0.2499981   0.1443415  -0.0000413  )
        40        S      tau(  40) = (   0.2500004   0.0000006  -0.6064556  )
        41        S      tau(  41) = (   0.3750280   0.0722231  -0.1241519  )
        42        S      tau(  42) = (   0.2489233   0.1437373   0.3564531  )
        43        S      tau(  43) = (   0.2500004   0.0000005  -0.3584711  )
        44        S      tau(  44) = (   0.3749877   0.0720947   0.1241383  )
        45        S      tau(  45) = (   0.2497122   0.1423104   0.6055821  )
        46        Mo     tau(  46) = (   0.2490774   0.4329018   0.4862977  )
        47        Mo     tau(  47) = (   0.2500001   0.2886759  -0.4825273  )
        48        Mo     tau(  48) = (   0.1250319   0.3608540  -0.0000126  )
        49        S      tau(  49) = (   0.1250001   0.2165071  -0.6064556  )
        50        S      tau(  50) = (   0.2500259   0.2886851  -0.1240979  )
        51        S      tau(  51) = (   0.1263042   0.3620125   0.3614359  )
        52        S      tau(  52) = (   0.1250002   0.2165070  -0.3584711  )
        53        S      tau(  53) = (   0.2500168   0.2886898   0.1242904  )
        54        S      tau(  54) = (   0.1173694   0.3566575   0.6132890  )
        55        Mo     tau(  55) = (   0.1240062   0.6506471   0.4823696  )
        56        Mo     tau(  56) = (   0.1249998   0.5051824  -0.4825273  )
        57        Mo     tau(  57) = (   0.0000191   0.5773226  -0.0001255  )
        58        S      tau(  58) = (  -0.0000002   0.4330136  -0.6064556  )
        59        S      tau(  59) = (   0.1250359   0.5051398  -0.1241676  )
        60        S      tau(  60) = (   0.0000697   0.5768181   0.3580317  )
        61        S      tau(  61) = (  -0.0000001   0.4330135  -0.3584711  )
        62        S      tau(  62) = (   0.1250059   0.5052001   0.1242069  )
        63        S      tau(  63) = (  -0.0003304   0.5778980   0.6066479  )
        64        Mo     tau(  64) = (   0.5003257  -0.0004925   0.4803774  )
        65        Mo     tau(  65) = (  -0.0000004   0.7216889  -0.4825273  )
        66        Mo     tau(  66) = (  -0.1249927   0.7938427  -0.0001655  )
        67        S      tau(  67) = (  -0.1250004   0.6495201  -0.6064556  )
        68        S      tau(  68) = (   0.0000418   0.7216760  -0.1242215  )
        69        S      tau(  69) = (  -0.1250504   0.7929751   0.3566577  )
        70        S      tau(  70) = (  -0.1250004   0.6495200  -0.3584711  )
        71        S      tau(  71) = (  -0.0000163   0.7216479   0.1240623  )
        72        S      tau(  72) = (  -0.1248984   0.7939509   0.6051552  )
        73        Mo     tau(  73) = (   0.6254010   0.2160480   0.4824065  )
        74        Mo     tau(  74) = (   0.6250004   0.0721694  -0.4825273  )
        75        Mo     tau(  75) = (   0.5000167   0.1443371   0.0000092  )
        76        S      tau(  76) = (   0.5000004   0.0000006  -0.6064556  )
        77        S      tau(  77) = (   0.6250207   0.0721868  -0.1241145  )
        78        S      tau(  78) = (   0.5010641   0.1438734   0.3562763  )
        79        S      tau(  79) = (   0.5000004   0.0000005  -0.3584711  )
        80        S      tau(  80) = (   0.6250414   0.0720927   0.1241409  )
        81        S      tau(  81) = (   0.5005473   0.1420509   0.6053992  )
        82        Mo     tau(  82) = (   0.5016373   0.4329758   0.4857863  )
        83        Mo     tau(  83) = (   0.5000001   0.2886759  -0.4825273  )
        84        Mo     tau(  84) = (   0.3750027   0.3608467   0.0000234  )
        85        S      tau(  85) = (   0.3750001   0.2165071  -0.6064556  )
        86        S      tau(  86) = (   0.5000046   0.2886693  -0.1240592  )
        87        S      tau(  87) = (   0.3745963   0.3620572   0.3631324  )
        88        S      tau(  88) = (   0.3750002   0.2165070  -0.3584711  )
        89        S      tau(  89) = (   0.4999634   0.2887051   0.1243131  )
        90        S      tau(  90) = (   0.3781068   0.3490112   0.6089630  )
        91        Mo     tau(  91) = (   0.3753335   0.6518408   0.4830502  )
        92        Mo     tau(  92) = (   0.3749998   0.5051824  -0.4825273  )
        93        Mo     tau(  93) = (   0.2500203   0.5772987  -0.0000555  )
        94        S      tau(  94) = (   0.2499998   0.4330136  -0.6064556  )
        95        S      tau(  95) = (   0.3750008   0.5051221  -0.1241383  )
        96        S      tau(  96) = (   0.2501878   0.5758780   0.3616377  )
        97        S      tau(  97) = (   0.2499999   0.4330135  -0.3584711  )
        98        S      tau(  98) = (   0.3750015   0.5051839   0.1242620  )
        99        S      tau(  99) = (   0.2495016   0.5878580   0.6113208  )
       100        Mo     tau( 100) = (   0.7500199   0.0003818   0.4811571  )
       101        Mo     tau( 101) = (   0.2499996   0.7216889  -0.4825273  )
       102        Mo     tau( 102) = (   0.1250316   0.7938162  -0.0000875  )
       103        S      tau( 103) = (   0.1249996   0.6495201  -0.6064556  )
       104        S      tau( 104) = (   0.2500359   0.7216507  -0.1241461  )
       105        S      tau( 105) = (   0.1254554   0.7934228   0.3566219  )
       106        S      tau( 106) = (   0.1249996   0.6495200  -0.3584711  )
       107        S      tau( 107) = (   0.2500086   0.7215741   0.1241838  )
       108        S      tau( 108) = (   0.1244907   0.7952297   0.6057917  )
       109        Mo     tau( 109) = (  -0.1249741   0.2166510   0.4819241  )
       110        Mo     tau( 110) = (   0.8750004   0.0721694  -0.4825273  )
       111        Mo     tau( 111) = (   0.7500133   0.1443436  -0.0000073  )
       112        S      tau( 112) = (   0.7500004   0.0000006  -0.6064556  )
       113        S      tau( 113) = (   0.8749956   0.0721731  -0.1241058  )
       114        S      tau( 114) = (   0.7500203   0.1449522   0.3574598  )
       115        S      tau( 115) = (   0.7500004   0.0000005  -0.3584711  )
       116        S      tau( 116) = (   0.8750238   0.0721604   0.1241841  )
       117        S      tau( 117) = (   0.7504201   0.1437382   0.6062629  )
       118        Mo     tau( 118) = (  -0.2493495   0.4328575   0.4828262  )
       119        Mo     tau( 119) = (   0.7500001   0.2886759  -0.4825273  )
       120        Mo     tau( 120) = (   0.6249856   0.3608477   0.0000279  )
       121        S      tau( 121) = (   0.6250001   0.2165071  -0.6064556  )
       122        S      tau( 122) = (   0.7499958   0.2886820  -0.1240679  )
       123        S      tau( 123) = (   0.6241512   0.3616755   0.3603414  )
       124        S      tau( 124) = (   0.6250002   0.2165070  -0.3584711  )
       125        S      tau( 125) = (   0.7499862   0.2887159   0.1242658  )
       126        S      tau( 126) = (   0.6305969   0.3581080   0.6112211  )
       127        Mo     tau( 127) = (  -0.3742668   0.6505223   0.4820597  )
       128        Mo     tau( 128) = (   0.6249998   0.5051824  -0.4825273  )
       129        Mo     tau( 129) = (   0.4999851   0.5773046  -0.0000631  )
       130        S      tau( 130) = (   0.4999998   0.4330136  -0.6064556  )
       131        S      tau( 131) = (   0.6249723   0.5051139  -0.1241565  )
       132        S      tau( 132) = (   0.4998783   0.5762956   0.3606843  )
       133        S      tau( 133) = (   0.4999999   0.4330135  -0.3584711  )
       134        S      tau( 134) = (   0.6250095   0.5052263   0.1241915  )
       135        S      tau( 135) = (   0.5006407   0.5846211   0.6091832  )
       136        Mo     tau( 136) = (   0.0000410   0.0004185   0.4809769  )
       137        Mo     tau( 137) = (   0.4999996   0.7216889  -0.4825273  )
       138        Mo     tau( 138) = (   0.3750036   0.7938273  -0.0000272  )
       139        S      tau( 139) = (   0.3749996   0.6495201  -0.6064556  )
       140        S      tau( 140) = (   0.4999499   0.7216482  -0.1241729  )
       141        S      tau( 141) = (   0.3750006   0.7941054   0.3569117  )
       142        S      tau( 142) = (   0.3749996   0.6495200  -0.3584711  )
       143        S      tau( 143) = (   0.5000314   0.7216102   0.1241515  )
       144        S      tau( 144) = (   0.3752329   0.7966920   0.6062052  )
       145        Pt     tau( 145) = (   0.2580795   0.4348292   0.7095693  )
       146        Pd     tau( 146) = (   0.4899479   0.4358638   0.7204770  )
       147        Pt     tau( 147) = (   0.1246104   0.2156901   0.7242780  )

     --------------------------------------------
     DFT-D3 Dispersion Correction (3-body terms):
     --------------------------------------------
       Reference C6 values for interpolation: 

         atom   Coordination number   C6
         S          0.000           268.01
         S          0.995           261.99
         S          1.990           251.62
         Mo         0.000          1691.79
         Mo         1.942          1004.01
         Mo        11.056           674.22
         Pd         0.000          1217.01
         Pd         1.863           573.90
         Pd         5.710           531.75
         Pt         0.000           782.29
         Pt         1.919           692.72
         Pt         6.667           673.75

       Values used:

         atom   Coordination number  R0_AB[au]  C6      C8
         Mo        10.826            3.547    674.22  77634.20
         Mo        10.189            3.547    674.22  77634.20
         Mo        10.200            3.547    674.22  77634.20
         S          3.753            3.128    251.62  12327.25
         S          3.858            3.128    251.62  12327.25
         S          3.856            3.128    251.62  12327.25
         S          3.858            3.128    251.62  12327.25
         S          3.864            3.128    251.62  12327.25
         S          4.781            3.128    251.62  12327.25
         Mo        10.217            3.547    674.21  77634.20
         Mo        10.189            3.547    674.22  77634.20
         Mo        10.201            3.547    674.22  77634.20
         S          3.753            3.128    251.62  12327.25
         S          3.859            3.128    251.62  12327.25
         S          3.854            3.128    251.62  12327.25
         S          3.858            3.128    251.62  12327.25
         S          3.855            3.128    251.62  12327.25
         S          3.829            3.128    251.62  12327.25
         Mo        10.231            3.547    674.22  77634.20
         Mo        10.189            3.547    674.22  77634.20
         Mo        10.201            3.547    674.22  77634.20
         S          3.753            3.128    251.62  12327.25
         S          3.858            3.128    251.62  12327.25
         S          3.865            3.128    251.62  12327.25
         S          3.859            3.128    251.62  12327.25
         S          3.860            3.128    251.62  12327.25
         S          3.761            3.128    251.62  12327.25
         Mo        10.269            3.547    674.22  77634.20
         Mo        10.189            3.547    674.22  77634.20
         Mo        10.200            3.547    674.22  77634.20
         S          3.753            3.128    251.62  12327.25
         S          3.857            3.128    251.62  12327.25
         S          3.856            3.128    251.62  12327.25
         S          3.859            3.128    251.62  12327.25
         S          3.864            3.128    251.62  12327.25
         S          3.816            3.128    251.62  12327.25
         Mo        10.168            3.547    674.22  77634.20
         Mo        10.189            3.547    674.22  77634.20
         Mo        10.200            3.547    674.22  77634.20
         S          3.753            3.128    251.62  12327.25
         S          3.858            3.128    251.62  12327.25
         S          3.843            3.128    251.62  12327.25
         S          3.859            3.128    251.62  12327.25
         S          3.863            3.128    251.62  12327.25
         S          4.776            3.128    251.62  12327.25
         Mo        10.858            3.547    674.22  77634.20
         Mo        10.189            3.547    674.22  77634.20
         Mo        10.202            3.547    674.22  77634.20
         S          3.753            3.128    251.62  12327.25
         S          3.859            3.128    251.62  12327.25
         S          3.852            3.128    251.62  12327.25
         S          3.858            3.128    251.62  12327.25
         S          3.851            3.128    251.62  12327.25
         S          5.619            3.128    251.62  12327.25
         Mo        10.195            3.547    674.22  77634.20
         Mo        10.189            3.547    674.22  77634.20
         Mo        10.201            3.547    674.22  77634.20
         S          3.753            3.128    251.62  12327.25
         S          3.859            3.128    251.62  12327.25
         S          3.864            3.128    251.62  12327.25
         S          3.859            3.128    251.62  12327.25
         S          3.853            3.128    251.62  12327.25
         S          3.759            3.128    251.62  12327.25
         Mo        10.259            3.547    674.21  77634.20
         Mo        10.189            3.547    674.22  77634.20
         Mo        10.200            3.547    674.22  77634.20
         S          3.753            3.128    251.62  12327.25
         S          3.858            3.128    251.62  12327.25
         S          3.858            3.128    251.62  12327.25
         S          3.859            3.128    251.62  12327.25
         S          3.863            3.128    251.62  12327.25
         S          3.784            3.128    251.62  12327.25
         Mo        10.209            3.547    674.22  77634.20
         Mo        10.189            3.547    674.22  77634.20
         Mo        10.200            3.547    674.22  77634.20
         S          3.753            3.128    251.62  12327.25
         S          3.859            3.128    251.62  12327.25
         S          3.839            3.128    251.62  12327.25
         S          3.859            3.128    251.62  12327.25
         S          3.863            3.128    251.62  12327.25
         S          3.836            3.128    251.62  12327.25
         Mo        10.708            3.547    674.22  77634.20
         Mo        10.189            3.547    674.22  77634.20
         Mo        10.202            3.547    674.22  77634.20
         S          3.753            3.128    251.62  12327.25
         S          3.859            3.128    251.62  12327.25
         S          3.874            3.128    251.62  12327.25
         S          3.858            3.128    251.62  12327.25
         S          3.851            3.128    251.62  12327.25
         S          5.650            3.128    251.62  12327.25
         Mo        10.151            3.547    674.22  77634.20
         Mo        10.189            3.547    674.22  77634.20
         Mo        10.203            3.547    674.22  77634.20
         S          3.753            3.128    251.62  12327.25
         S          3.859            3.128    251.62  12327.25
         S          3.861            3.128    251.62  12327.25
         S          3.859            3.128    251.62  12327.25
         S          3.849            3.128    251.62  12327.25
         S          4.667            3.128    251.62  12327.25
         Mo        10.241            3.547    674.22  77634.20
         Mo        10.189            3.547    674.22  77634.20
         Mo        10.200            3.547    674.22  77634.20
         S          3.753            3.128    251.62  12327.25
         S          3.858            3.128    251.62  12327.25
         S          3.852            3.128    251.62  12327.25
         S          3.859            3.128    251.62  12327.25
         S          3.858            3.128    251.62  12327.25
         S          3.820            3.128    251.62  12327.25
         Mo        10.241            3.547    674.22  77634.20
         Mo        10.189            3.547    674.22  77634.20
         Mo        10.200            3.547    674.22  77634.20
         S          3.753            3.128    251.62  12327.25
         S          3.858            3.128    251.62  12327.25
         S          3.857            3.128    251.62  12327.25
         S          3.858            3.128    251.62  12327.25
         S          3.861            3.128    251.62  12327.25
         S          3.804            3.128    251.62  12327.25
         Mo        10.222            3.547    674.22  77634.20
         Mo        10.189            3.547    674.22  77634.20
         Mo        10.201            3.547    674.22  77634.20
         S          3.753            3.128    251.62  12327.25
         S          3.859            3.128    251.62  12327.25
         S          3.849            3.128    251.62  12327.25
         S          3.858            3.128    251.62  12327.25
         S          3.855            3.128    251.62  12327.25
         S          4.617            3.128    251.62  12327.25
         Mo        10.207            3.547    674.21  77634.20
         Mo        10.189            3.547    674.22  77634.20
         Mo        10.202            3.547    674.22  77634.20
         S          3.753            3.128    251.62  12327.25
         S          3.858            3.128    251.62  12327.25
         S          3.862            3.128    251.62  12327.25
         S          3.858            3.128    251.62  12327.25
         S          3.855            3.128    251.62  12327.25
         S          4.662            3.128    251.62  12327.25
         Mo        10.258            3.547    674.21  77634.20
         Mo        10.189            3.547    674.22  77634.20
         Mo        10.201            3.547    674.22  77634.20
         S          3.753            3.128    251.62  12327.25
         S          3.858            3.128    251.62  12327.25
         S          3.844            3.128    251.62  12327.25
         S          3.859            3.128    251.62  12327.25
         S          3.859            3.128    251.62  12327.25
         S          3.837            3.128    251.62  12327.25
         Pt         4.675            3.168    673.75  70061.90
         Pd         4.117            3.168    531.75  48720.87
         Pt         3.887            3.168    692.72  72035.25

         Molecular C6 ( Ry / a.u.^6 ) =   8079625.19


     number of k points=     4  Gaussian smearing, width (Ry)=  0.0100
                       cart. coord. in units 2pi/alat
        k(    1) = (   0.0000000   0.0000000   0.0000000), wk =   0.5000000
        k(    2) = (   0.0000000  -0.5773499   0.0000000), wk =   0.5000000
        k(    3) = (  -0.5000000  -0.2886755   0.0000000), wk =   0.5000000
        k(    4) = (  -0.5000000  -0.8660254   0.0000000), wk =   0.5000000

     Dense  grid:  5955087 G-vectors     FFT dimensions: ( 180, 180, 432)

     Smooth grid:  2572543 G-vectors     FFT dimensions: ( 135, 135, 320)

     Estimated max dynamical RAM per process >       3.09 GB

     Estimated total dynamical RAM >     111.14 GB

     Initial potential from superposition of free atoms

     starting charge    1329.9539, renormalised to    1330.0000

     negative rho (up, down):  8.836E-04 0.000E+00
     Starting wfcs are  908 randomized atomic wfcs
     Checking if some PAW data can be deallocated... 

     total cpu time spent up to now is      100.0 secs

     Self-consistent Calculation

     iteration #  1     ecut=    77.00 Ry     beta= 0.20
     Davidson diagonalization with overlap
     ethr =  1.00E-02,  avg # of iterations =  2.0

     Threshold (ethr) on eigenvalues was too large:
     Diagonalizing with lowered threshold

     Davidson diagonalization with overlap
     ethr =  1.85E-04,  avg # of iterations = 16.5

     negative rho (up, down):  2.840E-04 0.000E+00

     total cpu time spent up to now is     1135.4 secs

     total energy              =  -27706.33966998 Ry
     estimated scf accuracy    <       4.97201665 Ry

     iteration #  2     ecut=    77.00 Ry     beta= 0.20
     Davidson diagonalization with overlap
     ethr =  3.74E-04,  avg # of iterations =  1.5

     negative rho (up, down):  4.697E-05 0.000E+00

     total cpu time spent up to now is     1348.1 secs

     total energy              =  -27705.39124012 Ry
     estimated scf accuracy    <       2.55204512 Ry

     iteration #  3     ecut=    77.00 Ry     beta= 0.20
     Davidson diagonalization with overlap
     ethr =  1.92E-04,  avg # of iterations = 15.5

     negative rho (up, down):  3.892E-05 0.000E+00

     total cpu time spent up to now is     1645.4 secs

     total energy              =  -27705.75373723 Ry
     estimated scf accuracy    <       0.99546743 Ry

     iteration #  4     ecut=    77.00 Ry     beta= 0.20
     Davidson diagonalization with overlap
     ethr =  7.48E-05,  avg # of iterations = 12.2

     negative rho (up, down):  3.550E-05 0.000E+00

     total cpu time spent up to now is     2060.4 secs

     total energy              =  -27706.15083375 Ry
     estimated scf accuracy    <       0.31762612 Ry

     iteration #  5     ecut=    77.00 Ry     beta= 0.20
     Davidson diagonalization with overlap
     c_bands:  2 eigenvalues not converged
     c_bands:  5 eigenvalues not converged
     ethr =  2.39E-05,  avg # of iterations = 17.8

     negative rho (up, down):  6.000E-05 0.000E+00

     total cpu time spent up to now is     2556.6 secs

     total energy              =  -27706.36060712 Ry
     estimated scf accuracy    <       0.14417456 Ry

     iteration #  6     ecut=    77.00 Ry     beta= 0.20
     Davidson diagonalization with overlap
     c_bands:  2 eigenvalues not converged
     c_bands:  1 eigenvalues not converged
     c_bands:  4 eigenvalues not converged
     c_bands:  1 eigenvalues not converged
     ethr =  1.08E-05,  avg # of iterations = 35.0

     negative rho (up, down):  1.288E-04 0.000E+00

     total cpu time spent up to now is     3109.8 secs

     total energy              =  -27706.39943759 Ry
     estimated scf accuracy    <       0.10598809 Ry

     iteration #  7     ecut=    77.00 Ry     beta= 0.20
     Davidson diagonalization with overlap
     ethr =  7.97E-06,  avg # of iterations = 11.8

     negative rho (up, down):  6.681E-04 0.000E+00

     total cpu time spent up to now is     3403.4 secs

     total energy              =  -27706.39771518 Ry
     estimated scf accuracy    <       0.05495800 Ry

     iteration #  8     ecut=    77.00 Ry     beta= 0.20
     Davidson diagonalization with overlap
     c_bands:  3 eigenvalues not converged
     c_bands:  2 eigenvalues not converged
     c_bands:  5 eigenvalues not converged
     ethr =  4.13E-06,  avg # of iterations = 24.0

     negative rho (up, down):  6.733E-04 0.000E+00

     total cpu time spent up to now is     3968.5 secs

     total energy              =  -27706.42044727 Ry
     estimated scf accuracy    <       0.05036413 Ry

     iteration #  9     ecut=    77.00 Ry     beta= 0.20
     Davidson diagonalization with overlap
     ethr =  3.79E-06,  avg # of iterations =  2.0

     negative rho (up, down):  5.656E-04 0.000E+00

     total cpu time spent up to now is     4190.9 secs

     total energy              =  -27706.41587953 Ry
     estimated scf accuracy    <       0.01559116 Ry

     iteration # 10     ecut=    77.00 Ry     beta= 0.20
     Davidson diagonalization with overlap
     c_bands:  2 eigenvalues not converged
     ethr =  1.17E-06,  avg # of iterations = 28.8

     negative rho (up, down):  5.868E-04 0.000E+00

     total cpu time spent up to now is     4836.7 secs

     total energy              =  -27706.42862846 Ry
     estimated scf accuracy    <       0.00282809 Ry

     iteration # 11     ecut=    77.00 Ry     beta= 0.20
     Davidson diagonalization with overlap
     c_bands:  2 eigenvalues not converged
     c_bands:  3 eigenvalues not converged
     ethr =  2.13E-07,  avg # of iterations = 25.2

     negative rho (up, down):  6.476E-04 0.000E+00

     total cpu time spent up to now is     5581.5 secs

     total energy              =  -27706.43147548 Ry
     estimated scf accuracy    <       0.00426396 Ry

     iteration # 12     ecut=    77.00 Ry     beta= 0.20
     Davidson diagonalization with overlap
     c_bands:  1 eigenvalues not converged
     c_bands:  1 eigenvalues not converged
     ethr =  2.13E-07,  avg # of iterations = 11.0

     negative rho (up, down):  8.129E-04 0.000E+00

     total cpu time spent up to now is     5822.5 secs

     total energy              =  -27706.43056306 Ry
     estimated scf accuracy    <       0.00180980 Ry

     iteration # 13     ecut=    77.00 Ry     beta= 0.20
     Davidson diagonalization with overlap
     ethr =  1.36E-07,  avg # of iterations = 11.8

     negative rho (up, down):  8.014E-04 0.000E+00

     total cpu time spent up to now is     6220.2 secs

     total energy              =  -27706.43161911 Ry
     estimated scf accuracy    <       0.00025628 Ry

     iteration # 14     ecut=    77.00 Ry     beta= 0.20
     Davidson diagonalization with overlap
     ethr =  1.93E-08,  avg # of iterations = 17.5

     negative rho (up, down):  7.955E-04 0.000E+00

     total cpu time spent up to now is     6793.0 secs

     total energy              =  -27706.43188768 Ry
     estimated scf accuracy    <       0.00018296 Ry

     iteration # 15     ecut=    77.00 Ry     beta= 0.20
     Davidson diagonalization with overlap
     ethr =  1.38E-08,  avg # of iterations =  8.2

     negative rho (up, down):  8.384E-04 0.000E+00

     total cpu time spent up to now is     7035.4 secs

     total energy              =  -27706.43187983 Ry
     estimated scf accuracy    <       0.00009237 Ry

     iteration # 16     ecut=    77.00 Ry     beta= 0.20
     Davidson diagonalization with overlap
     c_bands:  4 eigenvalues not converged
     ethr =  6.95E-09,  avg # of iterations = 17.0

     negative rho (up, down):  8.775E-04 0.000E+00

     total cpu time spent up to now is     7566.0 secs

     total energy              =  -27706.43190785 Ry
     estimated scf accuracy    <       0.00023706 Ry

     iteration # 17     ecut=    77.00 Ry     beta= 0.20
     Davidson diagonalization with overlap
     ethr =  6.95E-09,  avg # of iterations =  6.2

     negative rho (up, down):  8.945E-04 0.000E+00

     total cpu time spent up to now is     7804.7 secs

     total energy              =  -27706.43187190 Ry
     estimated scf accuracy    <       0.00006165 Ry

     iteration # 18     ecut=    77.00 Ry     beta= 0.20
     Davidson diagonalization with overlap
     ethr =  4.64E-09,  avg # of iterations = 10.8

     negative rho (up, down):  9.002E-04 0.000E+00

     total cpu time spent up to now is     8282.4 secs

     total energy              =  -27706.43193955 Ry
     estimated scf accuracy    <       0.00004311 Ry

     iteration # 19     ecut=    77.00 Ry     beta= 0.20
     Davidson diagonalization with overlap
     ethr =  3.24E-09,  avg # of iterations =  1.8

     negative rho (up, down):  8.975E-04 0.000E+00

     total cpu time spent up to now is     8501.8 secs

     total energy              =  -27706.43192718 Ry
     estimated scf accuracy    <       0.00003026 Ry

     iteration # 20     ecut=    77.00 Ry     beta= 0.20
     Davidson diagonalization with overlap
     ethr =  2.28E-09,  avg # of iterations =  2.0

     negative rho (up, down):  8.998E-04 0.000E+00

     total cpu time spent up to now is     8728.3 secs

     total energy              =  -27706.43192561 Ry
     estimated scf accuracy    <       0.00000779 Ry

     iteration # 21     ecut=    77.00 Ry     beta= 0.20
     Davidson diagonalization with overlap
     ethr =  5.85E-10,  avg # of iterations = 16.8

     negative rho (up, down):  9.065E-04 0.000E+00

     total cpu time spent up to now is     9325.0 secs

     End of self-consistent calculation

          k = 0.0000 0.0000 0.0000 (321495 PWs)   bands (ev):

  -103.0024-102.5154 -88.7545 -71.3332 -71.3245 -71.3140 -71.3092 -71.2978
   -71.2793 -71.2675 -70.8566 -70.8557 -70.8231 -70.8117 -70.7992 -70.7825
   -70.7714 -66.7327 -66.7116 -66.7116 -66.7116 -66.7116 -66.7116 -66.7116
   -66.6905 -66.6905 -66.6904 -66.6904 -66.6904 -66.6904 -66.6904 -66.6904
   -66.6904 -66.6667 -66.6460 -66.6460 -66.6458 -66.6455 -66.6454 -66.6452
   -66.6252 -66.6249 -66.6248 -66.6246 -66.6246 -66.6243 -66.6242 -66.6240
   -66.6237 -66.5938 -66.5834 -66.5740 -66.5703 -66.5607 -66.5604 -66.5551
   -66.5483 -66.5436 -66.5398 -66.5362 -66.5326 -66.5245 -66.5205 -66.5069
   -66.4893 -57.2641 -57.1989 -57.1781 -56.8300 -56.7405 -56.6590 -54.6434
   -54.5297 -54.4722 -41.0590 -41.0590 -41.0590 -40.9920 -40.9920 -40.9918
   -40.9842 -40.9842 -40.9842 -40.9842 -40.9842 -40.9842 -40.9174 -40.9173
   -40.9172 -40.9171 -40.9170 -40.9169 -40.9107 -40.9061 -40.9029 -40.8929
   -40.8587 -40.8587 -40.8587 -40.8587 -40.8587 -40.8587 -40.8515 -40.8515
   -40.8515 -40.8515 -40.8515 -40.8515 -40.8402 -40.8347 -40.8274 -40.8272
   -40.8249 -40.8238 -40.8238 -40.8238 -40.8238 -40.8238 -40.8238 -40.8128
   -40.8098 -40.8098 -40.8098 -40.8098 -40.8098 -40.8098 -40.8097 -40.8097
   -40.8097 -40.8096 -40.7920 -40.7919 -40.7918 -40.7917 -40.7916 -40.7915
   -40.7864 -40.7863 -40.7862 -40.7859 -40.7858 -40.7856 -40.7669 -40.7572
   -40.7571 -40.7571 -40.7569 -40.7568 -40.7567 -40.7460 -40.7460 -40.7460
   -40.7450 -40.7449 -40.7447 -40.7445 -40.7444 -40.7442 -40.7442 -40.7440
   -40.7437 -40.7383 -40.7333 -40.7275 -40.7228 -40.7160 -40.7140 -40.7118
   -40.7114 -40.7078 -40.6992 -40.6992 -40.6992 -40.6992 -40.6992 -40.6992
   -40.6974 -40.6955 -40.6913 -40.6880 -40.6861 -40.6827 -40.6808 -40.6793
   -40.6792 -40.6791 -40.6782 -40.6745 -40.6715 -40.6697 -40.6677 -40.6663
   -40.6621 -40.6607 -40.6559 -40.6519 -40.6519 -40.6447 -40.6421 -40.6327
   -40.6327 -40.6325 -40.6323 -40.6322 -40.6321 -40.5959 -40.5886 -40.5852
   -40.5852 -40.5832 -40.5447 -40.5416 -40.5374 -40.5326 -40.5268 -40.5244
   -40.4838 -40.4704 -20.2756 -20.1485 -19.9868 -19.6484 -19.6157 -19.3708
   -19.3037 -19.3010 -19.2986 -19.2910 -19.2905 -19.2836 -19.2367 -19.2187
   -19.1976 -19.1474 -19.1456 -19.1354 -19.1177 -19.1080 -19.0860 -18.9361
   -18.8344 -18.7948 -18.7170 -18.5946 -18.5859 -18.5670 -18.5450 -18.5214
   -18.4927 -18.4863 -18.4445 -18.4361 -18.4275 -18.4005 -18.3583 -18.3401
   -18.2842 -18.2731 -18.2592 -18.2564 -18.2366 -18.2076 -18.1925 -18.1921
   -18.1917 -18.1917 -18.1915 -18.1914 -18.1676 -18.1571 -18.1516 -18.1515
   -18.1513 -18.1213 -18.1123 -18.1097 -18.1074 -18.1065 -18.1025 -18.0828
   -18.0781 -18.0774 -18.0723 -18.0362 -18.0274 -18.0169 -18.0154 -17.9985
   -17.9951 -17.9944 -17.9892 -17.9841 -17.9750 -17.9693 -17.9677 -17.9659
   -17.9431 -17.9355 -17.9333 -17.9219 -17.9154 -17.9092 -17.9015 -17.8995
   -17.8950 -17.8736 -17.8674 -17.8647 -17.8464 -17.8393 -17.8294 -17.8185
   -17.8157 -17.8102 -12.2914 -12.2196 -12.0767 -11.9790 -11.8101 -11.8068
   -11.8059 -11.7895 -11.7278 -11.7223 -11.7175 -11.6604 -11.5261 -11.4574
   -11.3811 -11.3659 -11.3203 -11.2889 -11.2631 -11.2579 -11.2552 -11.2394
   -11.2282 -11.2053 -11.1979 -11.1809 -11.1764 -11.1762 -11.1723 -11.1682
   -11.1600 -11.0947 -11.0604 -11.0567 -11.0442 -11.0378 -11.0344 -11.0239
   -11.0062 -10.9940 -10.9815 -10.9776 -10.9612 -10.9529 -10.9282 -10.9219
   -10.9159 -10.8972 -10.8907 -10.8855 -10.8838 -10.8826 -10.8822 -10.8794
   -10.8752 -10.8615 -10.8550 -10.8540 -10.8520 -10.8418 -10.8356 -10.8345
   -10.8334 -10.8308 -10.8286 -10.7920 -10.7735 -10.7651 -10.7538 -10.7478
   -10.7265 -10.7170 -10.6769 -10.6698 -10.6620 -10.5926 -10.5449 -10.4149
   -10.3434 -10.2043 -10.1341 -10.1009 -10.0987 -10.0950  -9.9772  -9.9549
    -9.9430  -9.9269  -9.9080  -9.8694  -9.8473  -9.8357  -9.8278  -9.8198
    -9.8078  -9.7966  -9.7837  -9.7655  -9.7593  -9.7449  -9.7381  -9.7144
    -9.6992  -9.6865  -9.6817  -9.6736  -9.6710  -9.6658  -9.6584  -9.6499
    -9.6454  -9.6352  -9.6272  -9.6262  -9.6242  -9.6236  -9.6218  -9.6116
    -9.5986  -9.5828  -9.5331  -9.5250  -9.5174  -9.5038  -9.4924  -9.4904
    -9.4868  -9.4543  -9.4421  -9.4237  -9.4125  -9.4107  -9.4032  -9.3933
    -9.3773  -9.3650  -9.3456  -9.3100  -9.3022  -9.2787  -9.2769  -9.2597
    -9.2541  -9.2523  -9.2223  -9.2130  -9.1677  -9.1638  -9.1097  -9.0960
    -9.0807  -9.0758  -9.0711  -9.0705  -9.0704  -9.0698  -9.0408  -9.0383
    -8.9990  -8.9955  -8.9933  -8.9876  -8.9771  -8.9482  -8.9130  -8.8935
    -8.8813  -8.8637  -8.8612  -8.8592  -8.8512  -8.8485  -8.8442  -8.8379
    -8.8283  -8.8183  -8.8137  -8.8066  -8.7982  -8.7866  -8.7792  -8.7731
    -8.7688  -8.7331  -8.6510  -8.6205  -8.5193  -8.4923  -8.4816  -8.4816
    -8.4091  -8.4090  -8.3884  -8.3744  -8.3698  -8.3696  -8.3695  -8.3694
    -8.3692  -8.3681  -8.3538  -8.3343  -8.3279  -8.3039  -8.2952  -8.2933
    -8.2926  -8.2910  -8.2894  -8.2724  -8.2450  -8.1613  -8.0771  -8.0374
    -8.0046  -7.9879  -7.9784  -7.9597  -7.8604  -7.8025  -7.7491  -7.7317
    -7.7156  -7.6799  -7.6650  -7.6392  -7.6345  -7.6340  -7.6337  -7.6336
    -7.6333  -7.6309  -7.6041  -7.5885  -7.5883  -7.5878  -7.5875  -7.5872
    -7.5865  -7.5690  -7.5629  -7.5615  -7.5548  -7.5533  -7.5508  -7.5437
    -7.5388  -7.5280  -7.5179  -7.5159  -7.5119  -7.5116  -7.5102  -7.5084
    -7.5060  -7.4910  -7.4817  -7.4747  -7.4713  -7.4671  -7.4552  -7.4281
    -7.3966  -7.3676  -7.3625  -7.3529  -7.3528  -7.3482  -7.3237  -7.2876
    -7.2835  -7.2813  -7.2671  -7.2135  -7.1857  -7.1376  -7.1055  -7.0763
    -7.0698  -7.0350  -6.9883  -6.9814  -6.9479  -6.9304  -6.9108  -6.8509
    -6.8474  -6.8461  -6.8296  -6.7806  -6.7507  -6.7224  -6.7189  -6.7161
    -6.7083  -6.6930  -6.6770  -6.6738  -6.6693  -6.6463  -6.6185  -6.6164
    -6.6037  -6.5756  -6.5753  -6.5727  -6.5675  -6.5642  -6.5554  -6.5418
    -6.5254  -6.5217  -6.5152  -6.5022  -6.4957  -6.4843  -6.4773  -6.4742
    -6.4497  -6.4207  -6.4079  -6.4009  -6.4008  -6.4008  -6.4008  -6.4007
    -6.4007  -6.3912  -6.3765  -6.3427  -6.3293  -6.3241  -6.3225  -6.3217
    -6.3206  -6.3195  -6.3071  -6.2699  -6.2608  -6.1850  -6.0931  -5.9793
    -5.9341  -5.8047  -5.7140  -5.6241  -5.4840  -5.4310  -5.3651  -5.2700
    -5.1626  -4.2877  -4.1275  -3.9076  -3.8856  -3.8845  -3.8822  -3.8692
    -3.8603  -3.8596  -3.8545  -3.8516  -3.8474  -3.8311  -3.8200  -3.7321
    -3.6758  -3.6639  -3.6433  -3.6396  -3.6318  -3.6283  -3.6181  -3.6157
    -3.6088  -3.5415  -3.5414  -3.5414  -3.5253  -3.5238  -3.5234  -3.5222
    -3.5212  -3.5205  -3.4915  -3.4891  -3.4741  -3.4736  -3.4734  -3.4629
    -3.4510  -3.4363  -3.4283  -3.4252  -3.4206  -3.4188  -3.4159  -3.4087
    -3.4023  -3.4003  -3.3937  -3.3800  -3.3769  -3.3730  -3.3463  -3.3305
    -3.3193  -3.3082  -3.3007  -3.2787  -3.2761  -3.2562  -3.2277  -3.1902
    -3.0800  -3.0758  -3.0744  -3.0724  -3.0707  -3.0699  -3.0685  -3.0140
    -3.0061  -3.0035  -3.0028  -3.0023  -3.0021  -3.0020  -3.0018  -3.0009
    -2.9937  -2.9864  -2.9817  -2.9743  -2.9671  -2.9519  -2.9482  -2.9426
    -2.9401  -2.9362  -2.9333  -2.9279  -2.9194  -2.9184  -2.9161  -2.9122
    -2.9018  -2.8968  -2.8798  -2.8668  -2.8650  -2.8544  -2.8295  -2.8140
    -2.8127  -2.7982  -2.7933  -2.7907  -2.7894  -2.7888  -2.7850  -2.7549
    -2.7452  -2.7367  -2.7301  -2.7090  -2.6872  -2.6843  -2.6691  -2.6403
    -2.6288  -2.6219  -2.6029  -2.5877  -2.5845  -2.5779  -2.5672  -2.5580
    -2.5502  -2.5367  -2.5224  -2.5046  -2.5003  -2.4899

          k = 0.0000-0.5773 0.0000 (321564 PWs)   bands (ev):

  -103.0024-102.5154 -88.7545 -71.3332 -71.3245 -71.3140 -71.3092 -71.2978
   -71.2793 -71.2675 -70.8566 -70.8557 -70.8231 -70.8117 -70.7992 -70.7825
   -70.7714 -66.7266 -66.7265 -66.7160 -66.7160 -66.7010 -66.7010 -66.7010
   -66.7010 -66.6967 -66.6966 -66.6905 -66.6904 -66.6904 -66.6904 -66.6860
   -66.6860 -66.6609 -66.6603 -66.6501 -66.6500 -66.6353 -66.6351 -66.6350
   -66.6349 -66.6310 -66.6303 -66.6249 -66.6248 -66.6244 -66.6237 -66.6201
   -66.6200 -66.5916 -66.5872 -66.5729 -66.5693 -66.5620 -66.5605 -66.5526
   -66.5499 -66.5442 -66.5393 -66.5351 -66.5334 -66.5245 -66.5209 -66.5068
   -66.4893 -57.2641 -57.1989 -57.1781 -56.8300 -56.7405 -56.6590 -54.6434
   -54.5297 -54.4722 -41.0277 -41.0276 -41.0276 -41.0276 -41.0010 -41.0010
   -40.9891 -40.9891 -40.9609 -40.9608 -40.9604 -40.9600 -40.9386 -40.9386
   -40.9386 -40.9386 -40.9341 -40.9336 -40.9220 -40.9219 -40.8872 -40.8820
   -40.8808 -40.8808 -40.8717 -40.8716 -40.8716 -40.8715 -40.8711 -40.8707
   -40.8707 -40.8601 -40.8601 -40.8596 -40.8576 -40.8506 -40.8307 -40.8307
   -40.8307 -40.8307 -40.8290 -40.8220 -40.8220 -40.8156 -40.8151 -40.8126
   -40.8098 -40.8098 -40.8098 -40.8097 -40.8097 -40.8097 -40.8038 -40.8037
   -40.8011 -40.8011 -40.7947 -40.7946 -40.7848 -40.7790 -40.7790 -40.7789
   -40.7789 -40.7789 -40.7728 -40.7655 -40.7654 -40.7651 -40.7651 -40.7610
   -40.7595 -40.7569 -40.7563 -40.7496 -40.7448 -40.7448 -40.7444 -40.7444
   -40.7444 -40.7444 -40.7443 -40.7437 -40.7428 -40.7427 -40.7359 -40.7358
   -40.7357 -40.7341 -40.7324 -40.7324 -40.7132 -40.7132 -40.7131 -40.7125
   -40.7123 -40.7120 -40.7115 -40.7113 -40.7071 -40.7030 -40.7013 -40.6983
   -40.6963 -40.6963 -40.6930 -40.6871 -40.6802 -40.6790 -40.6777 -40.6776
   -40.6776 -40.6776 -40.6752 -40.6704 -40.6659 -40.6658 -40.6658 -40.6653
   -40.6652 -40.6606 -40.6557 -40.6468 -40.6468 -40.6460 -40.6296 -40.6295
   -40.6283 -40.6250 -40.6228 -40.6180 -40.5994 -40.5987 -40.5919 -40.5875
   -40.5802 -40.5785 -40.5693 -40.5577 -40.5523 -40.5465 -40.5340 -40.5127
   -40.5023 -40.4827 -20.1825 -19.9340 -19.9171 -19.8526 -19.7588 -19.7313
   -19.6637 -19.5142 -19.4842 -19.4641 -19.3360 -19.3240 -19.1318 -19.0881
   -18.9294 -18.8799 -18.7934 -18.7916 -18.7821 -18.7817 -18.7738 -18.7682
   -18.6981 -18.6793 -18.6700 -18.6627 -18.6495 -18.6370 -18.6327 -18.5938
   -18.5632 -18.5369 -18.5341 -18.5107 -18.5012 -18.4797 -18.4611 -18.4434
   -18.4264 -18.4245 -18.3704 -18.3426 -18.3311 -18.3254 -18.2867 -18.2775
   -18.2514 -18.2316 -18.2182 -18.2050 -18.1754 -18.1724 -18.1721 -18.1720
   -18.1717 -18.1595 -18.1390 -18.1311 -18.1205 -18.0995 -18.0975 -18.0918
   -18.0885 -18.0876 -18.0748 -18.0581 -18.0427 -18.0348 -18.0328 -18.0143
   -17.9988 -17.9933 -17.9894 -17.9838 -17.9716 -17.9676 -17.9377 -17.9285
   -17.9253 -17.9087 -17.9087 -17.9071 -17.8802 -17.8706 -17.8595 -17.8491
   -17.8488 -17.8385 -17.8329 -17.8321 -17.8277 -17.8176 -17.7901 -17.7884
   -17.7355 -17.7245 -12.2117 -12.1452 -11.9740 -11.7895 -11.7384 -11.6552
   -11.6125 -11.5504 -11.5218 -11.5189 -11.5167 -11.5160 -11.4931 -11.4893
   -11.4647 -11.4415 -11.4281 -11.4217 -11.4181 -11.4027 -11.3871 -11.3708
   -11.3538 -11.3390 -11.3320 -11.3046 -11.3017 -11.3017 -11.2811 -11.2725
   -11.2559 -11.2544 -11.2075 -11.2049 -11.1981 -11.1818 -11.1480 -11.1183
   -11.0681 -11.0602 -11.0437 -11.0245 -10.9961 -10.9927 -10.9716 -10.9690
   -10.9564 -10.9478 -10.9422 -10.9251 -10.9044 -10.8967 -10.8790 -10.8757
   -10.8748 -10.8743 -10.8709 -10.8682 -10.8506 -10.8323 -10.8182 -10.8111
   -10.8068 -10.8006 -10.7861 -10.6957 -10.6605 -10.6340 -10.5557 -10.5467
   -10.5373 -10.4895 -10.4357 -10.4153 -10.3716 -10.3169 -10.2569 -10.2205
   -10.1942 -10.1708 -10.1593 -10.1483 -10.1263 -10.1154 -10.0818 -10.0462
   -10.0227 -10.0090  -9.9965  -9.9864  -9.9790  -9.9722  -9.9696  -9.9442
    -9.9410  -9.9358  -9.9284  -9.9068  -9.8804  -9.8448  -9.8322  -9.8169
    -9.8026  -9.7902  -9.7644  -9.7633  -9.7605  -9.7549  -9.7430  -9.7423
    -9.7262  -9.7220  -9.7034  -9.6951  -9.6693  -9.6555  -9.6389  -9.6182
    -9.6074  -9.5938  -9.5762  -9.5732  -9.5551  -9.5370  -9.5171  -9.5166
    -9.4632  -9.4412  -9.4089  -9.3922  -9.3787  -9.3197  -9.3155  -9.2582
    -9.2475  -9.2358  -9.2238  -9.2099  -9.1951  -9.1877  -9.1774  -9.1587
    -9.1540  -9.1412  -9.1341  -9.1145  -9.1056  -9.0945  -9.0853  -9.0736
    -9.0540  -9.0460  -9.0352  -9.0191  -9.0137  -9.0014  -8.9980  -8.9853
    -8.9800  -8.9764  -8.9684  -8.9632  -8.9434  -8.9318  -8.9245  -8.9095
    -8.9039  -8.9013  -8.8975  -8.8869  -8.8843  -8.8834  -8.8769  -8.8681
    -8.8629  -8.8465  -8.8284  -8.8193  -8.8093  -8.8029  -8.7920  -8.7715
    -8.7327  -8.6787  -8.6361  -8.6125  -8.5570  -8.5568  -8.4949  -8.4840
    -8.4749  -8.4618  -8.4341  -8.3975  -8.3556  -8.2832  -8.2380  -8.2380
    -8.2368  -8.2033  -8.1665  -8.1651  -8.1404  -8.1215  -8.0764  -8.0513
    -8.0068  -7.9769  -7.9748  -7.9635  -7.9321  -7.9138  -7.9059  -7.8951
    -7.8932  -7.8919  -7.8914  -7.8910  -7.8856  -7.8813  -7.8753  -7.8699
    -7.8454  -7.8443  -7.8440  -7.8421  -7.8211  -7.8206  -7.8100  -7.8035
    -7.7959  -7.7891  -7.7861  -7.7714  -7.7698  -7.7671  -7.7646  -7.7548
    -7.7475  -7.7377  -7.7300  -7.7148  -7.7062  -7.7062  -7.7026  -7.6942
    -7.6756  -7.6669  -7.6554  -7.6472  -7.6392  -7.6316  -7.6176  -7.6098
    -7.5844  -7.5761  -7.5731  -7.5306  -7.5160  -7.4678  -7.4157  -7.3750
    -7.3431  -7.3157  -7.2988  -7.2748  -7.2723  -7.2623  -7.2430  -7.2008
    -7.1676  -7.1376  -7.1295  -7.1038  -7.0809  -7.0617  -7.0557  -7.0532
    -7.0458  -7.0286  -7.0084  -6.9987  -6.9758  -6.9522  -6.9458  -6.9438
    -6.9106  -6.8994  -6.8855  -6.8730  -6.8528  -6.8017  -6.7882  -6.7669
    -6.7578  -6.7278  -6.7036  -6.7033  -6.7031  -6.7031  -6.6966  -6.6849
    -6.6765  -6.6650  -6.6501  -6.6351  -6.6339  -6.6333  -6.6288  -6.6136
    -6.5646  -6.5264  -6.5000  -6.4874  -6.4709  -6.4346  -6.3721  -6.3715
    -6.3710  -6.3708  -6.3510  -6.3300  -6.3205  -6.3040  -6.2981  -6.2898
    -6.2866  -6.2861  -6.2850  -6.2637  -6.2508  -6.2146  -6.1726  -6.0951
    -6.0229  -6.0229  -5.9716  -5.9535  -5.9458  -5.9403  -5.8871  -5.8001
    -5.7584  -5.7340  -5.6665  -5.6138  -5.6031  -5.4654  -5.3803  -5.3538
    -5.2439  -4.3163  -4.1419  -4.0774  -4.0603  -4.0373  -3.9953  -3.9382
    -3.9381  -3.9121  -3.9044  -3.8751  -3.8731  -3.8646  -3.8210  -3.8156
    -3.8065  -3.7762  -3.7441  -3.6829  -3.6698  -3.6520  -3.6432  -3.6379
    -3.6351  -3.6242  -3.6238  -3.6184  -3.6010  -3.5785  -3.5483  -3.5444
    -3.5388  -3.5363  -3.5292  -3.5229  -3.5144  -3.5088  -3.5023  -3.4763
    -3.4589  -3.4465  -3.4328  -3.4128  -3.4031  -3.3912  -3.3903  -3.3838
    -3.3653  -3.3606  -3.3587  -3.3497  -3.3398  -3.3253  -3.3152  -3.3146
    -3.3145  -3.3140  -3.2948  -3.2825  -3.2780  -3.2681  -3.2643  -3.2578
    -3.2464  -3.2405  -3.2349  -3.2295  -3.2196  -3.2095  -3.1914  -3.1767
    -3.1644  -3.1478  -3.1119  -3.1085  -3.1074  -3.0893  -3.0765  -3.0721
    -3.0693  -3.0528  -3.0515  -3.0507  -3.0507  -3.0214  -3.0088  -3.0043
    -3.0014  -2.9992  -2.9931  -2.9775  -2.9688  -2.9614  -2.9567  -2.9516
    -2.9423  -2.9361  -2.9326  -2.9210  -2.9081  -2.9006  -2.8929  -2.8867
    -2.8574  -2.8501  -2.8429  -2.8409  -2.8080  -2.7825  -2.7748  -2.7532
    -2.7482  -2.7074  -2.7000  -2.6922  -2.6869  -2.6837  -2.6758  -2.6113
    -2.6052  -2.5886  -2.5668  -2.5486  -2.5460  -2.5370  -2.5232  -2.4795
    -2.4314  -2.3966  -2.3935  -2.3471  -2.3358  -2.3078

          k =-0.5000-0.2887 0.0000 (321564 PWs)   bands (ev):

  -103.0024-102.5154 -88.7545 -71.3332 -71.3245 -71.3140 -71.3092 -71.2978
   -71.2793 -71.2675 -70.8566 -70.8557 -70.8231 -70.8117 -70.7992 -70.7825
   -70.7714 -66.7266 -66.7265 -66.7160 -66.7160 -66.7010 -66.7010 -66.7010
   -66.7010 -66.6966 -66.6966 -66.6904 -66.6904 -66.6904 -66.6904 -66.6860
   -66.6860 -66.6607 -66.6605 -66.6501 -66.6499 -66.6354 -66.6351 -66.6350
   -66.6349 -66.6308 -66.6306 -66.6248 -66.6245 -66.6243 -66.6243 -66.6201
   -66.6199 -66.5911 -66.5880 -66.5718 -66.5695 -66.5618 -66.5612 -66.5546
   -66.5480 -66.5432 -66.5392 -66.5351 -66.5346 -66.5242 -66.5209 -66.5068
   -66.4893 -57.2641 -57.1989 -57.1781 -56.8300 -56.7405 -56.6590 -54.6434
   -54.5297 -54.4722 -41.0276 -41.0276 -41.0276 -41.0276 -41.0010 -41.0010
   -40.9891 -40.9891 -40.9607 -40.9605 -40.9604 -40.9604 -40.9386 -40.9386
   -40.9386 -40.9386 -40.9340 -40.9338 -40.9220 -40.9218 -40.8830 -40.8808
   -40.8808 -40.8769 -40.8763 -40.8717 -40.8717 -40.8715 -40.8715 -40.8707
   -40.8707 -40.8658 -40.8601 -40.8601 -40.8594 -40.8521 -40.8307 -40.8307
   -40.8307 -40.8307 -40.8297 -40.8220 -40.8220 -40.8155 -40.8152 -40.8098
   -40.8098 -40.8098 -40.8098 -40.8097 -40.8097 -40.8071 -40.8039 -40.8037
   -40.8011 -40.8011 -40.7947 -40.7946 -40.7830 -40.7789 -40.7789 -40.7789
   -40.7789 -40.7783 -40.7711 -40.7655 -40.7653 -40.7652 -40.7651 -40.7613
   -40.7587 -40.7567 -40.7565 -40.7514 -40.7447 -40.7444 -40.7444 -40.7444
   -40.7444 -40.7444 -40.7443 -40.7442 -40.7429 -40.7427 -40.7391 -40.7358
   -40.7357 -40.7324 -40.7324 -40.7263 -40.7173 -40.7132 -40.7132 -40.7123
   -40.7122 -40.7119 -40.7119 -40.7110 -40.7084 -40.7064 -40.6992 -40.6963
   -40.6963 -40.6952 -40.6935 -40.6896 -40.6805 -40.6777 -40.6777 -40.6775
   -40.6775 -40.6767 -40.6749 -40.6710 -40.6671 -40.6658 -40.6658 -40.6657
   -40.6655 -40.6595 -40.6556 -40.6493 -40.6465 -40.6462 -40.6320 -40.6296
   -40.6294 -40.6257 -40.6214 -40.6178 -40.5992 -40.5990 -40.5890 -40.5844
   -40.5822 -40.5751 -40.5722 -40.5578 -40.5569 -40.5499 -40.5258 -40.5099
   -40.4991 -40.4895 -20.1690 -19.9533 -19.9177 -19.8916 -19.7613 -19.7420
   -19.5483 -19.5171 -19.4771 -19.4680 -19.3344 -19.3267 -19.2437 -19.0947
   -18.8773 -18.8372 -18.8025 -18.7889 -18.7829 -18.7811 -18.7737 -18.7585
   -18.7244 -18.6870 -18.6650 -18.6563 -18.6533 -18.6484 -18.6197 -18.5952
   -18.5726 -18.5373 -18.5347 -18.5194 -18.5039 -18.4766 -18.4681 -18.4466
   -18.4273 -18.4075 -18.3860 -18.3551 -18.3135 -18.3044 -18.2838 -18.2763
   -18.2403 -18.2363 -18.2125 -18.2065 -18.1742 -18.1723 -18.1722 -18.1720
   -18.1717 -18.1587 -18.1462 -18.1365 -18.1062 -18.1035 -18.0985 -18.0917
   -18.0882 -18.0874 -18.0818 -18.0668 -18.0428 -18.0391 -18.0264 -18.0246
   -17.9999 -17.9936 -17.9869 -17.9829 -17.9821 -17.9684 -17.9343 -17.9276
   -17.9202 -17.9170 -17.9087 -17.9087 -17.8741 -17.8698 -17.8527 -17.8494
   -17.8489 -17.8482 -17.8349 -17.8323 -17.8300 -17.8049 -17.7896 -17.7881
   -17.7350 -17.7246 -12.1857 -12.1439 -11.9641 -11.7944 -11.7492 -11.6869
   -11.6312 -11.5878 -11.5450 -11.5182 -11.5166 -11.5146 -11.5109 -11.4910
   -11.4882 -11.4326 -11.4229 -11.4206 -11.4158 -11.4143 -11.3775 -11.3633
   -11.3469 -11.3350 -11.3244 -11.3017 -11.3017 -11.2815 -11.2565 -11.2561
   -11.2410 -11.2134 -11.2075 -11.2030 -11.1992 -11.1887 -11.1329 -11.1210
   -11.0846 -11.0590 -11.0430 -11.0170 -11.0122 -10.9845 -10.9704 -10.9650
   -10.9570 -10.9506 -10.9446 -10.9253 -10.9130 -10.9009 -10.8836 -10.8754
   -10.8747 -10.8743 -10.8731 -10.8724 -10.8676 -10.8463 -10.8121 -10.8108
   -10.8058 -10.8031 -10.7497 -10.6994 -10.6703 -10.6389 -10.5682 -10.5549
   -10.5306 -10.5104 -10.4380 -10.4149 -10.3524 -10.3063 -10.2431 -10.2283
   -10.1800 -10.1642 -10.1622 -10.1563 -10.1017 -10.0872 -10.0653 -10.0550
   -10.0181 -10.0009  -9.9943  -9.9780  -9.9760  -9.9676  -9.9589  -9.9523
    -9.9479  -9.9362  -9.9277  -9.9114  -9.8809  -9.8446  -9.8157  -9.8076
    -9.7920  -9.7868  -9.7854  -9.7693  -9.7578  -9.7567  -9.7443  -9.7411
    -9.7221  -9.7209  -9.7096  -9.6733  -9.6621  -9.6552  -9.6292  -9.6233
    -9.6119  -9.5886  -9.5829  -9.5733  -9.5616  -9.5576  -9.5342  -9.5194
    -9.5131  -9.4762  -9.4666  -9.4113  -9.3779  -9.3491  -9.2660  -9.2566
    -9.2506  -9.2354  -9.2232  -9.2144  -9.1953  -9.1832  -9.1654  -9.1589
    -9.1498  -9.1404  -9.1265  -9.0998  -9.0953  -9.0857  -9.0729  -9.0668
    -9.0630  -9.0489  -9.0445  -9.0247  -9.0152  -8.9980  -8.9935  -8.9886
    -8.9796  -8.9772  -8.9624  -8.9516  -8.9392  -8.9374  -8.9203  -8.9037
    -8.9015  -8.9001  -8.8955  -8.8870  -8.8846  -8.8838  -8.8811  -8.8734
    -8.8626  -8.8526  -8.8507  -8.8281  -8.8081  -8.8041  -8.7980  -8.7583
    -8.7314  -8.6894  -8.6162  -8.6129  -8.5571  -8.5568  -8.5221  -8.5070
    -8.4756  -8.4697  -8.4357  -8.4082  -8.3594  -8.2781  -8.2380  -8.2380
    -8.2191  -8.1798  -8.1663  -8.1656  -8.1420  -8.1061  -8.0710  -8.0481
    -7.9883  -7.9764  -7.9727  -7.9365  -7.9260  -7.9159  -7.9058  -7.9019
    -7.8943  -7.8938  -7.8915  -7.8913  -7.8911  -7.8683  -7.8648  -7.8479
    -7.8450  -7.8437  -7.8424  -7.8260  -7.8211  -7.8196  -7.8101  -7.7980
    -7.7941  -7.7880  -7.7829  -7.7778  -7.7716  -7.7666  -7.7625  -7.7574
    -7.7437  -7.7324  -7.7295  -7.7122  -7.7066  -7.7062  -7.7042  -7.6933
    -7.6865  -7.6714  -7.6667  -7.6467  -7.6413  -7.6310  -7.6232  -7.6058
    -7.5834  -7.5741  -7.5643  -7.5607  -7.5052  -7.4739  -7.4543  -7.3894
    -7.3408  -7.3077  -7.2871  -7.2754  -7.2692  -7.2619  -7.2412  -7.2196
    -7.1801  -7.1618  -7.1332  -7.1083  -7.0995  -7.0731  -7.0572  -7.0543
    -7.0540  -7.0468  -7.0159  -6.9906  -6.9639  -6.9565  -6.9470  -6.9344
    -6.9152  -6.8957  -6.8780  -6.8650  -6.8462  -6.8009  -6.7896  -6.7755
    -6.7409  -6.7329  -6.7031  -6.7031  -6.7030  -6.7029  -6.6901  -6.6804
    -6.6605  -6.6421  -6.6410  -6.6365  -6.6323  -6.6320  -6.6289  -6.6037
    -6.5608  -6.5382  -6.5108  -6.4906  -6.4855  -6.4469  -6.3833  -6.3714
    -6.3711  -6.3710  -6.3688  -6.3177  -6.3087  -6.2971  -6.2897  -6.2886
    -6.2865  -6.2844  -6.2624  -6.2575  -6.2382  -6.2105  -6.0845  -6.0750
    -6.0236  -6.0229  -6.0197  -5.9610  -5.9456  -5.9432  -5.9000  -5.8202
    -5.7887  -5.7412  -5.6637  -5.6351  -5.5812  -5.4662  -5.3991  -5.3421
    -5.2653  -4.2891  -4.1688  -4.0697  -4.0685  -4.0445  -3.9929  -3.9382
    -3.9381  -3.9160  -3.8989  -3.8738  -3.8736  -3.8433  -3.8363  -3.8227
    -3.8072  -3.7889  -3.7320  -3.6859  -3.6671  -3.6434  -3.6416  -3.6391
    -3.6371  -3.6239  -3.6235  -3.6118  -3.6026  -3.5904  -3.5649  -3.5490
    -3.5410  -3.5252  -3.5189  -3.5164  -3.5140  -3.5062  -3.5046  -3.4685
    -3.4591  -3.4350  -3.4194  -3.4091  -3.3954  -3.3916  -3.3908  -3.3854
    -3.3667  -3.3598  -3.3579  -3.3534  -3.3499  -3.3332  -3.3152  -3.3149
    -3.3142  -3.3136  -3.2980  -3.2793  -3.2736  -3.2685  -3.2593  -3.2569
    -3.2480  -3.2399  -3.2352  -3.2334  -3.2226  -3.2009  -3.1726  -3.1689
    -3.1631  -3.1424  -3.1190  -3.1098  -3.1082  -3.0947  -3.0812  -3.0709
    -3.0690  -3.0519  -3.0515  -3.0511  -3.0509  -3.0154  -3.0044  -3.0038
    -3.0018  -2.9897  -2.9819  -2.9748  -2.9684  -2.9670  -2.9570  -2.9569
    -2.9480  -2.9354  -2.9270  -2.9247  -2.9167  -2.8977  -2.8878  -2.8735
    -2.8597  -2.8568  -2.8453  -2.8412  -2.8326  -2.7825  -2.7804  -2.7512
    -2.7473  -2.7176  -2.7134  -2.6886  -2.6877  -2.6790  -2.6717  -2.6118
    -2.6031  -2.5880  -2.5719  -2.5456  -2.5414  -2.5332  -2.5095  -2.5087
    -2.4254  -2.3994  -2.3564  -2.3479  -2.3293  -2.2566

          k =-0.5000-0.8660 0.0000 (321564 PWs)   bands (ev):

  -103.0024-102.5154 -88.7545 -71.3332 -71.3245 -71.3140 -71.3092 -71.2978
   -71.2793 -71.2675 -70.8566 -70.8557 -70.8231 -70.8117 -70.7992 -70.7825
   -70.7714 -66.7266 -66.7265 -66.7160 -66.7160 -66.7010 -66.7010 -66.7010
   -66.7010 -66.6966 -66.6966 -66.6904 -66.6904 -66.6904 -66.6904 -66.6860
   -66.6860 -66.6607 -66.6605 -66.6501 -66.6500 -66.6353 -66.6351 -66.6351
   -66.6349 -66.6308 -66.6306 -66.6247 -66.6245 -66.6244 -66.6243 -66.6201
   -66.6200 -66.5930 -66.5840 -66.5742 -66.5715 -66.5614 -66.5595 -66.5529
   -66.5485 -66.5437 -66.5399 -66.5358 -66.5338 -66.5242 -66.5206 -66.5069
   -66.4893 -57.2641 -57.1989 -57.1781 -56.8300 -56.7405 -56.6590 -54.6434
   -54.5297 -54.4722 -41.0276 -41.0276 -41.0276 -41.0276 -41.0010 -41.0010
   -40.9891 -40.9891 -40.9607 -40.9605 -40.9605 -40.9603 -40.9386 -40.9386
   -40.9386 -40.9386 -40.9340 -40.9338 -40.9220 -40.9219 -40.8973 -40.8812
   -40.8808 -40.8808 -40.8717 -40.8716 -40.8716 -40.8715 -40.8707 -40.8707
   -40.8621 -40.8609 -40.8601 -40.8601 -40.8488 -40.8441 -40.8330 -40.8307
   -40.8307 -40.8307 -40.8307 -40.8220 -40.8220 -40.8169 -40.8154 -40.8152
   -40.8098 -40.8098 -40.8098 -40.8098 -40.8097 -40.8097 -40.8039 -40.8037
   -40.8011 -40.8011 -40.7947 -40.7946 -40.7867 -40.7819 -40.7789 -40.7789
   -40.7789 -40.7789 -40.7785 -40.7654 -40.7653 -40.7652 -40.7651 -40.7618
   -40.7584 -40.7567 -40.7565 -40.7523 -40.7446 -40.7444 -40.7444 -40.7444
   -40.7444 -40.7444 -40.7443 -40.7442 -40.7429 -40.7427 -40.7358 -40.7357
   -40.7342 -40.7324 -40.7324 -40.7312 -40.7182 -40.7132 -40.7132 -40.7122
   -40.7121 -40.7121 -40.7120 -40.7098 -40.7066 -40.7036 -40.6989 -40.6963
   -40.6963 -40.6955 -40.6909 -40.6876 -40.6843 -40.6781 -40.6777 -40.6776
   -40.6776 -40.6775 -40.6742 -40.6704 -40.6658 -40.6658 -40.6657 -40.6654
   -40.6646 -40.6610 -40.6543 -40.6491 -40.6464 -40.6464 -40.6327 -40.6296
   -40.6294 -40.6282 -40.6178 -40.6053 -40.5991 -40.5990 -40.5939 -40.5842
   -40.5797 -40.5788 -40.5714 -40.5564 -40.5539 -40.5502 -40.5302 -40.5172
   -40.5128 -40.4742 -20.1804 -19.9375 -19.9173 -19.8690 -19.7600 -19.7389
   -19.5736 -19.5488 -19.4799 -19.4779 -19.3341 -19.3294 -19.2373 -19.0186
   -18.8843 -18.8527 -18.8134 -18.7985 -18.7819 -18.7814 -18.7783 -18.7717
   -18.7072 -18.6767 -18.6638 -18.6591 -18.6514 -18.6449 -18.6224 -18.5886
   -18.5723 -18.5371 -18.5338 -18.5046 -18.4991 -18.4921 -18.4542 -18.4455
   -18.4356 -18.4206 -18.3928 -18.3658 -18.3290 -18.3153 -18.2842 -18.2692
   -18.2529 -18.2458 -18.2056 -18.1945 -18.1846 -18.1723 -18.1722 -18.1720
   -18.1719 -18.1640 -18.1411 -18.1368 -18.1048 -18.0989 -18.0962 -18.0915
   -18.0910 -18.0800 -18.0702 -18.0607 -18.0403 -18.0394 -18.0326 -18.0153
   -17.9937 -17.9923 -17.9898 -17.9851 -17.9731 -17.9684 -17.9352 -17.9293
   -17.9191 -17.9087 -17.9087 -17.9075 -17.8896 -17.8664 -17.8552 -17.8492
   -17.8489 -17.8361 -17.8348 -17.8317 -17.8300 -17.8230 -17.7896 -17.7887
   -17.7335 -17.7269 -12.2167 -12.1459 -11.9785 -11.7812 -11.7315 -11.6534
   -11.6166 -11.5312 -11.5280 -11.5178 -11.5171 -11.5079 -11.5044 -11.4941
   -11.4835 -11.4423 -11.4262 -11.4214 -11.4171 -11.4069 -11.3973 -11.3544
   -11.3515 -11.3346 -11.3307 -11.3088 -11.3017 -11.3017 -11.2847 -11.2562
   -11.2559 -11.2198 -11.2110 -11.2055 -11.2005 -11.1779 -11.1584 -11.1275
   -11.0918 -11.0715 -11.0316 -11.0168 -11.0097 -10.9883 -10.9772 -10.9633
   -10.9554 -10.9537 -10.9278 -10.9141 -10.9019 -10.8954 -10.8784 -10.8773
   -10.8755 -10.8745 -10.8741 -10.8629 -10.8559 -10.8385 -10.8187 -10.8104
   -10.8031 -10.8020 -10.7711 -10.6906 -10.6637 -10.6492 -10.5947 -10.5420
   -10.5284 -10.4928 -10.4553 -10.4029 -10.3599 -10.2900 -10.2694 -10.2285
   -10.1897 -10.1634 -10.1576 -10.1427 -10.1262 -10.1097 -10.0668 -10.0468
   -10.0280 -10.0169  -9.9851  -9.9833  -9.9821  -9.9762  -9.9672  -9.9571
    -9.9488  -9.9341  -9.9259  -9.9227  -9.8789  -9.8582  -9.8485  -9.8210
    -9.8160  -9.7956  -9.7755  -9.7631  -9.7578  -9.7512  -9.7462  -9.7439
    -9.7275  -9.7175  -9.7118  -9.6988  -9.6891  -9.6595  -9.6542  -9.6221
    -9.6084  -9.5917  -9.5871  -9.5742  -9.5618  -9.5192  -9.5166  -9.4970
    -9.4385  -9.4341  -9.4079  -9.3847  -9.3475  -9.3351  -9.2671  -9.2549
    -9.2507  -9.2214  -9.2193  -9.2061  -9.1964  -9.1842  -9.1723  -9.1666
    -9.1572  -9.1433  -9.1317  -9.1074  -9.0983  -9.0909  -9.0899  -9.0775
    -9.0585  -9.0376  -9.0354  -9.0218  -9.0106  -9.0035  -8.9948  -8.9888
    -8.9813  -8.9780  -8.9663  -8.9585  -8.9541  -8.9291  -8.9234  -8.9115
    -8.9033  -8.9023  -8.9006  -8.8851  -8.8843  -8.8838  -8.8779  -8.8677
    -8.8630  -8.8528  -8.8275  -8.8186  -8.8087  -8.8046  -8.7897  -8.7789
    -8.7286  -8.6704  -8.6319  -8.6159  -8.5569  -8.5568  -8.5235  -8.4872
    -8.4795  -8.4608  -8.4335  -8.4048  -8.3405  -8.2774  -8.2456  -8.2380
    -8.2380  -8.2015  -8.1665  -8.1656  -8.1514  -8.1225  -8.0964  -8.0179
    -8.0003  -7.9778  -7.9747  -7.9730  -7.9326  -7.9083  -7.9058  -7.9010
    -7.8939  -7.8918  -7.8913  -7.8912  -7.8823  -7.8801  -7.8653  -7.8534
    -7.8451  -7.8435  -7.8428  -7.8399  -7.8217  -7.8202  -7.8092  -7.7991
    -7.7913  -7.7878  -7.7842  -7.7734  -7.7717  -7.7669  -7.7662  -7.7488
    -7.7444  -7.7394  -7.7311  -7.7190  -7.7063  -7.7060  -7.7043  -7.6946
    -7.6847  -7.6779  -7.6638  -7.6508  -7.6328  -7.6322  -7.6163  -7.6076
    -7.5910  -7.5796  -7.5431  -7.5327  -7.5139  -7.4863  -7.4354  -7.3986
    -7.3891  -7.3080  -7.2906  -7.2783  -7.2692  -7.2580  -7.2175  -7.2008
    -7.1784  -7.1396  -7.1288  -7.1056  -7.0958  -7.0832  -7.0651  -7.0536
    -7.0490  -7.0388  -7.0100  -6.9993  -6.9697  -6.9484  -6.9464  -6.9423
    -6.9274  -6.8986  -6.8739  -6.8575  -6.8285  -6.8181  -6.7785  -6.7586
    -6.7400  -6.7309  -6.7108  -6.7033  -6.7031  -6.7030  -6.7028  -6.6902
    -6.6612  -6.6376  -6.6370  -6.6340  -6.6332  -6.6231  -6.6197  -6.5828
    -6.5715  -6.5562  -6.5289  -6.4871  -6.4827  -6.3954  -6.3733  -6.3715
    -6.3711  -6.3709  -6.3650  -6.3232  -6.3121  -6.3052  -6.2926  -6.2912
    -6.2870  -6.2860  -6.2761  -6.2513  -6.2411  -6.2174  -6.1937  -6.0635
    -6.0326  -6.0229  -6.0228  -5.9573  -5.9460  -5.9440  -5.8279  -5.8090
    -5.8046  -5.7524  -5.6720  -5.6307  -5.5724  -5.4633  -5.3785  -5.3352
    -5.2644  -4.2525  -4.2082  -4.0679  -4.0607  -4.0296  -4.0182  -3.9385
    -3.9385  -3.9105  -3.8998  -3.8736  -3.8733  -3.8480  -3.8193  -3.8145
    -3.8046  -3.7575  -3.7567  -3.6857  -3.6617  -3.6508  -3.6411  -3.6389
    -3.6343  -3.6240  -3.6235  -3.6116  -3.5975  -3.5628  -3.5589  -3.5463
    -3.5453  -3.5407  -3.5204  -3.5169  -3.5154  -3.5113  -3.5047  -3.4806
    -3.4574  -3.4381  -3.4274  -3.4215  -3.4046  -3.3960  -3.3911  -3.3899
    -3.3689  -3.3603  -3.3557  -3.3535  -3.3417  -3.3287  -3.3163  -3.3147
    -3.3146  -3.3136  -3.3050  -3.2874  -3.2751  -3.2691  -3.2609  -3.2539
    -3.2475  -3.2400  -3.2352  -3.2236  -3.2216  -3.2147  -3.2003  -3.1720
    -3.1563  -3.1376  -3.1289  -3.1118  -3.1090  -3.0890  -3.0756  -3.0711
    -3.0675  -3.0525  -3.0515  -3.0511  -3.0505  -3.0207  -3.0154  -3.0032
    -3.0017  -2.9951  -2.9846  -2.9752  -2.9743  -2.9647  -2.9551  -2.9543
    -2.9434  -2.9380  -2.9344  -2.9243  -2.9145  -2.9018  -2.8947  -2.8772
    -2.8637  -2.8494  -2.8460  -2.8400  -2.8113  -2.7866  -2.7760  -2.7550
    -2.7517  -2.7092  -2.6991  -2.6910  -2.6885  -2.6850  -2.6705  -2.6093
    -2.6044  -2.5868  -2.5624  -2.5525  -2.5394  -2.5310  -2.5105  -2.4899
    -2.4193  -2.4060  -2.3967  -2.3495  -2.3205  -2.2510

     the Fermi energy is    -4.7437 ev

!    total energy              =  -27706.43193355 Ry
     total all-electron energy =   -549111.694372 Ry
     estimated scf accuracy    <       0.00000094 Ry
     smearing contrib. (-TS)   =      -0.00000023 Ry
     internal energy E=F+TS    =  -27706.43193332 Ry

     The total energy is F=E-TS. E is the sum of the following terms:
     one-electron contribution =  525303.79952760 Ry
     hartree contribution      = -262834.94039979 Ry
     xc contribution           =   -1610.35430068 Ry
     ewald contribution        = -271781.18345962 Ry
     DFT-D3 Dispersion         =      -4.06370675 Ry
     one-center paw contrib.   =  -16779.68959408 Ry

     convergence has been achieved in  21 iterations

     negative rho (up, down):  9.065E-04 0.000E+00

     Forces acting on atoms (cartesian axes, Ry/au):

     atom    1 type  1   force =    -0.00096439    0.00051339   -0.03514227
     atom    2 type  1   force =     0.00000439    0.00000514    0.00190662
     atom    3 type  1   force =     0.00000840    0.00002180    0.00003859
     atom    4 type  2   force =     0.00000162    0.00000056   -0.00316830
     atom    5 type  2   force =     0.00002103   -0.00000346    0.00012567
     atom    6 type  2   force =     0.00100666    0.00042443    0.00393593
     atom    7 type  2   force =     0.00000047   -0.00000165    0.00139044
     atom    8 type  2   force =    -0.00001176   -0.00004359   -0.00007707
     atom    9 type  2   force =    -0.02333950   -0.01765512    0.01960702
     atom   10 type  1   force =    -0.00159446    0.00417663    0.00344090
     atom   11 type  1   force =     0.00000500   -0.00000436    0.00189638
     atom   12 type  1   force =    -0.00005250   -0.00000625    0.00001222
     atom   13 type  2   force =     0.00000040   -0.00000084   -0.00317074
     atom   14 type  2   force =     0.00000560    0.00001477    0.00011526
     atom   15 type  2   force =    -0.00110125    0.00002976   -0.00150624
     atom   16 type  2   force =    -0.00000262    0.00000217    0.00140581
     atom   17 type  2   force =    -0.00004415    0.00000657   -0.00014068
     atom   18 type  2   force =     0.00000158   -0.00013610   -0.00265905
     atom   19 type  1   force =     0.00032744   -0.00000698    0.00054811
     atom   20 type  1   force =    -0.00000291    0.00000973    0.00190935
     atom   21 type  1   force =     0.00003900    0.00005153   -0.00003994
     atom   22 type  2   force =    -0.00000094    0.00000590   -0.00317077
     atom   23 type  2   force =     0.00001819    0.00000403    0.00010269
     atom   24 type  2   force =     0.00016861   -0.00025097   -0.00038490
     atom   25 type  2   force =    -0.00000237    0.00000115    0.00138599
     atom   26 type  2   force =    -0.00001980    0.00000496   -0.00009780
     atom   27 type  2   force =     0.00028756    0.00038724   -0.00007794
     atom   28 type  1   force =     0.00079065   -0.00328117   -0.00411359
     atom   29 type  1   force =     0.00000057    0.00000142    0.00190511
     atom   30 type  1   force =    -0.00001554   -0.00006959    0.00006257
     atom   31 type  2   force =     0.00000311   -0.00000326   -0.00316932
     atom   32 type  2   force =     0.00000994    0.00000916    0.00010689
     atom   33 type  2   force =    -0.00017760   -0.00081695   -0.00119890
     atom   34 type  2   force =    -0.00000256   -0.00000584    0.00139027
     atom   35 type  2   force =     0.00000984   -0.00002252   -0.00010141
     atom   36 type  2   force =     0.00016017    0.00104085   -0.00102884
     atom   37 type  1   force =     0.00714516   -0.00191939   -0.00217601
     atom   38 type  1   force =     0.00000352   -0.00000402    0.00190464
     atom   39 type  1   force =     0.00000481    0.00002068    0.00008205
     atom   40 type  2   force =     0.00000495   -0.00000070   -0.00316842
     atom   41 type  2   force =    -0.00001161   -0.00000609    0.00013052
     atom   42 type  2   force =    -0.00002002    0.00047983    0.00380659
     atom   43 type  2   force =     0.00000940    0.00000549    0.00138857
     atom   44 type  2   force =     0.00000807    0.00000514    0.00000506
     atom   45 type  2   force =     0.02132516   -0.01715483    0.01837492
     atom   46 type  1   force =     0.00104692    0.00297133   -0.00364077
     atom   47 type  1   force =     0.00000706   -0.00000392    0.00189242
     atom   48 type  1   force =     0.00001511   -0.00003380    0.00002097
     atom   49 type  2   force =     0.00000348   -0.00000203   -0.00316865
     atom   50 type  2   force =    -0.00000400   -0.00000690    0.00012505
     atom   51 type  2   force =     0.00044097   -0.00122069    0.00319807
     atom   52 type  2   force =     0.00000431    0.00000767    0.00138944
     atom   53 type  2   force =     0.00006886    0.00003727   -0.00005378
     atom   54 type  2   force =     0.00218058    0.04128645   -0.00164001
     atom   55 type  1   force =     0.00007299   -0.00271206    0.00092631
     atom   56 type  1   force =     0.00001168    0.00000846    0.00190377
     atom   57 type  1   force =    -0.00002594    0.00004258    0.00004015
     atom   58 type  2   force =     0.00000238    0.00000381   -0.00317088
     atom   59 type  2   force =    -0.00000202   -0.00001810    0.00011733
     atom   60 type  2   force =    -0.00030906   -0.00066223   -0.00041607
     atom   61 type  2   force =     0.00000666    0.00000100    0.00138074
     atom   62 type  2   force =     0.00003233    0.00001119   -0.00009429
     atom   63 type  2   force =     0.00008682    0.00008416    0.00023118
     atom   64 type  1   force =    -0.00104720   -0.00009362    0.00053839
     atom   65 type  1   force =     0.00000229    0.00000476    0.00190341
     atom   66 type  1   force =    -0.00000453   -0.00006161    0.00004701
     atom   67 type  2   force =     0.00000259    0.00000272   -0.00317064
     atom   68 type  2   force =    -0.00000719   -0.00001535    0.00010194
     atom   69 type  2   force =     0.00030188    0.00018732    0.00006165
     atom   70 type  2   force =     0.00000561   -0.00000359    0.00138344
     atom   71 type  2   force =     0.00001262    0.00000152   -0.00012110
     atom   72 type  2   force =     0.00021601    0.00018956    0.00072538
     atom   73 type  1   force =     0.00020559   -0.00035308    0.00041949
     atom   74 type  1   force =     0.00000019    0.00000137    0.00191185
     atom   75 type  1   force =     0.00005037    0.00001949   -0.00000386
     atom   76 type  2   force =    -0.00000075    0.00000032   -0.00317101
     atom   77 type  2   force =    -0.00000092    0.00000192    0.00008848
     atom   78 type  2   force =    -0.00055571    0.00085437   -0.00029359
     atom   79 type  2   force =     0.00000363    0.00000251    0.00139098
     atom   80 type  2   force =     0.00000861   -0.00000840   -0.00016288
     atom   81 type  2   force =     0.00033865   -0.00010222    0.00022768
     atom   82 type  1   force =    -0.00163639   -0.00004726   -0.00027623
     atom   83 type  1   force =    -0.00000199   -0.00000747    0.00189988
     atom   84 type  1   force =     0.00003619    0.00001773   -0.00001195
     atom   85 type  2   force =     0.00000416   -0.00000284   -0.00317223
     atom   86 type  2   force =    -0.00000205    0.00000527    0.00008217
     atom   87 type  2   force =     0.00179059   -0.00031123   -0.00117548
     atom   88 type  2   force =     0.00000519    0.00000570    0.00139124
     atom   89 type  2   force =    -0.00000115    0.00000766   -0.00011441
     atom   90 type  2   force =     0.00454241    0.00457345   -0.00869532
     atom   91 type  1   force =    -0.00001888    0.00009646   -0.00006686
     atom   92 type  1   force =     0.00000128    0.00000488    0.00189610
     atom   93 type  1   force =     0.00004405    0.00002564   -0.00005957
     atom   94 type  2   force =     0.00000245    0.00000214   -0.00317227
     atom   95 type  2   force =     0.00001488   -0.00000338    0.00008312
     atom   96 type  2   force =     0.00011615   -0.00009590   -0.00045813
     atom   97 type  2   force =     0.00000103   -0.00000094    0.00138097
     atom   98 type  2   force =     0.00001631    0.00002007   -0.00012683
     atom   99 type  2   force =     0.00382174    0.00024237    0.00326463
     atom  100 type  1   force =     0.00088754    0.00015841   -0.00004893
     atom  101 type  1   force =     0.00000372    0.00000076    0.00190288
     atom  102 type  1   force =     0.00000804    0.00001043   -0.00003865
     atom  103 type  2   force =     0.00000078    0.00000293   -0.00316817
     atom  104 type  2   force =     0.00000836    0.00000676    0.00009691
     atom  105 type  2   force =    -0.00009037   -0.00004933   -0.00007530
     atom  106 type  2   force =     0.00000892   -0.00000101    0.00138497
     atom  107 type  2   force =     0.00000441   -0.00000564   -0.00010765
     atom  108 type  2   force =    -0.00002585    0.00020232    0.00007203
     atom  109 type  1   force =    -0.00371360    0.00085295   -0.00101521
     atom  110 type  1   force =     0.00000227   -0.00000625    0.00190754
     atom  111 type  1   force =    -0.00004807    0.00004709   -0.00002680
     atom  112 type  2   force =    -0.00000014   -0.00000161   -0.00317101
     atom  113 type  2   force =     0.00000677   -0.00000898    0.00011074
     atom  114 type  2   force =    -0.00007170    0.00040426   -0.00027872
     atom  115 type  2   force =    -0.00000314   -0.00000334    0.00139342
     atom  116 type  2   force =     0.00000690   -0.00001197   -0.00000939
     atom  117 type  2   force =    -0.00064679   -0.00003188    0.00043641
     atom  118 type  1   force =    -0.00008983    0.00085808    0.00070386
     atom  119 type  1   force =    -0.00000179   -0.00000154    0.00189995
     atom  120 type  1   force =    -0.00000760   -0.00006647   -0.00008741
     atom  121 type  2   force =     0.00000024   -0.00000025   -0.00317255
     atom  122 type  2   force =    -0.00000818    0.00000957    0.00009729
     atom  123 type  2   force =     0.00016249   -0.00029797    0.00022739
     atom  124 type  2   force =     0.00000165    0.00000319    0.00140581
     atom  125 type  2   force =    -0.00004303    0.00001312   -0.00006677
     atom  126 type  2   force =     0.00014839   -0.00135571    0.00043861
     atom  127 type  1   force =     0.00023264   -0.00051762    0.00062323
     atom  128 type  1   force =     0.00000327   -0.00000116    0.00189676
     atom  129 type  1   force =    -0.00004424    0.00003663   -0.00006818
     atom  130 type  2   force =     0.00000087   -0.00000084   -0.00317403
     atom  131 type  2   force =    -0.00000080   -0.00000412    0.00009971
     atom  132 type  2   force =    -0.00037799    0.00037557   -0.00043691
     atom  133 type  2   force =     0.00000133   -0.00000812    0.00139051
     atom  134 type  2   force =    -0.00001378    0.00000471   -0.00011574
     atom  135 type  2   force =    -0.00050059    0.00042657   -0.00039953
     atom  136 type  1   force =    -0.00075561   -0.00444071   -0.00378200
     atom  137 type  1   force =     0.00000151   -0.00000120    0.00190461
     atom  138 type  1   force =     0.00001600   -0.00005712   -0.00001921
     atom  139 type  2   force =    -0.00000095   -0.00000046   -0.00316954
     atom  140 type  2   force =     0.00000728   -0.00000343    0.00009591
     atom  141 type  2   force =     0.00004331   -0.00023254    0.00005732
     atom  142 type  2   force =    -0.00000393   -0.00000796    0.00138102
     atom  143 type  2   force =    -0.00001002   -0.00004450   -0.00009025
     atom  144 type  2   force =    -0.00050107   -0.00024812    0.00081799
     atom  145 type  3   force =    -0.01927394   -0.01748348    0.01287448
     atom  146 type  4   force =    -0.00236401   -0.00121023   -0.00086724
     atom  147 type  3   force =     0.01112616    0.01190705   -0.00634944

[...]
     atom   72 type  2   force =    -0.00005206   -0.00003568    0.00010602
     atom   73 type  1   force =    -0.00008603    0.00004539   -0.00018121
     atom   74 type  1   force =     0.00000312    0.00000198    0.00190531
     atom   75 type  1   force =     0.00000074    0.00000382    0.00000518
     atom   76 type  2   force =     0.00000321    0.00000147   -0.00328028
     atom   77 type  2   force =    -0.00001251    0.00001997   -0.00000687
     atom   78 type  2   force =     0.00010186   -0.00004540   -0.00027961
     atom   79 type  2   force =    -0.00000127    0.00000230    0.00151055
     atom   80 type  2   force =    -0.00000423    0.00001515    0.00002071
     atom   81 type  2   force =    -0.00005155    0.00010156   -0.00014943
     atom   82 type  1   force =    -0.00004519   -0.00005486    0.00011025
     atom   83 type  1   force =     0.00000185    0.00000182    0.00189954
     atom   84 type  1   force =     0.00000925   -0.00000673   -0.00003029
     atom   85 type  2   force =     0.00000299    0.00000139   -0.00328033
     atom   86 type  2   force =     0.00001928   -0.00001679   -0.00001652
     atom   87 type  2   force =     0.00044089    0.00016495   -0.00062156
     atom   88 type  2   force =    -0.00000783    0.00000410    0.00150208
     atom   89 type  2   force =     0.00002144    0.00000568   -0.00001030
     atom   90 type  2   force =    -0.00045572    0.00016152    0.00015810
     atom   91 type  1   force =     0.00011250    0.00003389   -0.00030554
     atom   92 type  1   force =     0.00000248    0.00000134    0.00189811
     atom   93 type  1   force =    -0.00001436   -0.00001514    0.00001420
     atom   94 type  2   force =     0.00000286    0.00000187   -0.00328041
     atom   95 type  2   force =    -0.00002086    0.00001581   -0.00000243
     atom   96 type  2   force =    -0.00013737    0.00030324   -0.00023575
     atom   97 type  2   force =    -0.00000291   -0.00000330    0.00150289
     atom   98 type  2   force =    -0.00000218   -0.00000294   -0.00001982
     atom   99 type  2   force =     0.00040766   -0.00028665   -0.00031303
     atom  100 type  1   force =    -0.00008041    0.00005479   -0.00012634
     atom  101 type  1   force =     0.00000393    0.00000054    0.00190182
     atom  102 type  1   force =     0.00001307    0.00002330   -0.00002865
     atom  103 type  2   force =     0.00000307    0.00000201   -0.00327993
     atom  104 type  2   force =     0.00000819   -0.00002944    0.00001539
     atom  105 type  2   force =    -0.00028385    0.00009735    0.00029027
     atom  106 type  2   force =     0.00000522   -0.00000487    0.00151124
     atom  107 type  2   force =     0.00000948    0.00002066   -0.00000969
     atom  108 type  2   force =    -0.00002642    0.00014486   -0.00004069
     atom  109 type  1   force =     0.00006534   -0.00000549    0.00006947
     atom  110 type  1   force =     0.00000377    0.00000186    0.00190038
     atom  111 type  1   force =     0.00000509   -0.00000904   -0.00001953
     atom  112 type  2   force =     0.00000264    0.00000141   -0.00327984
     atom  113 type  2   force =     0.00002543    0.00002383   -0.00002636
     atom  114 type  2   force =    -0.00011674    0.00009656   -0.00012171
     atom  115 type  2   force =     0.00000674    0.00000207    0.00150570
     atom  116 type  2   force =     0.00001028    0.00001118   -0.00001038
     atom  117 type  2   force =    -0.00010732    0.00008512   -0.00021422
     atom  118 type  1   force =     0.00014555   -0.00007622    0.00022440
     atom  119 type  1   force =     0.00000273    0.00000211    0.00190037
     atom  120 type  1   force =     0.00000571    0.00001195   -0.00003106
     atom  121 type  2   force =     0.00000297    0.00000137   -0.00328050
     atom  122 type  2   force =     0.00002373    0.00000482   -0.00001459
     atom  123 type  2   force =     0.00001062    0.00010431    0.00009158
     atom  124 type  2   force =     0.00000438    0.00000882    0.00150096
     atom  125 type  2   force =    -0.00001133   -0.00001582   -0.00004398
     atom  126 type  2   force =     0.00027225   -0.00016935    0.00004602
     atom  127 type  1   force =     0.00014165   -0.00005882   -0.00012440
     atom  128 type  1   force =     0.00000293    0.00000141    0.00189839
     atom  129 type  1   force =    -0.00000093    0.00000904   -0.00000198
     atom  130 type  2   force =     0.00000286    0.00000156   -0.00327990
     atom  131 type  2   force =     0.00000500    0.00002251    0.00001876
     atom  132 type  2   force =     0.00014258    0.00008748   -0.00000775
     atom  133 type  2   force =     0.00000356   -0.00000039    0.00150018
     atom  134 type  2   force =     0.00000669    0.00000184    0.00002380
     atom  135 type  2   force =     0.00000640    0.00008635   -0.00003361
     atom  136 type  1   force =     0.00002273    0.00006165    0.00001208
     atom  137 type  1   force =     0.00000252    0.00000106    0.00189849
     atom  138 type  1   force =     0.00001573    0.00001930   -0.00002768
     atom  139 type  2   force =     0.00000272    0.00000192   -0.00328010
     atom  140 type  2   force =    -0.00000112   -0.00000292   -0.00001732
     atom  141 type  2   force =    -0.00001832   -0.00014772   -0.00011389
     atom  142 type  2   force =     0.00000830   -0.00000533    0.00149098
     atom  143 type  2   force =    -0.00001266    0.00001455   -0.00000974
     atom  144 type  2   force =    -0.00014233   -0.00003743   -0.00022618
     atom  145 type  3   force =     0.00062702   -0.00022136    0.00018808
     atom  146 type  4   force =    -0.00002496    0.00002715    0.00025510
     atom  147 type  3   force =    -0.00097302   -0.00040773   -0.00062049

     Total force =     0.002855     Total SCF correction =     0.000365
     SCF correction compared to forces is large: reduce conv_thr to get better values
     Energy error            =      1.5E-05 Ry
     Gradient error          =      9.7E-04 Ry/Bohr

     bfgs converged in  22 scf cycles and  21 bfgs steps
     (criteria: energy <  1.0E-04 Ry, force <  1.0E-03 Ry/Bohr)

     End of BFGS Geometry Optimization

     Final energy             =  -27706.4579937855 Ry

     File ./outdir/pwscf.bfgs deleted, as requested
Begin final coordinates

ATOMIC_POSITIONS (angstrom)
Mo               1.5767657692        2.7294719462        6.1243538932
Mo               1.5769197498        0.9104407117       -6.0872367793    0   0   0
Mo               0.0002293466        1.8209098687       -0.0000926889
S                0.0000044503        0.0000077495       -7.6506323570    0   0   0
S                1.5770844508        0.9106894055       -1.5656871816
S                0.0186727177        1.8319436444        4.5645357654
S                0.0000053241        0.0000068460       -4.5222282367    0   0   0
S                1.5764583361        0.9098532716        1.5669224969
S               -0.0654253594        1.7777037519        7.7507800765
Mo              -0.0467256705        5.4901536419        6.0631866523
Mo               0.0000011799        3.6417399547       -6.0872367793    0   0   0
Mo              -1.5770423260        4.5519086459        0.0001817532
S               -1.5769141197        2.7313069925       -7.6506323570    0   0   0
S                0.0002292226        3.6419223796       -1.5649717961
S               -1.5965488352        4.5421853803        4.5050296844
S               -1.5769132459        2.7313060890       -4.5222282367    0   0   0
S               -0.0001842967        3.6413893690        1.5681915493
S               -1.5885799090        4.5671330040        7.6534305297
Mo              -1.5787352209        8.2004526776        6.0548332431
Mo              -1.5769173901        6.3730391977       -6.0872367793    0   0   0
Mo              -3.1538655891        7.2832645303       -0.0009815986
S               -3.1538326896        5.4626062355       -7.6506323570    0   0   0
S               -1.5765078672        6.3725609318       -1.5656817884
S               -3.1649462577        7.2818050124        4.5017415007
S               -3.1538318159        5.4626053320       -4.5222282367    0   0   0
S               -1.5772138016        6.3731764542        1.5666446397
S               -3.1491307894        7.2925929248        7.6367708779
Mo               3.1582972528       -0.0224252035        6.0674931455
Mo              -3.1538359601        9.1043384407       -6.0872367793    0   0   0
Mo              -4.7309037133       10.0145678159       -0.0008695078
S               -4.7307512596        8.1939054785       -7.6506323570    0   0   0
S               -3.1537265426        9.1043519266       -1.5662932991
S               -4.7448707728       10.0182380529        4.5100147633
S               -4.7307503859        8.1939045750       -4.5222282367    0   0   0
S               -3.1540546114        9.1041815256        1.5659843123
S               -4.7160915173       10.0160110862        7.6548354657
Mo               4.7555158647        2.6816089618        6.0624552383
Mo               4.7307503218        0.9104407117       -6.0872367793    0   0   0
Mo               3.1535767072        1.8211244886        0.0003651121
S                3.1538350223        0.0000077495       -7.6506323570    0   0   0
S                4.7304618576        0.9108747982       -1.5655837283
S                3.1286684540        1.8195270418        4.5331172651
S                3.1538358961        0.0000068460       -4.5222282367    0   0   0
S                4.7306656566        0.9108589794        1.5670108419
S                3.2568105461        1.7363578120        7.6863193557
Mo               3.1460550698        5.4902726250        6.0781612825
Mo               3.1538317519        3.6417399547       -6.0872367793    0   0   0
Mo               1.5769976527        4.5519608328        0.0009398738
S                1.5769164523        2.7313069925       -7.6506323570    0   0   0
S                3.1533180354        3.6416912071       -1.5650548660
S                1.5710817961        4.5392346222        4.5550468322
S                1.5769173261        2.7313060890       -4.5222282367    0   0   0
S                3.1543102243        3.6420257601        1.5685360265
S                1.4828174335        4.6825682671        7.6694826269
Mo               1.5783614616        8.2006384499        6.0796872891
Mo               1.5769131819        6.3730391977       -6.0872367793    0   0   0
Mo               0.0003356092        7.2833313090       -0.0001355389
S               -0.0000021176        5.4626062355       -7.6506323570    0   0   0
S                1.5770385261        6.3724139045       -1.5651940715
S                0.0013340138        7.2983202442        4.4881750737
S               -0.0000012439        5.4626053320       -4.5222282367    0   0   0
S                1.5776825239        6.3729358613        1.5678783062
S               -0.0198885208        7.3085723853        7.6321550224
Mo               6.3180388422       -0.0080541051        6.0612883495
Mo              -0.0000053881        9.1043384407       -6.0872367793    0   0   0
Mo              -1.5768743532       10.0150089324       -0.0008041403
S               -1.5769206876        8.1939054785       -7.6506323570    0   0   0
S                0.0000322212        9.1040392047       -1.5663562677
S               -1.5741735769       10.0167535070        4.4876629494
S               -1.5769198139        8.1939045750       -4.5222282367    0   0   0
S                0.0006825611        9.1050974342        1.5653082607
S               -1.5642892536       10.0026895233        7.6311981911
Mo               7.8941340479        2.7258517163        6.0833533032
Mo               7.8845808939        0.9104407117       -6.0872367793    0   0   0
Mo               6.3080188872        1.8207370272       -0.0004984763
S                6.3076655943        0.0000077495       -7.6506323570    0   0   0
S                7.8850066411        0.9105317020       -1.5665319106
S                6.3334708409        1.8102683902        4.4889515992
S                6.3076664681        0.0000068460       -4.5222282367    0   0   0
S                7.8858630819        0.9097099736        1.5654206834
S                6.3307623785        1.7948700793        7.6380534150
Mo               6.3258791995        5.4642387936        6.1022238316
Mo               6.3076623239        3.6417399547       -6.0872367793    0   0   0
Mo               4.7305705416        4.5520145224       -0.0002432192
S                4.7307470244        2.7313069925       -7.6506323570    0   0   0
S                6.3071065491        3.6413505606       -1.5661886859
S                4.7389688551        4.5522402326        4.5463277299
S                4.7307478981        2.7313060890       -4.5222282367    0   0   0
S                6.3077385024        3.6418955370        1.5665137467
S                4.7287478447        4.4555514551        7.6205188854
Mo               4.7288683006        8.2163897353        6.0957467895
Mo               4.7307437539        6.3730391977       -6.0872367793    0   0   0
Mo               3.1543076809        7.2831104317       -0.0004598121
S                3.1538284544        5.4626062355       -7.6506323570    0   0   0
S                4.7304921760        6.3723781774       -1.5663712040
S                3.1634918566        7.2930867894        4.5254246311
S                3.1538293281        5.4626053320       -4.5222282367    0   0   0
S                4.7312879392        6.3728323742        1.5669094563
S                3.1598139888        7.3416488321        7.7060194683
Mo               9.4669437928        0.0034149669        6.0849526213
Mo               3.1538251839        9.1043384407       -6.0872367793    0   0   0
Mo               1.5776605110       10.0145547782       -0.0017142252
S                1.5769098844        8.1939054785       -7.6506323570    0   0   0
S                3.1546477488        9.1038789345       -1.5664660824
S                1.5949745342       10.0115432080        4.5052310257
S                1.5769107581        8.1939045750       -4.5222282367    0   0   0
S                3.1546110916        9.1041711366        1.5659939204
S                1.5742426478       10.0174622714        7.6456378513
Mo              -1.5799619436        2.7361851161        6.1040841414
Mo              11.0384114659        0.9104407117       -6.0872367793    0   0   0
Mo               9.4620654095        1.8207440367       -0.0008720651
S                9.4614961663        0.0000077495       -7.6506323570    0   0   0
S               11.0391032434        0.9104637176       -1.5659462574
S                9.4768283746        1.8249894541        4.5208238670
S                9.4614970401        0.0000068460       -4.5222282367    0   0   0
S               11.0392430970        0.9105435546        1.5673046807
S                9.4560554119        1.8158930193        7.6619296092
Mo              -3.1554492119        5.4632951558        6.0813082099
Mo               9.4614928959        3.6417399547       -6.0872367793    0   0   0
Mo               7.8842533420        4.5519303324       -0.0014259607
S                7.8845775964        2.7313069925       -7.6506323570    0   0   0
S                9.4618543961        3.6416608579       -1.5661922598
S                7.8768751882        4.5565314598        4.5314890118
S                7.8845784701        2.7313060890       -4.5222282367    0   0   0
S                9.4601593726        3.6416203724        1.5661955303
S                7.9353134607        4.5256017183        7.6994724778
Mo              -4.7263383474        8.2063494124        6.0794441243
Mo               7.8845743259        6.3730391977       -6.0872367793    0   0   0
Mo               6.3074844354        7.2830607030       -0.0014945516
S                6.3076590264        5.4626062355       -7.6506323570    0   0   0
S                7.8847426600        6.3728192638       -1.5668570656
S                6.3030100734        7.2827720452        4.5379521712
S                6.3076599001        5.4626053320       -4.5222282367    0   0   0
S                7.8839674172        6.3727261146        1.5657382116
S                6.3137480094        7.3533776741        7.6800759041
Mo               0.0006997170       -0.0023345308        6.1042887073
Mo               6.3076557559        9.1043384407       -6.0872367793    0   0   0
Mo               4.7313009184       10.0146966880       -0.0006420962
S                4.7307404564        8.1939054785       -7.6506323570    0   0   0
S                6.3077345621        9.1042812288       -1.5665747295
S                4.7413515204       10.0256158737        4.5216233721
S                4.7307413301        8.1939045750       -4.5222282367    0   0   0
S                6.3078307895        9.1031310146        1.5661333511
S                4.7230390208       10.0272432575        7.6689776946
Pt               3.1998541079        5.2832256637        9.0956434260
Pd               6.1038102236        5.4444189416        9.0956318652
Pt               1.6838635770        2.8576333241        8.9600165982
End final coordinates



     Writing all to output data dir ./outdir/pwscf.save/ :
     XML data file, charge density, pseudopotentials, collected wavefunctions
 
     init_run     :     97.02s CPU     99.14s WALL (       1 calls)
     electrons    : 106994.30s CPU 108604.50s WALL (      22 calls)
     update_pot   :     33.51s CPU     34.39s WALL (      21 calls)
     forces       :   1583.29s CPU   1617.24s WALL (      22 calls)
     force_dftd3  :      8.38s CPU      8.78s WALL (      22 calls)

     Called by init_run:
     wfcinit      :     78.66s CPU     79.65s WALL (       1 calls)
     potinit      :      1.38s CPU      1.47s WALL (       1 calls)
     hinit0       :      9.25s CPU      9.31s WALL (       1 calls)

     Called by electrons:
     c_bands      :  93153.06s CPU  94107.38s WALL (     318 calls)
     sum_band     :  11819.42s CPU  12164.77s WALL (     318 calls)
     v_of_rho     :     92.69s CPU    103.87s WALL (     325 calls)
     newd         :   1631.27s CPU   1933.96s WALL (     325 calls)
     PAW_pot      :    354.56s CPU    356.95s WALL (     346 calls)
     mix_rho      :     25.53s CPU     28.93s WALL (     318 calls)
     energy_dftd3 :      4.71s CPU      4.73s WALL (      22 calls)

     Called by c_bands:
     init_us_2    :    445.55s CPU    447.59s WALL (    2720 calls)
     init_us_2:cp :    445.53s CPU    447.58s WALL (    2720 calls)
     cegterg      :  91274.69s CPU  92221.20s WALL (    1293 calls)

     Called by *egterg:
     cdiaghg      :   4867.73s CPU   5081.47s WALL (   15486 calls)
     h_psi        :  47457.95s CPU  47758.58s WALL (   15643 calls)
     s_psi        :  10063.45s CPU  10104.62s WALL (   15643 calls)
     g_psi        :    104.69s CPU    105.13s WALL (   14346 calls)

     Called by h_psi:
     h_psi:calbec :   9656.16s CPU   9688.91s WALL (   15643 calls)
     vloc_psi     :  27458.18s CPU  27605.05s WALL (   15643 calls)
     add_vuspsi   :  10114.62s CPU  10159.67s WALL (   15643 calls)

     General routines
     calbec       :  13661.14s CPU  13706.91s WALL (   17351 calls)
     fft          :     67.93s CPU     77.92s WALL (    4459 calls)
     ffts         :      4.11s CPU      4.24s WALL (     643 calls)
     fftw         :  20542.81s CPU  20649.95s WALL ( 7166596 calls)
     interpolate  :      7.66s CPU      8.42s WALL (     325 calls)
 
     Parallel routines
 
     PWSCF        :   1d 6h20m CPU   1d 6h49m WALL

 
   This run was terminated on:   3:28:28   1Apr2024            

=------------------------------------------------------------------------------=
   JOB DONE.
=------------------------------------------------------------------------------=
