
     Program PWSCF v.7.3 starts on 14Mar2024 at 16:59:31 

     This program is part of the open-source Quantum ESPRESSO suite
     for quantum simulation of materials; please cite
         "P. Giannozzi et al., J. Phys.:Condens. Matter 21 395502 (2009);
         "P. Giannozzi et al., J. Phys.:Condens. Matter 29 465901 (2017);
         "P. Giannozzi et al., J. Chem. Phys. 152 154105 (2020);
          URL http://www.quantum-espresso.org", 
     in publications or presentations arising from this work. More details at
     http://www.quantum-espresso.org/quote

     Parallel version (MPI & OpenMP), running on      36 processor cores
     Number of MPI processes:                36
     Threads/MPI process:                     1

     MPI processes distributed on     1 nodes
     555129 MiB available memory on the printing compute node when the environment starts
 
     Waiting for input...
     Reading input from standard input
Warning: card &CELL ignored
Warning: card / ignored

     Current dimensions of program PWSCF are:
     Max number of different atomic species (ntypx) = 10
     Max number of k-points (npk) =  40000
     Max angular momentum in pseudopotentials (lmaxx) =  4
     file Mo.pbe-spn-kjpaw_psl.1.0.0.UPF: wavefunction(s)  4S 4D renormalized
     file S.pbe-n-kjpaw_psl.1.0.0.UPF: wavefunction(s)  3S 3P renormalized
     file Pt.pbe-spfn-kjpaw_psl.1.0.0.UPF: wavefunction(s)  5P 4F renormalized
     file Pd.pbe-spn-kjpaw_psl.1.0.0.UPF: wavefunction(s)  4S 5S 4D renormalized
 
     R & G space division:  proc/nbgrp/npool/nimage =      36
     Subspace diagonalization in iterative solution of the eigenvalue problem:
     one sub-group per band group will be used
     scalapack distributed-memory algorithm (size of sub-group:  6*  6 procs)

 
     Parallelization info
     --------------------
     sticks:   dense  smooth     PW     G-vecs:    dense   smooth      PW
     Min         585     334     89               198743    85850   11735
     Max         586     335     90               198750    85861   11748
     Sum       21073   12049   3205              7154885  3090769  422587
 
     Using Slab Decomposition
 


     bravais-lattice index     =            0
     lattice parameter (alat)  =      23.8199  a.u.
     unit-cell volume          =   33861.0370 (a.u.)^3
     number of atoms/cell      =          194
     number of atomic types    =            4
     number of electrons       =      1714.00
     number of Kohn-Sham states=         1028
     kinetic-energy cutoff     =      77.0000  Ry
     charge density cutoff     =     539.0000  Ry
     scf convergence threshold =      1.0E-06
     mixing beta               =       0.2000
     number of iterations used =            8  plain     mixing
     energy convergence thresh.=      1.0E-04
     force convergence thresh. =      1.0E-03
     Exchange-correlation= SLA  PW   PBX  PBC
                           (   1   4   3   4   0   0   0)
     nstep                     =         1000


     Effective Screening Medium Method
     =================================
     Boundary Conditions: Vacuum-Slab-Vacuum
     total charge in unit cell        =   0.0000
     grid points for fit at edges     =        4 
 

     celldm(1)=  23.819920  celldm(2)=   0.000000  celldm(3)=   0.000000
     celldm(4)=   0.000000  celldm(5)=   0.000000  celldm(6)=   0.000000

     crystal axes: (cart. coord. in units of alat)
               a(1) = (   1.000000   0.000000   0.000000 )  
               a(2) = (  -0.499999   0.866026   0.000000 )  
               a(3) = (   0.000000   0.000000   2.893000 )  

     reciprocal axes: (cart. coord. in units 2 pi/alat)
               b(1) = (  1.000000  0.577349  0.000000 )  
               b(2) = (  0.000000  1.154700  0.000000 )  
               b(3) = (  0.000000  0.000000  0.345662 )  


     PseudoPot. # 1 for Mo read from file:
     ./pseudo/Mo.pbe-spn-kjpaw_psl.1.0.0.UPF
     MD5 check sum: 317bf72632116215fd98f72de1686f13
     Pseudo is Projector augmented-wave + core cor, Zval = 14.0
     Generated using 'atomic' code by A. Dal Corso  v.7.2
     Shape of augmentation charge: PSQ
     Using radial grid of 1229 points,  6 beta functions with: 
                l(1) =   0
                l(2) =   0
                l(3) =   1
                l(4) =   1
                l(5) =   2
                l(6) =   2
     Q(r) pseudized with 0 coefficients 


     PseudoPot. # 2 for S  read from file:
     ./pseudo/S.pbe-n-kjpaw_psl.1.0.0.UPF
     MD5 check sum: 8b7b5302570d38d5e87fed6a1065abda
     Pseudo is Projector augmented-wave + core cor, Zval =  6.0
     Generated using 'atomic' code by A. Dal Corso  v.7.2
     Shape of augmentation charge: PSQ
     Using radial grid of 1151 points,  6 beta functions with: 
                l(1) =   0
                l(2) =   0
                l(3) =   1
                l(4) =   1
                l(5) =   2
                l(6) =   2
     Q(r) pseudized with 0 coefficients 


     PseudoPot. # 3 for Pt read from file:
     ./pseudo/Pt.pbe-spfn-kjpaw_psl.1.0.0.UPF
     MD5 check sum: 620096ebf4e6ebacc94de60fd67efcb5
     Pseudo is Projector augmented-wave + core cor, Zval = 32.0
     Generated using 'atomic' code by A. Dal Corso  v.7.2
     Shape of augmentation charge: PSQ
     Using radial grid of 1277 points,  8 beta functions with: 
                l(1) =   0
                l(2) =   0
                l(3) =   1
                l(4) =   1
                l(5) =   2
                l(6) =   2
                l(7) =   3
                l(8) =   3
     Q(r) pseudized with 0 coefficients 


     PseudoPot. # 4 for Pd read from file:
     ./pseudo/Pd.pbe-spn-kjpaw_psl.1.0.0.UPF
     MD5 check sum: a60571a671f2502b8a6a4569d20a6edb
     Pseudo is Projector augmented-wave + core cor, Zval = 18.0
     Generated using 'atomic' code by A. Dal Corso  v.7.2
     Shape of augmentation charge: PSQ
     Using radial grid of 1235 points,  6 beta functions with: 
                l(1) =   0
                l(2) =   0
                l(3) =   1
                l(4) =   1
                l(5) =   2
                l(6) =   2
     Q(r) pseudized with 0 coefficients 


     atomic species   valence    mass     pseudopotential
     Mo               14.00    95.95000     Mo( 1.00)
     S                 6.00    32.06000     S ( 1.00)
     Pt               32.00   195.08400     Pt( 1.00)
     Pd               18.00   106.42000     Pd( 1.00)

     No symmetry found



   Cartesian axes

     site n.     atom                  positions (alat units)
         1        Mo     tau(   1) = (   0.0000010   0.1443372  -0.7272732  )
         2        Mo     tau(   2) = (   0.1249995   0.0721706  -0.2424038  )
         3        S      tau(   3) = (   0.0000015   0.1443386  -0.3667807  )
         4        S      tau(   4) = (   0.1250010   0.0721682  -0.6030489  )
         5        S      tau(   5) = (   0.1250010   0.0721683  -0.8514963  )
         6        S      tau(   6) = (   0.0000015   0.1443389  -0.1180260  )
         7        Mo     tau(   7) = (   0.0000014   0.1443616   0.2424356  )
         8        Mo     tau(   8) = (   0.1250042   0.0720311   0.7263989  )
         9        S      tau(   9) = (   0.0000639   0.1447004   0.6020022  )
        10        S      tau(  10) = (   0.1250030   0.0721650   0.3667578  )
        11        S      tau(  11) = (   0.1250031   0.0721991   0.1180453  )
        12        S      tau(  12) = (  -0.0005532   0.1426765   0.8513101  )
        13        Mo     tau(  13) = (  -0.1249989   0.3608437  -0.7272732  )
        14        Mo     tau(  14) = (   0.0000030   0.2886752  -0.2424042  )
        15        S      tau(  15) = (  -0.1249977   0.3608450  -0.3667802  )
        16        S      tau(  16) = (   0.0000012   0.2886747  -0.6030489  )
        17        S      tau(  17) = (   0.0000012   0.2886748  -0.8514963  )
        18        S      tau(  18) = (  -0.1249977   0.3608454  -0.1180274  )
        19        Mo     tau(  19) = (  -0.1249758   0.3608563   0.2424461  )
        20        Mo     tau(  20) = (  -0.0009250   0.2875651   0.7279418  )
        21        S      tau(  21) = (  -0.1248723   0.3609173   0.6030853  )
        22        S      tau(  22) = (   0.0000474   0.2887247   0.3668317  )
        23        S      tau(  23) = (   0.0000000   0.2886879   0.1180554  )
        24        S      tau(  24) = (  -0.1255989   0.3604976   0.8519229  )
        25        Mo     tau(  25) = (  -0.2499987   0.5773502  -0.7272732  )
        26        Mo     tau(  26) = (  -0.1249977   0.5051839  -0.2424055  )
        27        S      tau(  27) = (  -0.2499981   0.5773518  -0.3667809  )
        28        S      tau(  28) = (  -0.1249986   0.5051812  -0.6030489  )
        29        S      tau(  29) = (  -0.1249986   0.5051813  -0.8514963  )
        30        S      tau(  30) = (  -0.2499979   0.5773512  -0.1180266  )
        31        Mo     tau(  31) = (  -0.2499765   0.5773372   0.2424355  )
        32        Mo     tau(  32) = (  -0.1264232   0.5049348   0.7279418  )
        33        S      tau(  33) = (  -0.2496528   0.5772237   0.6020023  )
        34        S      tau(  34) = (  -0.1249318   0.5051954   0.3668318  )
        35        S      tau(  35) = (  -0.1249873   0.5051727   0.1180553  )
        36        S      tau(  36) = (  -0.2517142   0.5777014   0.8513102  )
        37        Mo     tau(  37) = (  -0.3749985   0.7938567  -0.7272732  )
        38        Mo     tau(  38) = (  -0.2500001   0.7216874  -0.2424031  )
        39        S      tau(  39) = (  -0.3749980   0.7938584  -0.3667800  )
        40        S      tau(  40) = (  -0.2499984   0.7216877  -0.6030489  )
        41        S      tau(  41) = (  -0.2499984   0.7216878  -0.8514963  )
        42        S      tau(  42) = (  -0.3749982   0.7938585  -0.1180264  )
        43        Mo     tau(  43) = (  -0.3749961   0.7938572   0.2423820  )
        44        Mo     tau(  44) = (  -0.2501160   0.7217599   0.7263989  )
        45        S      tau(  45) = (  -0.3749948   0.7938592   0.6019084  )
        46        S      tau(  46) = (  -0.2499995   0.7216903   0.3667578  )
        47        S      tau(  47) = (  -0.2499699   0.7216732   0.1180452  )
        48        S      tau(  48) = (  -0.3749951   0.7938590   0.8508262  )
        49        Mo     tau(  49) = (   0.2500010   0.1443372  -0.7272732  )
        50        Mo     tau(  50) = (   0.3750034   0.0721723  -0.2424032  )
        51        S      tau(  51) = (   0.2500017   0.1443391  -0.3667788  )
        52        S      tau(  52) = (   0.3750010   0.0721682  -0.6030489  )
        53        S      tau(  53) = (   0.3750010   0.0721683  -0.8514963  )
        54        S      tau(  54) = (   0.2500016   0.1443391  -0.1180271  )
        55        Mo     tau(  55) = (   0.2500050   0.1443618   0.2424356  )
        56        Mo     tau(  56) = (   0.3749291   0.0721273   0.7261578  )
        57        S      tau(  57) = (   0.2499446   0.1447002   0.6020022  )
        58        S      tau(  58) = (   0.3750312   0.0721852   0.3667808  )
        59        S      tau(  59) = (   0.3749943   0.0721639   0.1180502  )
        60        S      tau(  60) = (   0.2505615   0.1426764   0.8513103  )
        61        Mo     tau(  61) = (   0.1250012   0.3608437  -0.7272732  )
        62        Mo     tau(  62) = (   0.2500029   0.2886782  -0.2424031  )
        63        S      tau(  63) = (   0.1250024   0.3608455  -0.3667794  )
        64        S      tau(  64) = (   0.2500012   0.2886747  -0.6030489  )
        65        S      tau(  65) = (   0.2500012   0.2886748  -0.8514963  )
        66        S      tau(  66) = (   0.1250021   0.3608455  -0.1180270  )
        67        Mo     tau(  67) = (   0.1250036   0.3608788   0.2424134  )
        68        Mo     tau(  68) = (   0.2509342   0.2875650   0.7279417  )
        69        S      tau(  69) = (   0.1250047   0.3631022   0.6070003  )
        70        S      tau(  70) = (   0.2499595   0.2887248   0.3668321  )
        71        S      tau(  71) = (   0.2500069   0.2886879   0.1180551  )
        72        S      tau(  72) = (   0.1250048   0.3485809   0.8580653  )
        73        Mo     tau(  73) = (   0.0000014   0.5773502  -0.7272732  )
        74        Mo     tau(  74) = (   0.1250045   0.5051840  -0.2424036  )
        75        S      tau(  75) = (   0.0000030   0.5773520  -0.3667799  )
        76        S      tau(  76) = (   0.1250014   0.5051812  -0.6030489  )
        77        S      tau(  77) = (   0.1250014   0.5051813  -0.8514963  )
        78        S      tau(  78) = (   0.0000026   0.5773517  -0.1180274  )
        79        Mo     tau(  79) = (   0.0000336   0.5773337   0.2424134  )
        80        Mo     tau(  80) = (   0.1250049   0.5051837   0.7323431  )
        81        S      tau(  81) = (   0.0019589   0.5762246   0.6070004  )
        82        S      tau(  82) = (   0.1250038   0.5051820   0.3668453  )
        83        S      tau(  83) = (   0.1250038   0.5051819   0.1180162  )
        84        S      tau(  84) = (  -0.0106172   0.5834855   0.8580649  )
        85        Mo     tau(  85) = (  -0.1249984   0.7938567  -0.7272732  )
        86        Mo     tau(  86) = (   0.0000069   0.7216896  -0.2424039  )
        87        S      tau(  87) = (  -0.1249975   0.7938582  -0.3667782  )
        88        S      tau(  88) = (   0.0000016   0.7216877  -0.6030489  )
        89        S      tau(  89) = (   0.0000016   0.7216878  -0.8514963  )
        90        S      tau(  90) = (  -0.1249973   0.7938582  -0.1180279  )
        91        Mo     tau(  91) = (  -0.1249742   0.7938470   0.2424356  )
        92        Mo     tau(  92) = (  -0.0004933   0.7230516   0.7279416  )
        93        S      tau(  93) = (  -0.1247124   0.7936270   0.6020023  )
        94        S      tau(  94) = (   0.0000246   0.7216257   0.3668322  )
        95        S      tau(  95) = (   0.0000165   0.7216852   0.1180552  )
        96        S      tau(  96) = (  -0.1261568   0.7951731   0.8513104  )
        97        Mo     tau(  97) = (   0.5000010   0.1443372  -0.7272732  )
        98        Mo     tau(  98) = (   0.6250001   0.0721662  -0.2424040  )
        99        S      tau(  99) = (   0.5000017   0.1443386  -0.3667801  )
       100        S      tau( 100) = (   0.6250010   0.0721682  -0.6030489  )
       101        S      tau( 101) = (   0.6250010   0.0721683  -0.8514963  )
       102        S      tau( 102) = (   0.5000020   0.1443388  -0.1180261  )
       103        Mo     tau( 103) = (   0.5000076   0.1443402   0.2423934  )
       104        Mo     tau( 104) = (   0.6250040   0.0723531   0.7270557  )
       105        S      tau( 105) = (   0.5002419   0.1444767   0.6022126  )
       106        S      tau( 106) = (   0.6250031   0.0721699   0.3667634  )
       107        S      tau( 107) = (   0.6250031   0.0721381   0.1180360  )
       108        S      tau( 108) = (   0.4998195   0.1442328   0.8511552  )
       109        Mo     tau( 109) = (   0.3750012   0.3608437  -0.7272732  )
       110        Mo     tau( 110) = (   0.4999991   0.2886761  -0.2424038  )
       111        S      tau( 111) = (   0.3750012   0.3608452  -0.3667804  )
       112        S      tau( 112) = (   0.5000012   0.2886747  -0.6030489  )
       113        S      tau( 113) = (   0.5000012   0.2886748  -0.8514963  )
       114        S      tau( 114) = (   0.3750014   0.3608455  -0.1180261  )
       115        Mo     tau( 115) = (   0.3749823   0.3608562   0.2424462  )
       116        Mo     tau( 116) = (   0.5001624   0.2885857   0.7270558  )
       117        S      tau( 117) = (   0.3748813   0.3609171   0.6030850  )
       118        S      tau( 118) = (   0.5000041   0.2886750   0.3667632  )
       119        S      tau( 119) = (   0.4999767   0.2886908   0.1180361  )
       120        S      tau( 120) = (   0.3756080   0.3604978   0.8519227  )
       121        Mo     tau( 121) = (   0.2500014   0.5773502  -0.7272732  )
       122        Mo     tau( 122) = (   0.3749983   0.5051825  -0.2424043  )
       123        S      tau( 123) = (   0.2500017   0.5773519  -0.3667810  )
       124        S      tau( 124) = (   0.3750014   0.5051812  -0.6030489  )
       125        S      tau( 125) = (   0.3750014   0.5051813  -0.8514963  )
       126        S      tau( 126) = (   0.2500018   0.5773519  -0.1180256  )
       127        Mo     tau( 127) = (   0.2499737   0.5773335   0.2424135  )
       128        Mo     tau( 128) = (   0.3764328   0.5049349   0.7279416  )
       129        S      tau( 129) = (   0.2480514   0.5762247   0.6070002  )
       130        S      tau( 130) = (   0.3749389   0.5051953   0.3668317  )
       131        S      tau( 131) = (   0.3749944   0.5051727   0.1180554  )
       132        S      tau( 132) = (   0.2606253   0.5834843   0.8580650  )
       133        Mo     tau( 133) = (   0.1250016   0.7938567  -0.7272732  )
       134        Mo     tau( 134) = (   0.2499995   0.7216883  -0.2424036  )
       135        S      tau( 135) = (   0.1250024   0.7938578  -0.3667813  )
       136        S      tau( 136) = (   0.2500016   0.7216877  -0.6030489  )
       137        S      tau( 137) = (   0.2500016   0.7216878  -0.8514963  )
       138        S      tau( 138) = (   0.1250024   0.7938579  -0.1180253  )
       139        Mo     tau( 139) = (   0.1250038   0.7938330   0.2424463  )
       140        Mo     tau( 140) = (   0.2505035   0.7230514   0.7279415  )
       141        S      tau( 141) = (   0.1250048   0.7937168   0.6030849  )
       142        S      tau( 142) = (   0.2499835   0.7216255   0.3668318  )
       143        S      tau( 143) = (   0.2499914   0.7216850   0.1180556  )
       144        S      tau( 144) = (   0.1250053   0.7945558   0.8519227  )
       145        Mo     tau( 145) = (   0.7500010   0.1443372  -0.7272732  )
       146        Mo     tau( 146) = (   0.8750038   0.0721696  -0.2424038  )
       147        S      tau( 147) = (   0.7500016   0.1443382  -0.3667789  )
       148        S      tau( 148) = (   0.8750010   0.0721682  -0.6030489  )
       149        S      tau( 149) = (   0.8750010   0.0721683  -0.8514963  )
       150        S      tau( 150) = (   0.7500016   0.1443384  -0.1180279  )
       151        Mo     tau( 151) = (   0.7499988   0.1443404   0.2423934  )
       152        Mo     tau( 152) = (   0.8750792   0.0721276   0.7261574  )
       153        S      tau( 153) = (   0.7497661   0.1444769   0.6022124  )
       154        S      tau( 154) = (   0.8749753   0.0721851   0.3667807  )
       155        S      tau( 155) = (   0.8750121   0.0721637   0.1180502  )
       156        S      tau( 156) = (   0.7501887   0.1442327   0.8511550  )
       157        Mo     tau( 157) = (   0.6250012   0.3608437  -0.7272732  )
       158        Mo     tau( 158) = (   0.7500028   0.2886769  -0.2424041  )
       159        S      tau( 159) = (   0.6250015   0.3608451  -0.3667792  )
       160        S      tau( 160) = (   0.7500012   0.2886747  -0.6030489  )
       161        S      tau( 161) = (   0.7500012   0.2886748  -0.8514963  )
       162        S      tau( 162) = (   0.6250016   0.3608454  -0.1180280  )
       163        Mo     tau( 163) = (   0.6250035   0.3608392   0.2423934  )
       164        Mo     tau( 164) = (   0.7498463   0.2885859   0.7270559  )
       165        S      tau( 165) = (   0.6250044   0.3605709   0.6022125  )
       166        S      tau( 166) = (   0.7500026   0.2886750   0.3667635  )
       167        S      tau( 167) = (   0.7500299   0.2886908   0.1180357  )
       168        S      tau( 168) = (   0.6250043   0.3610591   0.8511551  )
       169        Mo     tau( 169) = (   0.5000014   0.5773502  -0.7272732  )
       170        Mo     tau( 170) = (   0.6250029   0.5051841  -0.2424047  )
       171        S      tau( 171) = (   0.5000014   0.5773518  -0.3667794  )
       172        S      tau( 172) = (   0.6250014   0.5051812  -0.6030489  )
       173        S      tau( 173) = (   0.6250014   0.5051813  -0.8514963  )
       174        S      tau( 174) = (   0.5000016   0.5773516  -0.1180277  )
       175        Mo     tau( 175) = (   0.4999838   0.5773372   0.2424356  )
       176        Mo     tau( 176) = (   0.6250048   0.5052701   0.7261575  )
       177        S      tau( 177) = (   0.4996630   0.5772238   0.6020019  )
       178        S      tau( 178) = (   0.6250037   0.5051496   0.3667806  )
       179        S      tau( 179) = (   0.6250036   0.5051921   0.1180503  )
       180        S      tau( 180) = (   0.5017240   0.5777016   0.8513099  )
       181        Mo     tau( 181) = (   0.3750016   0.7938567  -0.7272732  )
       182        Mo     tau( 182) = (   0.5000025   0.7216901  -0.2424039  )
       183        S      tau( 183) = (   0.3750019   0.7938578  -0.3667793  )
       184        S      tau( 184) = (   0.5000016   0.7216877  -0.6030489  )
       185        S      tau( 185) = (   0.5000016   0.7216878  -0.8514963  )
       186        S      tau( 186) = (   0.3750020   0.7938579  -0.1180272  )
       187        Mo     tau( 187) = (   0.3749825   0.7938468   0.2424356  )
       188        Mo     tau( 188) = (   0.5001261   0.7217601   0.7263985  )
       189        S      tau( 189) = (   0.3747228   0.7936274   0.6020018  )
       190        S      tau( 190) = (   0.5000073   0.7216903   0.3667579  )
       191        S      tau( 191) = (   0.4999777   0.7216732   0.1180450  )
       192        S      tau( 192) = (   0.3761670   0.7951734   0.8513099  )
       193        Pt     tau( 193) = (   0.1250041   0.5051825   0.9498857  )
       194        Pd     tau( 194) = (   0.8750524   0.0721145   0.9781071  )

     --------------------------------------------
     DFT-D3 Dispersion Correction (3-body terms):
     --------------------------------------------
       Reference C6 values for interpolation: 

         atom   Coordination number   C6
         S          0.000           268.01
         S          0.995           261.99
         S          1.990           251.62
         Mo         0.000          1691.79
         Mo         1.942          1004.01
         Mo        11.056           674.22
         Pd         0.000          1217.01
         Pd         1.863           573.90
         Pd         5.710           531.75
         Pt         0.000           782.29
         Pt         1.919           692.72
         Pt         6.667           673.75

       Values used:

         atom   Coordination number  R0_AB[au]  C6      C8
         Mo        10.208            3.547    674.22  77634.20
         Mo        10.221            3.547    674.22  77634.20
         S          3.858            3.128    251.62  12327.25
         S          3.859            3.128    251.62  12327.25
         S          3.758            3.128    251.62  12327.25
         S          3.859            3.128    251.62  12327.25
         Mo        10.220            3.547    674.22  77634.20
         Mo        10.243            3.547    674.22  77634.20
         S          3.845            3.128    251.62  12327.25
         S          3.861            3.128    251.62  12327.25
         S          3.859            3.128    251.62  12327.25
         S          4.758            3.128    251.62  12327.25
         Mo        10.208            3.547    674.22  77634.20
         Mo        10.221            3.547    674.22  77634.20
         S          3.858            3.128    251.62  12327.25
         S          3.859            3.128    251.62  12327.25
         S          3.758            3.128    251.62  12327.25
         S          3.859            3.128    251.62  12327.25
         Mo        10.221            3.547    674.22  77634.20
         Mo        10.199            3.547    674.22  77634.20
         S          3.857            3.128    251.62  12327.25
         S          3.855            3.128    251.62  12327.25
         S          3.859            3.128    251.62  12327.25
         S          3.767            3.128    251.62  12327.25
         Mo        10.208            3.547    674.22  77634.20
         Mo        10.221            3.547    674.22  77634.20
         S          3.858            3.128    251.62  12327.25
         S          3.859            3.128    251.62  12327.25
         S          3.758            3.128    251.62  12327.25
         S          3.859            3.128    251.62  12327.25
         Mo        10.220            3.547    674.22  77634.20
         Mo        10.192            3.547    674.22  77634.20
         S          3.844            3.128    251.62  12327.25
         S          3.855            3.128    251.62  12327.25
         S          3.859            3.128    251.62  12327.25
         S          3.828            3.128    251.62  12327.25
         Mo        10.208            3.547    674.22  77634.20
         Mo        10.221            3.547    674.22  77634.20
         S          3.858            3.128    251.62  12327.25
         S          3.859            3.128    251.62  12327.25
         S          3.758            3.128    251.62  12327.25
         S          3.859            3.128    251.62  12327.25
         Mo        10.219            3.547    674.22  77634.20
         Mo        10.236            3.547    674.22  77634.20
         S          3.852            3.128    251.62  12327.25
         S          3.861            3.128    251.62  12327.25
         S          3.859            3.128    251.62  12327.25
         S          3.800            3.128    251.62  12327.25
         Mo        10.208            3.547    674.21  77634.20
         Mo        10.221            3.547    674.22  77634.20
         S          3.858            3.128    251.62  12327.25
         S          3.859            3.128    251.62  12327.25
         S          3.758            3.128    251.62  12327.25
         S          3.859            3.128    251.62  12327.25
         Mo        10.220            3.547    674.22  77634.20
         Mo        10.250            3.547    674.22  77634.20
         S          3.844            3.128    251.62  12327.25
         S          3.860            3.128    251.62  12327.25
         S          3.859            3.128    251.62  12327.25
         S          3.829            3.128    251.62  12327.25
         Mo        10.208            3.547    674.22  77634.20
         Mo        10.221            3.547    674.22  77634.20
         S          3.858            3.128    251.62  12327.25
         S          3.859            3.128    251.62  12327.25
         S          3.758            3.128    251.62  12327.25
         S          3.859            3.128    251.62  12327.25
         Mo        10.222            3.547    674.22  77634.20
         Mo        10.192            3.547    674.22  77634.20
         S          3.865            3.128    251.62  12327.25
         S          3.855            3.128    251.62  12327.25
         S          3.859            3.128    251.62  12327.25
         S          4.661            3.128    251.62  12327.25
         Mo        10.208            3.547    674.22  77634.20
         Mo        10.221            3.547    674.22  77634.20
         S          3.858            3.128    251.62  12327.25
         S          3.859            3.128    251.62  12327.25
         S          3.758            3.128    251.62  12327.25
         S          3.859            3.128    251.62  12327.25
         Mo        10.222            3.547    674.22  77634.20
         Mo        10.909            3.547    674.22  77634.20
         S          3.865            3.128    251.62  12327.25
         S          3.851            3.128    251.62  12327.25
         S          3.859            3.128    251.62  12327.25
         S          4.660            3.128    251.62  12327.25
         Mo        10.208            3.547    674.22  77634.20
         Mo        10.221            3.547    674.22  77634.20
         S          3.858            3.128    251.62  12327.25
         S          3.859            3.128    251.62  12327.25
         S          3.758            3.128    251.62  12327.25
         S          3.859            3.128    251.62  12327.25
         Mo        10.220            3.547    674.21  77634.20
         Mo        10.192            3.547    674.22  77634.20
         S          3.844            3.128    251.62  12327.25
         S          3.855            3.128    251.62  12327.25
         S          3.859            3.128    251.62  12327.25
         S          3.828            3.128    251.62  12327.25
         Mo        10.208            3.547    674.22  77634.20
         Mo        10.221            3.547    674.22  77634.20
         S          3.858            3.128    251.62  12327.25
         S          3.859            3.128    251.62  12327.25
         S          3.758            3.128    251.62  12327.25
         S          3.859            3.128    251.62  12327.25
         Mo        10.220            3.547    674.22  77634.20
         Mo        10.243            3.547    674.22  77634.20
         S          3.860            3.128    251.62  12327.25
         S          3.860            3.128    251.62  12327.25
         S          3.859            3.128    251.62  12327.25
         S          3.769            3.128    251.62  12327.25
         Mo        10.208            3.547    674.22  77634.20
         Mo        10.221            3.547    674.22  77634.20
         S          3.858            3.128    251.62  12327.25
         S          3.859            3.128    251.62  12327.25
         S          3.758            3.128    251.62  12327.25
         S          3.859            3.128    251.62  12327.25
         Mo        10.221            3.547    674.22  77634.20
         Mo        10.236            3.547    674.22  77634.20
         S          3.857            3.128    251.62  12327.25
         S          3.860            3.128    251.62  12327.25
         S          3.859            3.128    251.62  12327.25
         S          3.758            3.128    251.62  12327.25
         Mo        10.208            3.547    674.22  77634.20
         Mo        10.221            3.547    674.22  77634.20
         S          3.858            3.128    251.62  12327.25
         S          3.859            3.128    251.62  12327.25
         S          3.758            3.128    251.62  12327.25
         S          3.859            3.128    251.62  12327.25
         Mo        10.222            3.547    674.22  77634.20
         Mo        10.192            3.547    674.22  77634.20
         S          3.865            3.128    251.62  12327.25
         S          3.855            3.128    251.62  12327.25
         S          3.859            3.128    251.62  12327.25
         S          4.661            3.128    251.62  12327.25
         Mo        10.208            3.547    674.22  77634.20
         Mo        10.221            3.547    674.22  77634.20
         S          3.858            3.128    251.62  12327.25
         S          3.859            3.128    251.62  12327.25
         S          3.758            3.128    251.62  12327.25
         S          3.859            3.128    251.62  12327.25
         Mo        10.221            3.547    674.22  77634.20
         Mo        10.199            3.547    674.22  77634.20
         S          3.857            3.128    251.62  12327.25
         S          3.855            3.128    251.62  12327.25
         S          3.859            3.128    251.62  12327.25
         S          3.767            3.128    251.62  12327.25
         Mo        10.208            3.547    674.22  77634.20
         Mo        10.221            3.547    674.22  77634.20
         S          3.858            3.128    251.62  12327.25
         S          3.859            3.128    251.62  12327.25
         S          3.758            3.128    251.62  12327.25
         S          3.859            3.128    251.62  12327.25
         Mo        10.220            3.547    674.22  77634.20
         Mo        10.647            3.547    674.22  77634.20
         S          3.860            3.128    251.62  12327.25
         S          3.860            3.128    251.62  12327.25
         S          3.859            3.128    251.62  12327.25
         S          4.692            3.128    251.62  12327.25
         Mo        10.208            3.547    674.22  77634.20
         Mo        10.220            3.547    674.22  77634.20
         S          3.858            3.128    251.62  12327.25
         S          3.859            3.128    251.62  12327.25
         S          3.758            3.128    251.62  12327.25
         S          3.859            3.128    251.62  12327.25
         Mo        10.220            3.547    674.22  77634.20
         Mo        10.243            3.547    674.22  77634.20
         S          3.860            3.128    251.62  12327.25
         S          3.860            3.128    251.62  12327.25
         S          3.859            3.128    251.62  12327.25
         S          3.769            3.128    251.62  12327.25
         Mo        10.208            3.547    674.22  77634.20
         Mo        10.221            3.547    674.22  77634.20
         S          3.858            3.128    251.62  12327.25
         S          3.859            3.128    251.62  12327.25
         S          3.758            3.128    251.62  12327.25
         S          3.859            3.128    251.62  12327.25
         Mo        10.220            3.547    674.22  77634.20
         Mo        10.250            3.547    674.22  77634.20
         S          3.844            3.128    251.62  12327.25
         S          3.860            3.128    251.62  12327.25
         S          3.859            3.128    251.62  12327.25
         S          3.829            3.128    251.62  12327.25
         Mo        10.208            3.547    674.22  77634.20
         Mo        10.221            3.547    674.22  77634.20
         S          3.858            3.128    251.62  12327.25
         S          3.859            3.128    251.62  12327.25
         S          3.758            3.128    251.62  12327.25
         S          3.859            3.128    251.62  12327.25
         Mo        10.220            3.547    674.22  77634.20
         Mo        10.243            3.547    674.22  77634.20
         S          3.845            3.128    251.62  12327.25
         S          3.861            3.128    251.62  12327.25
         S          3.859            3.128    251.62  12327.25
         S          4.759            3.128    251.62  12327.25
         Pt         4.026            3.168    692.72  72035.17
         Pd         3.270            3.168    573.90  52583.08

         Molecular C6 ( Ry / a.u.^6 ) =  13986061.06


     number of k points=     4  Gaussian smearing, width (Ry)=  0.0100
                       cart. coord. in units 2pi/alat
        k(    1) = (   0.0000000   0.0000000   0.0000000), wk =   0.5000000
        k(    2) = (   0.0000000  -0.5773499   0.0000000), wk =   0.5000000
        k(    3) = (  -0.5000000  -0.2886744   0.0000000), wk =   0.5000000
        k(    4) = (  -0.5000000  -0.8660242   0.0000000), wk =   0.5000000

     Dense  grid:  7154885 G-vectors     FFT dimensions: ( 180, 180, 512)

     Smooth grid:  3090769 G-vectors     FFT dimensions: ( 135, 135, 400)

     Estimated max dynamical RAM per process >       4.31 GB

     Estimated total dynamical RAM >     155.10 GB

     Initial potential from superposition of free atoms

     starting charge    1713.9389, renormalised to    1714.0000

     negative rho (up, down):  8.830E-04 0.000E+00
     Starting wfcs are 1179 randomized atomic wfcs
     Checking if some PAW data can be deallocated... 

     total cpu time spent up to now is      180.2 secs

     Self-consistent Calculation

     iteration #  1     ecut=    77.00 Ry     beta= 0.20
     Davidson diagonalization with overlap
     ethr =  1.00E-02,  avg # of iterations =  2.0

     Threshold (ethr) on eigenvalues was too large:
     Diagonalizing with lowered threshold

     Davidson diagonalization with overlap
     c_bands:  2 eigenvalues not converged
     ethr =  1.64E-04,  avg # of iterations = 17.5

     negative rho (up, down):  2.416E-04 0.000E+00

     total cpu time spent up to now is     2214.8 secs

     total energy              =  -33980.24427151 Ry
     estimated scf accuracy    <       6.59233153 Ry

     iteration #  2     ecut=    77.00 Ry     beta= 0.20
     Davidson diagonalization with overlap
     ethr =  3.85E-04,  avg # of iterations =  6.0

     negative rho (up, down):  2.737E-05 0.000E+00

     total cpu time spent up to now is     2632.4 secs

     total energy              =  -33978.93786621 Ry
     estimated scf accuracy    <       3.40499283 Ry

     iteration #  3     ecut=    77.00 Ry     beta= 0.20
     Davidson diagonalization with overlap
     ethr =  1.99E-04,  avg # of iterations = 14.0

     negative rho (up, down):  1.873E-05 0.000E+00

     total cpu time spent up to now is     3137.2 secs

     total energy              =  -33979.18636961 Ry
     estimated scf accuracy    <       1.27305775 Ry

     iteration #  4     ecut=    77.00 Ry     beta= 0.20
     Davidson diagonalization with overlap
     c_bands:  2 eigenvalues not converged
     c_bands:  2 eigenvalues not converged
     c_bands:  2 eigenvalues not converged
     c_bands:  1 eigenvalues not converged
     ethr =  7.43E-05,  avg # of iterations = 20.0

     negative rho (up, down):  1.793E-05 0.000E+00

     total cpu time spent up to now is     4095.1 secs

     total energy              =  -33979.97079206 Ry
     estimated scf accuracy    <       0.52587456 Ry

     iteration #  5     ecut=    77.00 Ry     beta= 0.20
     Davidson diagonalization with overlap
     ethr =  3.07E-05,  avg # of iterations = 13.2

     negative rho (up, down):  3.201E-05 0.000E+00

     total cpu time spent up to now is     4814.0 secs

     total energy              =  -33980.17448666 Ry
     estimated scf accuracy    <       0.25288250 Ry

     iteration #  6     ecut=    77.00 Ry     beta= 0.20
     Davidson diagonalization with overlap
     ethr =  1.48E-05,  avg # of iterations = 12.5

     negative rho (up, down):  1.010E-04 0.000E+00

     total cpu time spent up to now is     5448.4 secs

     total energy              =  -33980.19534357 Ry
     estimated scf accuracy    <       0.19332672 Ry

     iteration #  7     ecut=    77.00 Ry     beta= 0.20
     Davidson diagonalization with overlap
     ethr =  1.13E-05,  avg # of iterations = 14.8

     negative rho (up, down):  4.039E-04 0.000E+00

     total cpu time spent up to now is     5916.4 secs

     total energy              =  -33980.19628316 Ry
     estimated scf accuracy    <       0.08376887 Ry

     iteration #  8     ecut=    77.00 Ry     beta= 0.20
     Davidson diagonalization with overlap
     c_bands:  4 eigenvalues not converged
     c_bands:  1 eigenvalues not converged
     c_bands:  3 eigenvalues not converged
     c_bands:  2 eigenvalues not converged
     ethr =  4.89E-06,  avg # of iterations = 30.0

     negative rho (up, down):  5.193E-04 0.000E+00

     total cpu time spent up to now is     7185.4 secs

     total energy              =  -33980.24644402 Ry
     estimated scf accuracy    <       0.11071933 Ry

     iteration #  9     ecut=    77.00 Ry     beta= 0.20
     Davidson diagonalization with overlap
     c_bands:  2 eigenvalues not converged
     c_bands:  4 eigenvalues not converged
     ethr =  4.89E-06,  avg # of iterations = 26.0

     negative rho (up, down):  3.990E-04 0.000E+00

     total cpu time spent up to now is     7926.4 secs

     total energy              =  -33980.23985555 Ry
     estimated scf accuracy    <       0.02597682 Ry

     iteration # 10     ecut=    77.00 Ry     beta= 0.20
     Davidson diagonalization with overlap
     c_bands:  3 eigenvalues not converged
     c_bands:  4 eigenvalues not converged
     c_bands:  4 eigenvalues not converged
     ethr =  1.52E-06,  avg # of iterations = 49.5

     negative rho (up, down):  4.651E-04 0.000E+00

     total cpu time spent up to now is     9609.2 secs

     total energy              =  -33980.26527332 Ry
     estimated scf accuracy    <       0.01049581 Ry

     iteration # 11     ecut=    77.00 Ry     beta= 0.20
     Davidson diagonalization with overlap
     c_bands:  3 eigenvalues not converged
     c_bands:  2 eigenvalues not converged
     c_bands:  4 eigenvalues not converged
     ethr =  6.12E-07,  avg # of iterations = 21.8

     negative rho (up, down):  6.349E-04 0.000E+00

     total cpu time spent up to now is    10225.6 secs

     total energy              =  -33980.26316831 Ry
     estimated scf accuracy    <       0.00626121 Ry

     iteration # 12     ecut=    77.00 Ry     beta= 0.20
     Davidson diagonalization with overlap
     c_bands:  3 eigenvalues not converged
     c_bands:  2 eigenvalues not converged
     c_bands:  4 eigenvalues not converged
     ethr =  3.65E-07,  avg # of iterations = 16.8

     negative rho (up, down):  8.110E-04 0.000E+00

     total cpu time spent up to now is    10908.6 secs

     total energy              =  -33980.26562543 Ry
     estimated scf accuracy    <       0.00063654 Ry

     iteration # 13     ecut=    77.00 Ry     beta= 0.20
     Davidson diagonalization with overlap
     c_bands:  1 eigenvalues not converged
     c_bands:  5 eigenvalues not converged
     c_bands:  3 eigenvalues not converged
     ethr =  3.71E-08,  avg # of iterations = 20.2

     negative rho (up, down):  7.101E-04 0.000E+00

     total cpu time spent up to now is    13006.1 secs

     total energy              =  -33980.26686317 Ry
     estimated scf accuracy    <       0.00410514 Ry

     iteration # 14     ecut=    77.00 Ry     beta= 0.20
     Davidson diagonalization with overlap
     ethr =  3.71E-08,  avg # of iterations = 14.8

     negative rho (up, down):  7.591E-04 0.000E+00

     total cpu time spent up to now is    13887.7 secs

     total energy              =  -33980.26754376 Ry
     estimated scf accuracy    <       0.00024320 Ry

     iteration # 15     ecut=    77.00 Ry     beta= 0.20
     Davidson diagonalization with overlap
     ethr =  1.42E-08,  avg # of iterations = 12.0

     negative rho (up, down):  8.549E-04 0.000E+00

     total cpu time spent up to now is    14801.8 secs

     total energy              =  -33980.26767964 Ry
     estimated scf accuracy    <       0.00015216 Ry

     iteration # 16     ecut=    77.00 Ry     beta= 0.20
     Davidson diagonalization with overlap
     ethr =  8.88E-09,  avg # of iterations =  5.0

     negative rho (up, down):  8.791E-04 0.000E+00

     total cpu time spent up to now is    15226.3 secs

     total energy              =  -33980.26767714 Ry
     estimated scf accuracy    <       0.00002171 Ry

     iteration # 17     ecut=    77.00 Ry     beta= 0.20
     Davidson diagonalization with overlap
     ethr =  1.27E-09,  avg # of iterations = 18.8

     negative rho (up, down):  8.792E-04 0.000E+00

     total cpu time spent up to now is    16974.0 secs

     total energy              =  -33980.26773531 Ry
     estimated scf accuracy    <       0.00002721 Ry

     iteration # 18     ecut=    77.00 Ry     beta= 0.20
     Davidson diagonalization with overlap
     ethr =  1.27E-09,  avg # of iterations =  3.8

     negative rho (up, down):  8.787E-04 0.000E+00

     total cpu time spent up to now is    17387.1 secs

     total energy              =  -33980.26773139 Ry
     estimated scf accuracy    <       0.00001246 Ry

     iteration # 19     ecut=    77.00 Ry     beta= 0.20
     Davidson diagonalization with overlap
     ethr =  7.27E-10,  avg # of iterations =  7.5

     negative rho (up, down):  8.819E-04 0.000E+00

     total cpu time spent up to now is    17890.9 secs

     total energy              =  -33980.26773248 Ry
     estimated scf accuracy    <       0.00000247 Ry

     iteration # 20     ecut=    77.00 Ry     beta= 0.20
     Davidson diagonalization with overlap
     c_bands:  4 eigenvalues not converged
     c_bands:  3 eigenvalues not converged
     ethr =  1.44E-10,  avg # of iterations = 19.5

     negative rho (up, down):  8.835E-04 0.000E+00

     total cpu time spent up to now is    19514.7 secs

     total energy              =  -33980.26773759 Ry
     estimated scf accuracy    <       0.00000303 Ry

     iteration # 21     ecut=    77.00 Ry     beta= 0.20
     Davidson diagonalization with overlap
     ethr =  1.44E-10,  avg # of iterations =  6.0

     negative rho (up, down):  8.867E-04 0.000E+00

     total cpu time spent up to now is    19971.0 secs

     End of self-consistent calculation

          k = 0.0000 0.0000 0.0000 (386245 PWs)   bands (ev):

  -102.9337 -88.0408 -71.2449 -71.2285 -71.2226 -71.2219 -71.2078 -71.2072
   -71.1987 -66.5585 -66.5584 -66.5572 -66.5529 -66.5388 -66.5380 -66.5373
   -66.5373 -66.5373 -66.5372 -66.5372 -66.5372 -66.5372 -66.5372 -66.5372
   -66.5371 -66.5370 -66.5369 -66.5367 -66.5359 -66.5359 -66.5359 -66.5359
   -66.5359 -66.5359 -66.5295 -66.5222 -66.5214 -66.5160 -66.5160 -66.5159
   -66.5158 -66.5158 -66.5158 -66.5158 -66.5158 -66.5158 -66.5158 -66.5158
   -66.5158 -66.5157 -66.5157 -66.5157 -66.5156 -66.5156 -66.5155 -66.5154
   -66.5145 -66.5145 -66.5145 -66.5145 -66.5145 -66.5144 -66.5144 -66.5144
   -66.5144 -66.5079 -66.5077 -66.5006 -66.4961 -66.4942 -66.4888 -66.4743
   -66.4737 -57.1870 -57.1576 -57.1569 -53.8683 -53.8425 -53.8419 -40.8859
   -40.8859 -40.8859 -40.8859 -40.8858 -40.8857 -40.8852 -40.8852 -40.8852
   -40.8743 -40.8708 -40.8692 -40.8107 -40.8106 -40.8106 -40.8105 -40.8105
   -40.8105 -40.8105 -40.8105 -40.8105 -40.8104 -40.8104 -40.8103 -40.8099
   -40.8098 -40.8098 -40.8098 -40.8098 -40.8098 -40.8029 -40.7976 -40.7919
   -40.7897 -40.7850 -40.7819 -40.7679 -40.7181 -40.7181 -40.7175 -40.7166
   -40.6906 -40.6844 -40.6843 -40.6842 -40.6842 -40.6842 -40.6842 -40.6842
   -40.6842 -40.6842 -40.6841 -40.6840 -40.6840 -40.6834 -40.6834 -40.6834
   -40.6834 -40.6834 -40.6834 -40.6810 -40.6808 -40.6792 -40.6765 -40.6765
   -40.6765 -40.6764 -40.6764 -40.6764 -40.6764 -40.6764 -40.6764 -40.6763
   -40.6763 -40.6762 -40.6758 -40.6758 -40.6757 -40.6757 -40.6757 -40.6757
   -40.6745 -40.6702 -40.6691 -40.6647 -40.6637 -40.6621 -40.6494 -40.6492
   -40.6492 -40.6492 -40.6492 -40.6492 -40.6492 -40.6492 -40.6491 -40.6490
   -40.6490 -40.6490 -40.6483 -40.6483 -40.6483 -40.6483 -40.6483 -40.6483
   -40.6476 -40.6453 -40.6436 -40.6428 -40.6421 -40.6365 -40.6346 -40.6346
   -40.6346 -40.6345 -40.6345 -40.6344 -40.6344 -40.6344 -40.6344 -40.6344
   -40.6344 -40.6344 -40.6344 -40.6344 -40.6343 -40.6343 -40.6342 -40.6341
   -40.6338 -40.6337 -40.6337 -40.6337 -40.6337 -40.6337 -40.6337 -40.6337
   -40.6337 -40.6328 -40.6320 -40.6312 -40.6299 -40.6275 -40.6224 -40.6174
   -40.6164 -40.6141 -40.6105 -40.5709 -40.5709 -40.5708 -40.5708 -40.5708
   -40.5707 -40.5699 -40.5699 -40.5699 -40.5594 -40.5532 -40.5521 -40.5239
   -40.5238 -40.5238 -40.5237 -40.5237 -40.5237 -40.5237 -40.5237 -40.5237
   -40.5236 -40.5235 -40.5234 -40.5227 -40.5227 -40.5227 -40.5227 -40.5227
   -40.5227 -40.5078 -40.5067 -40.5029 -40.5025 -40.4976 -40.4960 -40.4761
   -40.4761 -40.4761 -40.4761 -40.4751 -40.4751 -40.4534 -40.4487 -20.0823
   -20.0217 -19.9215 -19.8197 -19.3236 -19.2657 -19.2547 -19.2015 -19.1878
   -19.1822 -19.1685 -19.1663 -19.1654 -19.1526 -19.1341 -19.1206 -19.0784
   -19.0759 -19.0752 -19.0659 -19.0509 -19.0366 -18.9758 -18.9750 -18.9748
   -18.9717 -18.9660 -18.9599 -18.8498 -18.7328 -18.5744 -18.5354 -18.5326
   -18.5102 -18.4438 -18.4312 -18.4131 -18.4052 -18.3751 -18.3688 -18.3561
   -18.3365 -18.3252 -18.3147 -18.2972 -18.2508 -18.2206 -18.2186 -18.2177
   -18.2059 -18.1859 -18.1662 -18.1321 -18.1234 -18.1190 -18.1155 -18.1085
   -18.1068 -18.0950 -18.0787 -18.0582 -18.0560 -18.0547 -18.0536 -18.0529
   -18.0499 -18.0311 -18.0239 -18.0207 -18.0203 -18.0138 -18.0125 -18.0109
   -18.0097 -18.0076 -17.9960 -17.9880 -17.9853 -17.9838 -17.9790 -17.9711
   -17.9689 -17.9616 -17.9553 -17.9497 -17.9424 -17.9401 -17.9380 -17.9328
   -17.9264 -17.9225 -17.9200 -17.8883 -17.8880 -17.8801 -17.8717 -17.8633
   -17.8557 -17.8543 -17.8535 -17.8490 -17.8307 -17.8305 -17.8208 -17.8188
   -17.8117 -17.8070 -17.8044 -17.8026 -17.7978 -17.7945 -17.7923 -17.7898
   -17.7754 -17.7754 -17.7736 -17.7661 -17.7625 -17.7598 -17.7587 -17.7570
   -17.7537 -17.7318 -17.7311 -17.7301 -17.7298 -17.7293 -17.7280 -12.0499
   -11.9086 -11.7971 -11.7825 -11.7364 -11.7156 -11.7087 -11.6940 -11.6123
   -11.5975 -11.5922 -11.4947 -11.4883 -11.4853 -11.4517 -11.3877 -11.3485
   -11.2521 -11.1952 -11.1804 -11.1735 -11.1733 -11.1646 -11.1645 -11.0962
   -11.0775 -11.0719 -11.0687 -11.0674 -11.0642 -11.0614 -11.0446 -11.0261
   -11.0257 -11.0108 -11.0106 -10.9999 -10.9989 -10.9942 -10.9902 -10.9794
   -10.9788 -10.9689 -10.9396 -10.9367 -10.9316 -10.9245 -10.9045 -10.8881
   -10.8774 -10.8718 -10.8661 -10.8573 -10.8504 -10.8364 -10.8253 -10.8214
   -10.8192 -10.8045 -10.7908 -10.7893 -10.7839 -10.7813 -10.7759 -10.7703
   -10.7653 -10.7638 -10.7630 -10.7625 -10.7552 -10.7489 -10.7477 -10.7465
   -10.7422 -10.7417 -10.7338 -10.7155 -10.7149 -10.7095 -10.7089 -10.7069
   -10.7049 -10.7014 -10.6944 -10.6895 -10.6723 -10.6721 -10.6709 -10.6698
   -10.6688 -10.6673 -10.5967 -10.5959 -10.5932 -10.5516 -10.5297 -10.5260
   -10.5208 -10.5165 -10.5126 -10.4262 -10.3967 -10.1547 -10.1386 -10.1331
   -10.0052 -10.0048  -9.9516  -9.9157  -9.8357  -9.8209  -9.8170  -9.7675
    -9.7547  -9.7347  -9.7341  -9.7337  -9.7272  -9.7107  -9.7049  -9.7049
    -9.7048  -9.7012  -9.6972  -9.6897  -9.6861  -9.6841  -9.6835  -9.6717
    -9.6713  -9.6574  -9.6460  -9.6279  -9.6136  -9.5721  -9.5710  -9.5662
    -9.5651  -9.5611  -9.5562  -9.5538  -9.5525  -9.5522  -9.5509  -9.5493
    -9.5456  -9.5440  -9.5429  -9.5173  -9.4999  -9.4765  -9.4760  -9.4757
    -9.4755  -9.4752  -9.4751  -9.4660  -9.4623  -9.4617  -9.4539  -9.4508
    -9.4385  -9.4361  -9.4235  -9.3907  -9.3808  -9.3309  -9.3194  -9.2973
    -9.2965  -9.2858  -9.2788  -9.2735  -9.2691  -9.2636  -9.2576  -9.2491
    -9.2408  -9.2077  -9.1952  -9.1875  -9.1674  -9.1668  -9.1512  -9.1276
    -9.1268  -9.1222  -9.1149  -9.1147  -9.1144  -9.1115  -9.1016  -9.0944
    -9.0912  -9.0661  -9.0581  -9.0527  -9.0326  -9.0008  -8.9723  -8.9360
    -8.9252  -8.9229  -8.9163  -8.9129  -8.9109  -8.8938  -8.8847  -8.8819
    -8.8788  -8.8637  -8.8516  -8.8515  -8.8475  -8.8472  -8.8397  -8.8352
    -8.8213  -8.8168  -8.8028  -8.7555  -8.7555  -8.7555  -8.7553  -8.7548
    -8.7543  -8.6904  -8.6873  -8.6850  -8.6836  -8.6783  -8.6597  -8.6144
    -8.6034  -8.6016  -8.5991  -8.5971  -8.5885  -8.5752  -8.5299  -8.5289
    -8.5260  -8.5255  -8.5249  -8.5192  -8.4967  -8.4441  -8.3800  -8.3378
    -8.3006  -8.3006  -8.2961  -8.2954  -8.2905  -8.2890  -8.2875  -8.2610
    -8.2398  -8.2379  -8.2264  -8.2100  -8.2099  -8.2089  -8.2078  -8.2078
    -8.2066  -8.1834  -8.1834  -8.1816  -8.1805  -8.1801  -8.1797  -8.1552
    -8.1551  -8.1543  -8.1540  -8.1537  -8.1536  -8.1079  -8.0659  -7.9983
    -7.9411  -7.9373  -7.8290  -7.7910  -7.7895  -7.7771  -7.7042  -7.7022
    -7.6902  -7.6378  -7.6275  -7.5922  -7.5798  -7.5781  -7.5762  -7.5554
    -7.5512  -7.5477  -7.5432  -7.5428  -7.5373  -7.5315  -7.5060  -7.5024
    -7.4890  -7.4826  -7.4758  -7.4733  -7.4684  -7.4679  -7.4678  -7.4668
    -7.4647  -7.4558  -7.4487  -7.4456  -7.4418  -7.4405  -7.4399  -7.4389
    -7.4358  -7.4333  -7.4178  -7.4162  -7.4160  -7.4160  -7.4158  -7.4140
    -7.3990  -7.3897  -7.3799  -7.3632  -7.3600  -7.3599  -7.3491  -7.3448
    -7.3446  -7.3369  -7.3093  -7.3025  -7.2768  -7.2738  -7.2555  -7.2503
    -7.2490  -7.2350  -7.2319  -7.2294  -7.2291  -7.2249  -7.2184  -7.2153
    -7.1848  -7.1844  -7.1665  -7.1659  -7.1598  -7.1479  -7.1477  -7.0934
    -7.0781  -7.0735  -7.0537  -7.0527  -7.0182  -6.9884  -6.9430  -6.8713
    -6.8365  -6.8272  -6.8023  -6.7932  -6.7535  -6.7471  -6.7356  -6.7255
    -6.7097  -6.7085  -6.6868  -6.6770  -6.6343  -6.6325  -6.6291  -6.6282
    -6.6128  -6.5793  -6.5588  -6.5551  -6.5539  -6.5531  -6.5497  -6.5257
    -6.5217  -6.5139  -6.5066  -6.4849  -6.4834  -6.4786  -6.4672  -6.4588
    -6.4487  -6.4454  -6.4445  -6.4444  -6.4424  -6.4409  -6.4395  -6.4385
    -6.4318  -6.4314  -6.4313  -6.4310  -6.4309  -6.4305  -6.4201  -6.3902
    -6.3875  -6.3777  -6.3491  -6.3464  -6.3437  -6.3290  -6.3106  -6.3038
    -6.2872  -6.2674  -6.2666  -6.2654  -6.2653  -6.2615  -6.2592  -6.2338
    -6.2284  -6.2260  -6.2255  -6.2206  -6.2199  -6.2060  -6.1899  -6.1884
    -6.1877  -6.1857  -6.1856  -6.1841  -6.1741  -6.1414  -6.0638  -6.0399
    -5.8719  -5.7202  -5.6685  -5.6657  -5.5389  -5.3977  -5.3956  -5.2528
    -5.0858  -4.1683  -3.9191  -3.7890  -3.7889  -3.7807  -3.7782  -3.7628
    -3.7605  -3.7595  -3.7583  -3.7579  -3.7544  -3.7355  -3.7127  -3.6425
    -3.6373  -3.6256  -3.6217  -3.6155  -3.6146  -3.6103  -3.6084  -3.6027
    -3.6026  -3.5112  -3.4814  -3.4511  -3.4506  -3.4441  -3.4341  -3.4284
    -3.4182  -3.4177  -3.4066  -3.4062  -3.4053  -3.4024  -3.4013  -3.3915
    -3.3905  -3.3859  -3.3788  -3.3763  -3.3758  -3.3755  -3.3722  -3.3609
    -3.3607  -3.3605  -3.3480  -3.3468  -3.3450  -3.3437  -3.3432  -3.3400
    -3.3345  -3.3323  -3.3323  -3.3286  -3.3252  -3.2939  -3.2857  -3.2829
    -3.2807  -3.2802  -3.2775  -3.2733  -3.2726  -3.2721  -3.2640  -3.2505
    -3.2433  -3.2216  -3.2214  -3.2165  -3.2161  -3.2126  -3.2074  -3.2045
    -3.1834  -3.1586  -3.1489  -3.1403  -3.1257  -3.0229  -3.0114  -3.0107
    -2.9941  -2.9928  -2.9919  -2.9887  -2.9762  -2.9757  -2.9695  -2.9459
    -2.9362  -2.9319  -2.9084  -2.9075  -2.9059  -2.9047  -2.9041  -2.9008
    -2.8978  -2.8970  -2.8962  -2.8961  -2.8930  -2.8870  -2.8864  -2.8786
    -2.8731  -2.8708  -2.8667  -2.8665  -2.8628  -2.8604  -2.8597  -2.8593
    -2.8586  -2.8542  -2.8507  -2.8228  -2.8183  -2.8179  -2.8062  -2.7993
    -2.7991  -2.7928  -2.7853  -2.7759  -2.7411  -2.7366  -2.7362  -2.7361
    -2.7359  -2.7358  -2.7351  -2.7347  -2.7345  -2.7196  -2.7177  -2.7065
    -2.6928  -2.6819  -2.6798  -2.6631  -2.6607  -2.6523  -2.6510  -2.6043
    -2.6010  -2.5745  -2.5733  -2.5626  -2.5543  -2.5534  -2.5508  -2.5478
    -2.5473  -2.5203  -2.5058  -2.4904  -2.4871  -2.4732  -2.4691  -2.3621
    -2.3525  -2.3466  -2.3462  -2.3390

          k = 0.0000-0.5773 0.0000 (386352 PWs)   bands (ev):

  -102.9337 -88.0408 -71.2449 -71.2285 -71.2226 -71.2219 -71.2078 -71.2072
   -71.1987 -66.5523 -66.5522 -66.5522 -66.5522 -66.5510 -66.5509 -66.5481
   -66.5479 -66.5416 -66.5416 -66.5416 -66.5415 -66.5403 -66.5403 -66.5392
   -66.5309 -66.5271 -66.5266 -66.5265 -66.5265 -66.5265 -66.5265 -66.5265
   -66.5264 -66.5263 -66.5263 -66.5252 -66.5252 -66.5252 -66.5252 -66.5221
   -66.5220 -66.5220 -66.5219 -66.5207 -66.5207 -66.5194 -66.5159 -66.5158
   -66.5158 -66.5158 -66.5158 -66.5158 -66.5157 -66.5155 -66.5145 -66.5145
   -66.5144 -66.5144 -66.5141 -66.5113 -66.5113 -66.5113 -66.5113 -66.5100
   -66.5100 -66.5099 -66.5078 -66.5000 -66.4951 -66.4947 -66.4895 -66.4745
   -66.4734 -57.1870 -57.1576 -57.1569 -53.8683 -53.8426 -53.8419 -40.8543
   -40.8543 -40.8542 -40.8542 -40.8542 -40.8542 -40.8542 -40.8540 -40.8536
   -40.8536 -40.8536 -40.8536 -40.8504 -40.8410 -40.8376 -40.8275 -40.8274
   -40.8274 -40.8274 -40.8274 -40.8267 -40.8267 -40.8199 -40.8176 -40.8154
   -40.8153 -40.8153 -40.8153 -40.8147 -40.8147 -40.7984 -40.7790 -40.7681
   -40.7647 -40.7647 -40.7647 -40.7647 -40.7646 -40.7646 -40.7646 -40.7646
   -40.7639 -40.7639 -40.7639 -40.7639 -40.7505 -40.7441 -40.7417 -40.7351
   -40.7111 -40.7059 -40.7059 -40.7059 -40.7059 -40.7053 -40.7053 -40.7011
   -40.6964 -40.6964 -40.6964 -40.6963 -40.6955 -40.6955 -40.6908 -40.6851
   -40.6851 -40.6850 -40.6850 -40.6844 -40.6844 -40.6776 -40.6737 -40.6676
   -40.6582 -40.6570 -40.6557 -40.6555 -40.6555 -40.6554 -40.6554 -40.6554
   -40.6554 -40.6553 -40.6553 -40.6548 -40.6548 -40.6548 -40.6548 -40.6486
   -40.6468 -40.6467 -40.6467 -40.6467 -40.6460 -40.6460 -40.6422 -40.6370
   -40.6349 -40.6349 -40.6349 -40.6348 -40.6345 -40.6345 -40.6344 -40.6344
   -40.6344 -40.6344 -40.6343 -40.6342 -40.6340 -40.6340 -40.6337 -40.6337
   -40.6337 -40.6337 -40.6334 -40.6283 -40.6257 -40.6257 -40.6257 -40.6257
   -40.6254 -40.6250 -40.6250 -40.6202 -40.6162 -40.6154 -40.6126 -40.6042
   -40.6040 -40.6040 -40.6040 -40.6040 -40.6039 -40.6038 -40.6037 -40.6031
   -40.6030 -40.6030 -40.6030 -40.5900 -40.5882 -40.5878 -40.5850 -40.5692
   -40.5692 -40.5692 -40.5692 -40.5692 -40.5692 -40.5692 -40.5692 -40.5683
   -40.5683 -40.5683 -40.5683 -40.5571 -40.5571 -40.5571 -40.5570 -40.5561
   -40.5561 -40.5553 -40.5500 -40.5469 -40.5437 -40.5414 -40.5379 -40.5378
   -40.5377 -40.5375 -40.5368 -40.5368 -40.5270 -40.5230 -40.5208 -40.5208
   -40.5208 -40.5207 -40.5198 -40.5198 -40.5140 -40.4971 -40.4902 -40.4901
   -40.4901 -40.4900 -40.4891 -40.4891 -40.4890 -40.4728 -40.4616 -19.8528
   -19.8466 -19.7889 -19.7862 -19.6899 -19.6879 -19.5871 -19.5865 -19.4160
   -19.3975 -19.3549 -19.3464 -19.2615 -19.2560 -19.1614 -19.1596 -18.8470
   -18.8346 -18.7904 -18.7233 -18.6828 -18.6756 -18.6555 -18.6545 -18.6532
   -18.6449 -18.6238 -18.6095 -18.5868 -18.5831 -18.5657 -18.5630 -18.5320
   -18.5258 -18.4987 -18.4895 -18.4854 -18.4838 -18.4669 -18.4569 -18.4428
   -18.4296 -18.4124 -18.4101 -18.4006 -18.3885 -18.3443 -18.3412 -18.3380
   -18.3331 -18.3024 -18.2848 -18.2657 -18.2600 -18.2434 -18.2199 -18.1958
   -18.1849 -18.1821 -18.1730 -18.1300 -18.1294 -18.1182 -18.1080 -18.0735
   -18.0705 -18.0527 -18.0457 -18.0382 -18.0363 -18.0313 -18.0310 -18.0222
   -18.0222 -18.0049 -18.0036 -18.0015 -17.9994 -17.9919 -17.9908 -17.9822
   -17.9781 -17.9751 -17.9741 -17.9435 -17.9424 -17.9380 -17.9373 -17.9339
   -17.9326 -17.9294 -17.9279 -17.9182 -17.9158 -17.8825 -17.8797 -17.8702
   -17.8701 -17.8633 -17.8623 -17.8271 -17.8245 -17.8162 -17.8161 -17.7885
   -17.7850 -17.7782 -17.7766 -17.7716 -17.7637 -17.7529 -17.7524 -17.7519
   -17.7516 -17.7509 -17.7492 -17.7376 -17.7372 -17.7178 -17.7171 -17.6938
   -17.6928 -17.6746 -17.6729 -17.6602 -17.6591 -17.6527 -17.6525 -11.8481
   -11.7327 -11.6473 -11.6299 -11.5507 -11.5103 -11.4705 -11.4586 -11.4451
   -11.4322 -11.4274 -11.4226 -11.4125 -11.4085 -11.3906 -11.3718 -11.3312
   -11.3199 -11.3145 -11.3057 -11.2803 -11.2718 -11.2585 -11.2514 -11.2387
   -11.2202 -11.2067 -11.2044 -11.1965 -11.1951 -11.1878 -11.1835 -11.1634
   -11.1495 -11.1386 -11.1363 -11.1255 -11.1226 -11.1059 -11.1026 -11.1011
   -11.0988 -11.0807 -11.0790 -11.0547 -11.0520 -11.0203 -11.0144 -11.0098
   -10.9931 -10.9648 -10.9362 -10.9116 -10.8868 -10.8802 -10.8692 -10.8589
   -10.8512 -10.8395 -10.8271 -10.8251 -10.7949 -10.7862 -10.7727 -10.7676
   -10.7669 -10.7565 -10.7522 -10.7450 -10.7447 -10.7438 -10.7430 -10.7385
   -10.7328 -10.7306 -10.7273 -10.7256 -10.7248 -10.7176 -10.7167 -10.7145
   -10.7113 -10.6770 -10.6766 -10.6760 -10.6756 -10.5890 -10.5547 -10.4821
   -10.4774 -10.4710 -10.4601 -10.4300 -10.4047 -10.3392 -10.3251 -10.2283
   -10.2005 -10.1473 -10.1277 -10.1148 -10.0817 -10.0755 -10.0690 -10.0485
   -10.0461 -10.0347 -10.0311  -9.9948  -9.9926  -9.9695  -9.9677  -9.9640
    -9.9601  -9.9534  -9.9435  -9.9259  -9.9184  -9.8860  -9.8706  -9.8643
    -9.8560  -9.8482  -9.8428  -9.8254  -9.8237  -9.8007  -9.7928  -9.7754
    -9.7593  -9.7439  -9.7388  -9.7307  -9.7123  -9.7102  -9.7055  -9.6773
    -9.6739  -9.6451  -9.6253  -9.6196  -9.6109  -9.5912  -9.5840  -9.5676
    -9.5566  -9.5493  -9.5342  -9.5193  -9.5040  -9.5039  -9.4837  -9.4775
    -9.4726  -9.4694  -9.4511  -9.4262  -9.4228  -9.4211  -9.4090  -9.4067
    -9.4003  -9.3930  -9.3900  -9.3861  -9.3812  -9.3630  -9.3600  -9.3305
    -9.3029  -9.2983  -9.2807  -9.2373  -9.2046  -9.1889  -9.1693  -9.1599
    -9.1512  -9.1327  -9.1290  -9.1191  -9.1023  -9.0982  -9.0893  -9.0633
    -9.0530  -9.0442  -9.0284  -9.0221  -9.0072  -8.9913  -8.9839  -8.9761
    -8.9727  -8.9676  -8.9633  -8.9293  -8.9234  -8.9177  -8.9007  -8.8868
    -8.8861  -8.8753  -8.8650  -8.8583  -8.8491  -8.8247  -8.8232  -8.8218
    -8.8199  -8.8186  -8.8155  -8.8093  -8.8041  -8.8022  -8.7990  -8.7986
    -8.7911  -8.7895  -8.7850  -8.7734  -8.7731  -8.7716  -8.7657  -8.7636
    -8.7505  -8.7263  -8.7259  -8.7223  -8.7207  -8.7172  -8.7168  -8.6958
    -8.6953  -8.6711  -8.6671  -8.6656  -8.6614  -8.6594  -8.6430  -8.6378
    -8.5860  -8.5853  -8.5725  -8.5436  -8.5235  -8.4380  -8.4354  -8.3959
    -8.3860  -8.3775  -8.3672  -8.3078  -8.2856  -8.2618  -8.2150  -8.1957
    -8.1787  -8.1412  -8.0609  -8.0607  -8.0526  -8.0518  -8.0420  -8.0404
    -8.0357  -8.0067  -7.9999  -7.9884  -7.9589  -7.9436  -7.9033  -7.9015
    -7.8867  -7.8436  -7.8066  -7.7889  -7.7732  -7.7709  -7.7701  -7.7596
    -7.7526  -7.7502  -7.7430  -7.7368  -7.7364  -7.7340  -7.7295  -7.7248
    -7.7236  -7.7216  -7.7189  -7.7150  -7.7133  -7.7111  -7.7068  -7.7020
    -7.7012  -7.6974  -7.6974  -7.6956  -7.6926  -7.6914  -7.6908  -7.6740
    -7.6710  -7.6636  -7.6611  -7.6597  -7.6559  -7.6299  -7.6295  -7.6293
    -7.6289  -7.6015  -7.6001  -7.5992  -7.5987  -7.5913  -7.5874  -7.5854
    -7.5739  -7.5618  -7.5509  -7.5423  -7.5404  -7.5395  -7.5356  -7.5347
    -7.5250  -7.5179  -7.5173  -7.5011  -7.4969  -7.4967  -7.4945  -7.4886
    -7.4837  -7.4657  -7.4013  -7.3954  -7.3935  -7.3931  -7.3762  -7.3572
    -7.3498  -7.2721  -7.2322  -7.1492  -7.1289  -7.1094  -7.1014  -7.0991
    -7.0977  -7.0770  -7.0700  -7.0508  -7.0438  -7.0386  -7.0341  -7.0213
    -7.0003  -6.9767  -6.9641  -6.9575  -6.9539  -6.9535  -6.9243  -6.9088
    -6.8960  -6.8669  -6.8492  -6.8468  -6.8424  -6.8304  -6.8171  -6.8049
    -6.7926  -6.7915  -6.7874  -6.7613  -6.7332  -6.7278  -6.7011  -6.6869
    -6.6632  -6.6501  -6.6250  -6.6059  -6.5988  -6.5757  -6.5675  -6.5520
    -6.5513  -6.5387  -6.5377  -6.5375  -6.5371  -6.5248  -6.5206  -6.5201
    -6.5198  -6.5184  -6.5120  -6.5118  -6.5117  -6.5117  -6.4721  -6.4559
    -6.4392  -6.3946  -6.3838  -6.3482  -6.3449  -6.3085  -6.2609  -6.2574
    -6.2528  -6.2510  -6.2449  -6.2346  -6.2177  -6.2104  -6.2100  -6.2058
    -6.2055  -6.2017  -6.1951  -6.1872  -6.1838  -6.1750  -6.1673  -6.1529
    -6.1416  -6.1364  -6.1330  -6.1301  -6.1019  -5.9487  -5.9355  -5.9189
    -5.9089  -5.8733  -5.8508  -5.8325  -5.8200  -5.7826  -5.7775  -5.6950
    -5.6825  -5.6574  -5.6247  -5.5557  -5.5441  -5.5080  -5.4710  -5.3881
    -5.3488  -4.1609  -4.0594  -4.0201  -4.0198  -3.9941  -3.9366  -3.8598
    -3.8588  -3.8466  -3.8419  -3.7999  -3.7743  -3.7737  -3.7644  -3.7581
    -3.7522  -3.7419  -3.7365  -3.7300  -3.7274  -3.6843  -3.6550  -3.6254
    -3.6101  -3.5867  -3.5649  -3.5377  -3.5334  -3.5319  -3.5304  -3.4952
    -3.4863  -3.4834  -3.4801  -3.4595  -3.4570  -3.4480  -3.4448  -3.4418
    -3.4317  -3.4180  -3.4111  -3.4083  -3.4080  -3.4065  -3.3989  -3.3962
    -3.3864  -3.3782  -3.3753  -3.3593  -3.3562  -3.3479  -3.3438  -3.3245
    -3.3129  -3.2855  -3.2808  -3.2795  -3.2770  -3.2759  -3.2710  -3.2685
    -3.2604  -3.2435  -3.2338  -3.2229  -3.2200  -3.2133  -3.2119  -3.2084
    -3.2063  -3.2024  -3.2011  -3.1791  -3.1758  -3.1667  -3.1651  -3.1604
    -3.1587  -3.1438  -3.1431  -3.1401  -3.1316  -3.1251  -3.1182  -3.1111
    -3.1085  -3.1029  -3.0954  -3.0931  -3.0931  -3.0892  -3.0724  -3.0486
    -3.0310  -3.0132  -3.0080  -3.0036  -2.9975  -2.9936  -2.9900  -2.9583
    -2.9569  -2.9551  -2.9547  -2.9522  -2.9517  -2.9443  -2.9431  -2.9414
    -2.9353  -2.9345  -2.9338  -2.9219  -2.9183  -2.9158  -2.9092  -2.9077
    -2.9067  -2.9010  -2.9003  -2.8953  -2.8860  -2.8791  -2.8779  -2.8744
    -2.8706  -2.8637  -2.8613  -2.8569  -2.8426  -2.8312  -2.8282  -2.8198
    -2.8152  -2.8129  -2.8040  -2.7947  -2.7821  -2.7279  -2.7250  -2.7212
    -2.7202  -2.6773  -2.6583  -2.6471  -2.6415  -2.5551  -2.5404  -2.5230
    -2.5044  -2.4969  -2.4866  -2.4787  -2.4747  -2.4668  -2.4591  -2.4583
    -2.4558  -2.4550  -2.4327  -2.3521  -2.3370  -2.3311  -2.3284  -2.3251
    -2.3159  -2.3073  -2.2957  -2.2712

          k =-0.5000-0.2887 0.0000 (386352 PWs)   bands (ev):

  -102.9337 -88.0408 -71.2449 -71.2285 -71.2226 -71.2219 -71.2078 -71.2072
   -71.1987 -66.5523 -66.5522 -66.5522 -66.5522 -66.5510 -66.5509 -66.5481
   -66.5479 -66.5416 -66.5416 -66.5416 -66.5415 -66.5403 -66.5403 -66.5392
   -66.5309 -66.5271 -66.5266 -66.5265 -66.5265 -66.5265 -66.5265 -66.5265
   -66.5264 -66.5263 -66.5263 -66.5252 -66.5252 -66.5252 -66.5252 -66.5221
   -66.5221 -66.5220 -66.5219 -66.5207 -66.5207 -66.5194 -66.5159 -66.5158
   -66.5158 -66.5158 -66.5158 -66.5158 -66.5157 -66.5155 -66.5145 -66.5145
   -66.5144 -66.5144 -66.5142 -66.5113 -66.5113 -66.5113 -66.5113 -66.5100
   -66.5100 -66.5099 -66.5078 -66.5000 -66.4951 -66.4947 -66.4895 -66.4745
   -66.4734 -57.1870 -57.1576 -57.1569 -53.8683 -53.8425 -53.8419 -40.8543
   -40.8543 -40.8542 -40.8542 -40.8542 -40.8542 -40.8542 -40.8540 -40.8536
   -40.8536 -40.8536 -40.8536 -40.8504 -40.8410 -40.8376 -40.8275 -40.8274
   -40.8274 -40.8274 -40.8274 -40.8267 -40.8267 -40.8199 -40.8176 -40.8154
   -40.8153 -40.8153 -40.8153 -40.8147 -40.8147 -40.7984 -40.7790 -40.7681
   -40.7647 -40.7647 -40.7647 -40.7647 -40.7646 -40.7646 -40.7646 -40.7646
   -40.7639 -40.7639 -40.7639 -40.7639 -40.7506 -40.7441 -40.7417 -40.7351
   -40.7111 -40.7059 -40.7059 -40.7059 -40.7059 -40.7053 -40.7053 -40.7011
   -40.6964 -40.6964 -40.6964 -40.6963 -40.6955 -40.6955 -40.6908 -40.6851
   -40.6851 -40.6850 -40.6850 -40.6844 -40.6844 -40.6776 -40.6737 -40.6676
   -40.6582 -40.6570 -40.6557 -40.6555 -40.6555 -40.6554 -40.6554 -40.6554
   -40.6554 -40.6553 -40.6553 -40.6548 -40.6548 -40.6548 -40.6548 -40.6486
   -40.6468 -40.6467 -40.6467 -40.6467 -40.6460 -40.6460 -40.6422 -40.6370
   -40.6349 -40.6349 -40.6349 -40.6348 -40.6345 -40.6345 -40.6344 -40.6344
   -40.6344 -40.6344 -40.6343 -40.6342 -40.6340 -40.6340 -40.6337 -40.6337
   -40.6337 -40.6337 -40.6334 -40.6283 -40.6257 -40.6257 -40.6257 -40.6257
   -40.6254 -40.6250 -40.6250 -40.6202 -40.6162 -40.6154 -40.6126 -40.6042
   -40.6040 -40.6040 -40.6040 -40.6040 -40.6039 -40.6038 -40.6037 -40.6031
   -40.6031 -40.6030 -40.6030 -40.5900 -40.5882 -40.5878 -40.5850 -40.5692
   -40.5692 -40.5692 -40.5692 -40.5692 -40.5692 -40.5692 -40.5692 -40.5683
   -40.5683 -40.5683 -40.5683 -40.5571 -40.5571 -40.5571 -40.5570 -40.5561
   -40.5561 -40.5553 -40.5500 -40.5469 -40.5437 -40.5414 -40.5379 -40.5378
   -40.5377 -40.5376 -40.5368 -40.5368 -40.5270 -40.5230 -40.5208 -40.5208
   -40.5208 -40.5207 -40.5198 -40.5198 -40.5140 -40.4971 -40.4902 -40.4901
   -40.4901 -40.4899 -40.4891 -40.4891 -40.4890 -40.4728 -40.4616 -19.8527
   -19.8466 -19.7889 -19.7862 -19.6899 -19.6879 -19.5871 -19.5865 -19.4160
   -19.3975 -19.3549 -19.3464 -19.2615 -19.2560 -19.1614 -19.1596 -18.8470
   -18.8347 -18.7904 -18.7233 -18.6828 -18.6756 -18.6555 -18.6545 -18.6532
   -18.6449 -18.6238 -18.6095 -18.5868 -18.5831 -18.5657 -18.5630 -18.5320
   -18.5258 -18.4987 -18.4895 -18.4855 -18.4838 -18.4669 -18.4569 -18.4428
   -18.4296 -18.4124 -18.4101 -18.4006 -18.3885 -18.3443 -18.3412 -18.3380
   -18.3331 -18.3024 -18.2848 -18.2657 -18.2600 -18.2434 -18.2199 -18.1958
   -18.1849 -18.1821 -18.1730 -18.1300 -18.1294 -18.1182 -18.1080 -18.0735
   -18.0705 -18.0527 -18.0457 -18.0382 -18.0363 -18.0313 -18.0310 -18.0222
   -18.0222 -18.0049 -18.0036 -18.0015 -17.9994 -17.9919 -17.9908 -17.9822
   -17.9781 -17.9751 -17.9741 -17.9434 -17.9424 -17.9380 -17.9373 -17.9339
   -17.9326 -17.9294 -17.9279 -17.9182 -17.9158 -17.8825 -17.8797 -17.8702
   -17.8701 -17.8633 -17.8623 -17.8271 -17.8245 -17.8162 -17.8161 -17.7885
   -17.7850 -17.7782 -17.7766 -17.7716 -17.7637 -17.7529 -17.7524 -17.7519
   -17.7516 -17.7509 -17.7492 -17.7376 -17.7373 -17.7178 -17.7171 -17.6938
   -17.6928 -17.6746 -17.6729 -17.6602 -17.6591 -17.6527 -17.6525 -11.8481
   -11.7328 -11.6473 -11.6299 -11.5507 -11.5103 -11.4705 -11.4586 -11.4451
   -11.4322 -11.4274 -11.4226 -11.4125 -11.4085 -11.3906 -11.3717 -11.3312
   -11.3199 -11.3145 -11.3057 -11.2803 -11.2718 -11.2585 -11.2514 -11.2387
   -11.2202 -11.2066 -11.2044 -11.1965 -11.1952 -11.1878 -11.1835 -11.1634
   -11.1495 -11.1386 -11.1363 -11.1255 -11.1226 -11.1060 -11.1026 -11.1011
   -11.0988 -11.0807 -11.0790 -11.0547 -11.0520 -11.0203 -11.0144 -11.0098
   -10.9931 -10.9648 -10.9362 -10.9116 -10.8868 -10.8802 -10.8692 -10.8589
   -10.8512 -10.8395 -10.8271 -10.8251 -10.7949 -10.7862 -10.7727 -10.7676
   -10.7669 -10.7565 -10.7522 -10.7450 -10.7447 -10.7438 -10.7430 -10.7385
   -10.7328 -10.7306 -10.7273 -10.7256 -10.7248 -10.7176 -10.7167 -10.7145
   -10.7113 -10.6770 -10.6766 -10.6760 -10.6756 -10.5890 -10.5547 -10.4821
   -10.4774 -10.4710 -10.4601 -10.4300 -10.4047 -10.3392 -10.3251 -10.2283
   -10.2005 -10.1475 -10.1275 -10.1148 -10.0817 -10.0755 -10.0690 -10.0485
   -10.0461 -10.0347 -10.0311  -9.9948  -9.9926  -9.9695  -9.9677  -9.9640
    -9.9601  -9.9534  -9.9435  -9.9259  -9.9184  -9.8860  -9.8706  -9.8643
    -9.8560  -9.8482  -9.8428  -9.8254  -9.8237  -9.8007  -9.7928  -9.7754
    -9.7593  -9.7439  -9.7387  -9.7307  -9.7124  -9.7102  -9.7055  -9.6772
    -9.6739  -9.6451  -9.6253  -9.6196  -9.6109  -9.5912  -9.5840  -9.5676
    -9.5566  -9.5493  -9.5342  -9.5193  -9.5041  -9.5039  -9.4837  -9.4776
    -9.4726  -9.4694  -9.4511  -9.4262  -9.4228  -9.4211  -9.4090  -9.4067
    -9.4003  -9.3930  -9.3900  -9.3861  -9.3812  -9.3630  -9.3600  -9.3305
    -9.3029  -9.2983  -9.2807  -9.2373  -9.2046  -9.1889  -9.1693  -9.1599
    -9.1512  -9.1327  -9.1290  -9.1191  -9.1023  -9.0982  -9.0893  -9.0633
    -9.0530  -9.0442  -9.0284  -9.0221  -9.0072  -8.9913  -8.9839  -8.9761
    -8.9727  -8.9676  -8.9633  -8.9293  -8.9234  -8.9177  -8.9007  -8.8868
    -8.8861  -8.8753  -8.8650  -8.8583  -8.8491  -8.8247  -8.8232  -8.8218
    -8.8199  -8.8186  -8.8155  -8.8093  -8.8041  -8.8022  -8.7990  -8.7986
    -8.7911  -8.7895  -8.7850  -8.7734  -8.7731  -8.7716  -8.7657  -8.7636
    -8.7505  -8.7263  -8.7259  -8.7223  -8.7208  -8.7172  -8.7168  -8.6958
    -8.6953  -8.6711  -8.6671  -8.6656  -8.6614  -8.6594  -8.6430  -8.6378
    -8.5860  -8.5853  -8.5726  -8.5436  -8.5235  -8.4380  -8.4354  -8.3958
    -8.3860  -8.3775  -8.3672  -8.3078  -8.2856  -8.2619  -8.2150  -8.1957
    -8.1787  -8.1413  -8.0609  -8.0607  -8.0526  -8.0518  -8.0420  -8.0404
    -8.0357  -8.0067  -8.0000  -7.9884  -7.9589  -7.9436  -7.9033  -7.9015
    -7.8866  -7.8436  -7.8066  -7.7889  -7.7732  -7.7709  -7.7701  -7.7596
    -7.7526  -7.7502  -7.7430  -7.7368  -7.7364  -7.7340  -7.7295  -7.7248
    -7.7236  -7.7216  -7.7189  -7.7150  -7.7133  -7.7111  -7.7068  -7.7020
    -7.7012  -7.6975  -7.6974  -7.6956  -7.6925  -7.6913  -7.6908  -7.6740
    -7.6710  -7.6636  -7.6611  -7.6597  -7.6559  -7.6299  -7.6295  -7.6292
    -7.6289  -7.6015  -7.6001  -7.5992  -7.5987  -7.5913  -7.5874  -7.5855
    -7.5739  -7.5618  -7.5509  -7.5423  -7.5404  -7.5395  -7.5356  -7.5347
    -7.5250  -7.5179  -7.5173  -7.5011  -7.4969  -7.4967  -7.4945  -7.4886
    -7.4837  -7.4657  -7.4013  -7.3954  -7.3935  -7.3931  -7.3762  -7.3572
    -7.3498  -7.2721  -7.2322  -7.1492  -7.1290  -7.1094  -7.1014  -7.0991
    -7.0977  -7.0770  -7.0700  -7.0508  -7.0438  -7.0386  -7.0341  -7.0213
    -7.0003  -6.9767  -6.9641  -6.9575  -6.9539  -6.9535  -6.9243  -6.9088
    -6.8960  -6.8669  -6.8492  -6.8468  -6.8424  -6.8304  -6.8171  -6.8049
    -6.7926  -6.7915  -6.7874  -6.7613  -6.7332  -6.7278  -6.7011  -6.6869
    -6.6632  -6.6501  -6.6250  -6.6059  -6.5988  -6.5756  -6.5675  -6.5520
    -6.5513  -6.5387  -6.5377  -6.5375  -6.5371  -6.5248  -6.5206  -6.5201
    -6.5198  -6.5184  -6.5120  -6.5118  -6.5117  -6.5116  -6.4721  -6.4558
    -6.4393  -6.3946  -6.3838  -6.3482  -6.3449  -6.3086  -6.2609  -6.2574
    -6.2528  -6.2511  -6.2449  -6.2346  -6.2177  -6.2104  -6.2100  -6.2058
    -6.2055  -6.2017  -6.1951  -6.1872  -6.1838  -6.1750  -6.1673  -6.1529
    -6.1417  -6.1364  -6.1331  -6.1301  -6.1019  -5.9487  -5.9355  -5.9188
    -5.9089  -5.8733  -5.8508  -5.8325  -5.8200  -5.7826  -5.7775  -5.6950
    -5.6824  -5.6574  -5.6247  -5.5557  -5.5440  -5.5080  -5.4710  -5.3880
    -5.3489  -4.1608  -4.0594  -4.0201  -4.0197  -3.9940  -3.9368  -3.8597
    -3.8588  -3.8464  -3.8416  -3.7999  -3.7742  -3.7736  -3.7645  -3.7582
    -3.7523  -3.7422  -3.7367  -3.7302  -3.7275  -3.6842  -3.6551  -3.6251
    -3.6101  -3.5868  -3.5649  -3.5378  -3.5335  -3.5320  -3.5304  -3.4952
    -3.4864  -3.4832  -3.4801  -3.4594  -3.4570  -3.4480  -3.4448  -3.4418
    -3.4316  -3.4178  -3.4111  -3.4080  -3.4078  -3.4065  -3.3989  -3.3961
    -3.3865  -3.3783  -3.3755  -3.3592  -3.3559  -3.3478  -3.3438  -3.3245
    -3.3128  -3.2855  -3.2808  -3.2794  -3.2769  -3.2759  -3.2709  -3.2684
    -3.2604  -3.2436  -3.2337  -3.2227  -3.2196  -3.2129  -3.2118  -3.2082
    -3.2060  -3.2022  -3.2008  -3.1790  -3.1756  -3.1667  -3.1651  -3.1603
    -3.1587  -3.1437  -3.1430  -3.1402  -3.1316  -3.1253  -3.1182  -3.1111
    -3.1085  -3.1032  -3.0953  -3.0930  -3.0929  -3.0889  -3.0724  -3.0478
    -3.0307  -3.0131  -3.0080  -3.0035  -2.9973  -2.9934  -2.9899  -2.9587
    -2.9570  -2.9550  -2.9547  -2.9525  -2.9520  -2.9447  -2.9432  -2.9415
    -2.9355  -2.9347  -2.9340  -2.9219  -2.9183  -2.9157  -2.9093  -2.9075
    -2.9067  -2.9011  -2.9001  -2.8952  -2.8861  -2.8791  -2.8779  -2.8743
    -2.8707  -2.8638  -2.8612  -2.8575  -2.8431  -2.8324  -2.8284  -2.8203
    -2.8154  -2.8124  -2.8039  -2.7927  -2.7819  -2.7282  -2.7256  -2.7215
    -2.7206  -2.6772  -2.6589  -2.6481  -2.6413  -2.5525  -2.5402  -2.5198
    -2.5036  -2.4921  -2.4837  -2.4758  -2.4661  -2.4642  -2.4589  -2.4575
    -2.4506  -2.4501  -2.4214  -2.3496  -2.3366  -2.3309  -2.3293  -2.3248
    -2.3128  -2.3030  -2.2906  -2.2718

          k =-0.5000-0.8660 0.0000 (386352 PWs)   bands (ev):

  -102.9337 -88.0408 -71.2449 -71.2285 -71.2226 -71.2219 -71.2078 -71.2072
   -71.1987 -66.5523 -66.5522 -66.5522 -66.5522 -66.5512 -66.5510 -66.5509
   -66.5416 -66.5416 -66.5416 -66.5415 -66.5409 -66.5403 -66.5403 -66.5396
   -66.5370 -66.5294 -66.5267 -66.5265 -66.5265 -66.5265 -66.5265 -66.5265
   -66.5263 -66.5263 -66.5252 -66.5252 -66.5252 -66.5252 -66.5222 -66.5221
   -66.5221 -66.5220 -66.5220 -66.5207 -66.5207 -66.5174 -66.5159 -66.5158
   -66.5158 -66.5158 -66.5158 -66.5158 -66.5157 -66.5155 -66.5145 -66.5145
   -66.5145 -66.5144 -66.5141 -66.5113 -66.5113 -66.5113 -66.5112 -66.5100
   -66.5100 -66.5099 -66.5090 -66.5008 -66.4955 -66.4943 -66.4892 -66.4740
   -66.4739 -57.1870 -57.1576 -57.1569 -53.8683 -53.8425 -53.8419 -40.8586
   -40.8543 -40.8542 -40.8542 -40.8542 -40.8542 -40.8542 -40.8542 -40.8541
   -40.8536 -40.8536 -40.8536 -40.8536 -40.8428 -40.8327 -40.8275 -40.8274
   -40.8274 -40.8273 -40.8267 -40.8267 -40.8219 -40.8154 -40.8153 -40.8153
   -40.8153 -40.8153 -40.8147 -40.8147 -40.8113 -40.8000 -40.7858 -40.7681
   -40.7647 -40.7647 -40.7647 -40.7647 -40.7647 -40.7647 -40.7646 -40.7646
   -40.7639 -40.7639 -40.7639 -40.7639 -40.7478 -40.7465 -40.7464 -40.7384
   -40.7096 -40.7060 -40.7059 -40.7059 -40.7058 -40.7053 -40.7053 -40.7051
   -40.6964 -40.6964 -40.6964 -40.6963 -40.6955 -40.6955 -40.6851 -40.6851
   -40.6850 -40.6850 -40.6844 -40.6844 -40.6833 -40.6779 -40.6766 -40.6706
   -40.6604 -40.6556 -40.6555 -40.6554 -40.6554 -40.6554 -40.6554 -40.6553
   -40.6553 -40.6548 -40.6548 -40.6548 -40.6548 -40.6517 -40.6512 -40.6468
   -40.6467 -40.6467 -40.6467 -40.6466 -40.6460 -40.6460 -40.6447 -40.6423
   -40.6349 -40.6349 -40.6349 -40.6348 -40.6345 -40.6345 -40.6344 -40.6344
   -40.6344 -40.6344 -40.6344 -40.6341 -40.6340 -40.6340 -40.6337 -40.6337
   -40.6337 -40.6337 -40.6304 -40.6298 -40.6257 -40.6257 -40.6257 -40.6257
   -40.6250 -40.6250 -40.6235 -40.6212 -40.6180 -40.6132 -40.6122 -40.6041
   -40.6040 -40.6040 -40.6039 -40.6039 -40.6039 -40.6039 -40.6038 -40.6030
   -40.6030 -40.6030 -40.6030 -40.5978 -40.5873 -40.5828 -40.5762 -40.5692
   -40.5692 -40.5692 -40.5692 -40.5692 -40.5692 -40.5692 -40.5691 -40.5683
   -40.5683 -40.5683 -40.5683 -40.5571 -40.5571 -40.5571 -40.5570 -40.5561
   -40.5561 -40.5548 -40.5513 -40.5495 -40.5461 -40.5408 -40.5378 -40.5378
   -40.5377 -40.5376 -40.5368 -40.5368 -40.5240 -40.5208 -40.5208 -40.5208
   -40.5207 -40.5202 -40.5198 -40.5198 -40.5155 -40.4983 -40.4956 -40.4901
   -40.4901 -40.4901 -40.4900 -40.4891 -40.4891 -40.4780 -40.4541 -19.8911
   -19.8210 -19.7957 -19.7600 -19.6945 -19.6690 -19.5882 -19.5799 -19.4415
   -19.4026 -19.3593 -19.3498 -19.2648 -19.2584 -19.1626 -19.1606 -18.8341
   -18.8063 -18.7833 -18.7352 -18.7098 -18.6624 -18.6560 -18.6542 -18.6540
   -18.6471 -18.6173 -18.6097 -18.5841 -18.5832 -18.5763 -18.5391 -18.5256
   -18.5196 -18.5088 -18.4862 -18.4837 -18.4804 -18.4748 -18.4721 -18.4288
   -18.4225 -18.4121 -18.4108 -18.4028 -18.3706 -18.3497 -18.3457 -18.3446
   -18.3313 -18.3104 -18.2923 -18.2746 -18.2648 -18.2484 -18.2372 -18.1969
   -18.1940 -18.1713 -18.1665 -18.1551 -18.1342 -18.1068 -18.1005 -18.0943
   -18.0693 -18.0614 -18.0411 -18.0352 -18.0348 -18.0327 -18.0296 -18.0109
   -18.0070 -18.0063 -18.0048 -18.0023 -17.9997 -17.9971 -17.9898 -17.9852
   -17.9744 -17.9658 -17.9656 -17.9461 -17.9396 -17.9379 -17.9361 -17.9350
   -17.9300 -17.9244 -17.9228 -17.9214 -17.9109 -17.8895 -17.8741 -17.8686
   -17.8632 -17.8553 -17.8539 -17.8315 -17.8276 -17.8180 -17.8094 -17.8080
   -17.7821 -17.7789 -17.7772 -17.7714 -17.7710 -17.7533 -17.7524 -17.7520
   -17.7518 -17.7503 -17.7500 -17.7391 -17.7372 -17.7200 -17.7163 -17.6953
   -17.6920 -17.6762 -17.6719 -17.6609 -17.6582 -17.6528 -17.6524 -11.9293
   -11.6616 -11.6521 -11.5905 -11.5377 -11.4702 -11.4566 -11.4473 -11.4368
   -11.4366 -11.4307 -11.4159 -11.4116 -11.4060 -11.3826 -11.3690 -11.3683
   -11.3421 -11.3198 -11.3032 -11.2881 -11.2735 -11.2612 -11.2580 -11.2487
   -11.2273 -11.2072 -11.2006 -11.2002 -11.1921 -11.1905 -11.1891 -11.1822
   -11.1509 -11.1398 -11.1386 -11.1303 -11.1181 -11.1033 -11.1024 -11.1004
   -11.0914 -11.0838 -11.0802 -11.0801 -11.0497 -11.0325 -11.0041 -10.9954
   -10.9900 -10.9704 -10.9244 -10.9008 -10.8833 -10.8774 -10.8742 -10.8648
   -10.8525 -10.8465 -10.8346 -10.8248 -10.7954 -10.7869 -10.7697 -10.7659
   -10.7628 -10.7593 -10.7476 -10.7455 -10.7449 -10.7436 -10.7411 -10.7333
   -10.7319 -10.7282 -10.7273 -10.7247 -10.7244 -10.7174 -10.7165 -10.7146
   -10.7037 -10.6770 -10.6767 -10.6761 -10.6745 -10.6179 -10.5605 -10.4881
   -10.4756 -10.4612 -10.4602 -10.4311 -10.3989 -10.3487 -10.3073 -10.2291
   -10.1820 -10.1772 -10.1508 -10.1105 -10.1019 -10.0739 -10.0540 -10.0529
   -10.0479 -10.0242 -10.0039  -9.9958  -9.9930  -9.9846  -9.9821  -9.9686
    -9.9562  -9.9432  -9.9370  -9.9340  -9.9134  -9.8919  -9.8689  -9.8553
    -9.8509  -9.8490  -9.8364  -9.8269  -9.8256  -9.8157  -9.7941  -9.7914
    -9.7678  -9.7398  -9.7328  -9.7298  -9.7260  -9.7070  -9.6979  -9.6821
    -9.6671  -9.6570  -9.6495  -9.6370  -9.5991  -9.5945  -9.5858  -9.5786
    -9.5512  -9.5472  -9.5297  -9.5122  -9.5088  -9.5013  -9.4838  -9.4755
    -9.4744  -9.4585  -9.4503  -9.4230  -9.4228  -9.4190  -9.4116  -9.4087
    -9.3964  -9.3936  -9.3895  -9.3793  -9.3635  -9.3630  -9.3541  -9.3139
    -9.2886  -9.2647  -9.2445  -9.2328  -9.2061  -9.1877  -9.1548  -9.1535
    -9.1454  -9.1412  -9.1293  -9.1270  -9.1169  -9.0828  -9.0763  -9.0707
    -9.0513  -9.0394  -9.0275  -9.0234  -9.0060  -9.0023  -8.9901  -8.9815
    -8.9807  -8.9653  -8.9592  -8.9546  -8.9306  -8.9242  -8.8947  -8.8868
    -8.8850  -8.8841  -8.8643  -8.8588  -8.8536  -8.8401  -8.8368  -8.8291
    -8.8212  -8.8188  -8.8182  -8.8176  -8.8136  -8.8050  -8.8023  -8.8014
    -8.7919  -8.7855  -8.7781  -8.7752  -8.7733  -8.7727  -8.7659  -8.7615
    -8.7376  -8.7340  -8.7275  -8.7211  -8.7161  -8.7153  -8.7140  -8.6975
    -8.6907  -8.6724  -8.6668  -8.6651  -8.6642  -8.6618  -8.6552  -8.6374
[...]
     atom  170 type  1   force =    -0.00001091   -0.00001679    0.00000714
     atom  171 type  2   force =    -0.00000187   -0.00000118    0.00000483
     atom  172 type  2   force =     0.00000182   -0.00000094    0.00161514
     atom  173 type  2   force =     0.00000179   -0.00000139   -0.00235909
     atom  174 type  2   force =    -0.00000188   -0.00000054   -0.00000688
     atom  175 type  1   force =    -0.00000268   -0.00000814    0.00002030
     atom  176 type  1   force =     0.00006094    0.00002736   -0.00008488
     atom  177 type  2   force =     0.00006016    0.00049482    0.00035436
     atom  178 type  2   force =    -0.00000560   -0.00000707    0.00000434
     atom  179 type  2   force =    -0.00000107   -0.00000449    0.00005187
     atom  180 type  2   force =    -0.00010777   -0.00004136   -0.00026333
     atom  181 type  1   force =     0.00000340   -0.00000137    0.00068878
     atom  182 type  1   force =    -0.00000698   -0.00001098   -0.00000159
     atom  183 type  2   force =     0.00000014   -0.00000245    0.00000606
     atom  184 type  2   force =     0.00000180   -0.00000074    0.00161517
     atom  185 type  2   force =     0.00000171   -0.00000134   -0.00235909
     atom  186 type  2   force =     0.00000014   -0.00000657   -0.00000020
     atom  187 type  1   force =     0.00000041    0.00002701    0.00003394
     atom  188 type  1   force =    -0.00048781    0.00028397    0.00034711
     atom  189 type  2   force =    -0.00004488   -0.00048023   -0.00023111
     atom  190 type  2   force =     0.00001323    0.00000686   -0.00004048
     atom  191 type  2   force =     0.00000337    0.00000196    0.00003379
     atom  192 type  2   force =     0.00005595   -0.00068803   -0.00016547
     atom  193 type  3   force =    -0.00030091    0.00017371   -0.00047571
     atom  194 type  4   force =     0.00005138   -0.00003039    0.00045226

     Total force =     0.003825     Total SCF correction =     0.000690
     SCF correction compared to forces is large: reduce conv_thr to get better values
     Energy error            =      2.3E-05 Ry
     Gradient error          =      9.4E-04 Ry/Bohr

     bfgs converged in  16 scf cycles and  15 bfgs steps
     (criteria: energy <  1.0E-04 Ry, force <  1.0E-03 Ry/Bohr)

     End of BFGS Geometry Optimization

     Final energy             =  -33980.2822917935 Ry

     File ./outdir/pwscf.bfgs deleted, as requested
Begin final coordinates

ATOMIC_POSITIONS (angstrom)
Mo               0.0000119917        1.8193638619       -9.1672481230    0   0   0
Mo               1.5756136568        0.9097075315       -3.0554901653    0   0   0
S                0.0000188998        1.8193822938       -4.6232556019    0   0   0
S                1.5756321638        0.9096773839       -7.6014065489    0   0   0
S                1.5756326175        0.9096785128      -10.7330757790    0   0   0
S                0.0000189190        1.8193860094       -1.4877129945    0   0   0
Mo              -0.0001114041        1.8195420579        3.0561582003
Mo               1.5913206007        0.9051093496        9.1583259032
S               -0.0200120100        1.8108356809        7.6289891836
S                1.5751188184        0.9101099562        4.6241378561
S                1.5756401173        0.9097285122        1.4885492710
S                0.0872249932        1.8503847399       10.7787160531
Mo              -1.5756053507        4.5484193819       -9.1672481230    0   0   0
Mo               0.0000378379        3.6387394919       -3.0554952701    0   0   0
S               -1.5755913433        4.5484363582       -4.6232494962    0   0   0
S                0.0000148214        3.6387329039       -7.6014065489    0   0   0
S                0.0000152751        3.6387340328      -10.7330757790    0   0   0
S               -1.5755906502        4.5484413613       -1.4877305502    0   0   0
Mo              -1.5752989651        4.5482979807        3.0569597188
Mo              -0.0035775452        3.6377818190        9.1786138586
S               -1.5728998093        4.5521947342        7.5993226656
S                0.0006190258        3.6386389058        4.6250579407
S               -0.0001206140        3.6388719871        1.4885861122
S               -1.5809608928        4.5478389648       10.7383539334
Mo              -3.1512226931        7.2774749019       -9.1672481230    0   0   0
Mo              -1.5755910988        6.3678216792       -3.0555115988    0   0   0
S               -3.1512162438        7.2774954350       -4.6232578178    0   0   0
S               -1.5756025210        6.3677884239       -7.6014065489    0   0   0
S               -1.5756020673        6.3677895528      -10.7330757790    0   0   0
S               -3.1512127704        7.2774877076       -1.4877200710    0   0   0
Mo              -3.1508710271        7.2773551409        3.0560035675
Mo              -1.5926597927        6.3657973713        9.1762681904
S               -3.1435592540        7.2766039587        7.5853156666
S               -1.5747550125        6.3680665893        4.6241336790
S               -1.5754933243        6.3673562026        1.4883558534
S               -3.1739092284        7.2813077283       10.7284413924
Mo              -4.7268400355       10.0065304219       -9.1672481230    0   0   0
Mo              -3.1512405618        9.0968403586       -3.0554816746    0   0   0
S               -4.7268341792       10.0065523623       -4.6232463762    0   0   0
S               -3.1512198634        9.0968439439       -7.6014065489    0   0   0
S               -3.1512194097        9.0968450728      -10.7330757790    0   0   0
S               -4.7268370797       10.0065537885       -1.4877176751    0   0   0
Mo              -4.7269839785       10.0066386523        3.0564184981
Mo              -3.1503460356        9.0963930697        9.1553728433
S               -4.7225094272       10.0040843784        7.5823736182
S               -3.1509469934        9.0967140044        4.6233429394
S               -3.1512754950        9.0969021515        1.4883361440
S               -4.7214281409       10.0034505599       10.7239200565
Mo               3.1512517547        1.8193638619       -9.1672481230    0   0   0
Mo               4.7269020221        0.9097289540       -3.0554823951    0   0   0
S                3.1512612351        1.8193882564       -4.6232320683    0   0   0
S                4.7268719268        0.9096773839       -7.6014065489    0   0   0
S                4.7268723805        0.9096785128      -10.7330757790    0   0   0
S                3.1512592485        1.8193890201       -1.4877261251    0   0   0
Mo               3.1511577236        1.8195169126        3.0563723303
Mo               4.7257349232        0.9102227080        9.1461840661
S                3.1509563965        1.8246600276        7.5800107238
S                4.7271594812        0.9094716085        4.6235742305
S                4.7268579312        0.9097047108        1.4884111095
S                3.1713599025        1.8011519933       10.7295872950
Mo               1.5756344123        4.5484193819       -9.1672481230    0   0   0
Mo               3.1512756394        3.6387769522       -3.0554814834    0   0   0
S                1.5756504879        4.5484423799       -4.6232390542    0   0   0
S                3.1512545844        3.6387329039       -7.6014065489    0   0   0
S                3.1512550381        3.6387340328      -10.7330757790    0   0   0
S                1.5756466253        4.5484431864       -1.4877251801    0   0   0
Mo               1.5754835938        4.5487262120        3.0560941952
Mo               3.1657149969        3.6260542131        9.1703299865
S                1.5772917900        4.5770640742        7.6433921718
S                3.1507469021        3.6393382700        4.6239522753
S                3.1511964143        3.6387743449        1.4883770880
S                1.5867469174        4.4085175372       10.8118256622
Mo               0.0000170699        7.2774749019       -9.1672481230    0   0   0
Mo               1.5756764447        6.3678236689       -3.0554877708    0   0   0
S                0.0000381981        7.2774979204       -4.6232454413    0   0   0
S                1.5756372420        6.3677884239       -7.6014065489    0   0   0
S                1.5756376957        6.3677895528      -10.7330757790    0   0   0
S                0.0000328088        7.2774946042       -1.4877307940    0   0   0
Mo               0.0003194327        7.2773263013        3.0556724989
Mo               1.5768825920        6.3671183395        9.2250191061
S                0.0226865537        7.2644355524        7.6496729892
S                1.5753587518        6.3679731027        4.6241838515
S                1.5757336577        6.3677570354        1.4879005494
S               -0.1346795798        7.3552983631       10.8160116890
Mo              -1.5756002725       10.0065304219       -9.1672481230    0   0   0
Mo               0.0000873425        9.0968676911       -3.0554912329    0   0   0
S               -1.5755883952       10.0065504530       -4.6232240150    0   0   0
S                0.0000198996        9.0968439439       -7.6014065489    0   0   0
S                0.0000203533        9.0968450728      -10.7330757790    0   0   0
S               -1.5755859047       10.0065492576       -1.4877362381    0   0   0
Mo              -1.5752967041       10.0063238187        3.0560039429
Mo              -0.0067400956        9.1126911670        9.1762626966
S               -1.5709736828       10.0004155273        7.5853158945
S                0.0002251945        9.0960094340        4.6241343424
S                0.0004719164        9.0970035703        1.4883561531
S               -1.5902154185       10.0243409470       10.7284412117
Mo               6.3024915177        1.8193638619       -9.1672481230    0   0   0
Mo               7.8781001445        0.9096521684       -3.0554919963    0   0   0
S                6.3025008696        1.8193826232       -4.6232480596    0   0   0
S                7.8781116898        0.9096773839       -7.6014065489    0   0   0
S                7.8781121435        0.9096785128      -10.7330757790    0   0   0
S                6.3025042007        1.8193849068       -1.4877147524    0   0   0
Mo               6.3027474060        1.8192642487        3.0560630258
Mo               7.8628035833        0.9098212583        9.1684268151
S                6.3060826346        1.8215276571        7.5835417208
S                7.8787519769        0.9099172811        4.6242997315
S                7.8781827608        0.9092762175        1.4884718466
S                6.2855521547        1.8204645349       10.7274679743
Mo               4.7268741753        4.5484193819       -9.1672481230    0   0   0
Mo               6.3024679138        3.6387501714       -3.0554895197    0   0   0
S                4.7268748770        4.5484386753       -4.6232519432    0   0   0
S                6.3024943474        3.6387329039       -7.6014065489    0   0   0
S                6.3024948011        3.6387340328      -10.7330757790    0   0   0
S                4.7268770533        4.5484432419       -1.4877137856    0   0   0
Mo               4.7266754679        4.5485611683        3.0561489879
Mo               6.3033266616        3.6383027529        9.1594443354
S                4.7264223747        4.5487209179        7.5943849848
S                6.3024704440        3.6387724306        4.6233161413
S                6.3024664616        3.6387762237        1.4882942622
S                4.7353155794        4.5435999031       10.7350562544
Mo               3.1512568329        7.2774749019       -9.1672481230    0   0   0
Mo               4.7268384135        6.3678043337       -3.0554959052    0   0   0
S                3.1512606125        7.2774972547       -4.6232589675    0   0   0
S                4.7268770050        6.3677884239       -7.6014065489    0   0   0
S                4.7268774587        6.3677895528      -10.7330757790    0   0   0
S                3.1512629079        7.2774963749       -1.4877081835    0   0   0
Mo               3.1509398142        7.2774842307        3.0560938708
Mo               4.7451328269        6.3616748548        9.1703171511
S                3.1273186762        7.2617764184        7.6433787499
S                4.7261225517        6.3679648121        4.6239564232
S                4.7268374808        6.3678578541        1.4883745891
S                3.2780143325        7.3378710288       10.8118115078
Mo               1.5756394905       10.0065304219       -9.1672481230    0   0   0
Mo               3.1512330605        9.0968514907       -3.0554878870    0   0   0
S                1.5756499830       10.0065443759       -4.6232632674    0   0   0
S                3.1512596626        9.0968439439       -7.6014065489    0   0   0
S                3.1512601163        9.0968450728      -10.7330757790    0   0   0
S                1.5756503041       10.0065459699       -1.4877044377    0   0   0
Mo               1.5759192392       10.0063640755        3.0569611431
Mo               3.1503321001        9.1004964856        9.1785932039
S                1.5737642432       10.0023754214        7.5993120230
S                3.1516661926        9.0964047395        4.6250556026
S                3.1510952464        9.0969298270        1.4885906336
S                1.5735181364       10.0115304877       10.7383379339
Mo               9.4537312807        1.8193638619       -9.1672481230    0   0   0
Mo              11.0293863460        0.9096952246       -3.0554894007    0   0   0
S                9.4537395970        1.8193770750       -4.6232328036    0   0   0
S               11.0293514528        0.9096773839       -7.6014065489    0   0   0
S               11.0293519066        0.9096785128      -10.7330757790    0   0   0
S                9.4537393632        1.8193794783       -1.4877366147    0   0   0
Mo               9.4538819607        1.8193032469        3.0557850410
Mo              11.0299038977        0.9094028110        9.2135257302
S                9.4699131956        1.8100709006        7.6333519737
S               11.0291273041        0.9098339905        4.6237553330
S               11.0294722275        0.9096338470        1.4880719625
S                9.3592055068        1.8739817553       10.7801180231
Mo               7.8781139383        4.5484193819       -9.1672481230    0   0   0
Mo               9.4537539161        3.6387607911       -3.0554933032    0   0   0
S                7.8781175448        4.5484378232       -4.6232366318    0   0   0
S                9.4537341104        3.6387329039       -7.6014065489    0   0   0
S                9.4537345641        3.6387340328      -10.7330757790    0   0   0
S                7.8781194018        4.5484411585       -1.4877377057    0   0   0
Mo               7.8783513482        4.5482853354        3.0560634940
Mo               9.4460016655        3.6519907555        9.1684335759
S                7.8780869560        4.5442947424        7.5835428596
S                9.4538713409        3.6380982118        4.6242990642
S                9.4541407670        3.6389118623        1.4884708139
S                7.8687359516        4.5626155272       10.7274679703
Mo               6.3024965959        7.2774749019       -9.1672481230    0   0   0
Mo               7.8781361655        6.3678242352       -3.0555014130    0   0   0
S                6.3024973331        7.2774953556       -4.6232392528    0   0   0
S                7.8781167680        6.3677884239       -7.6014065489    0   0   0
S                7.8781172217        6.3677895528      -10.7330757790    0   0   0
S                6.3024989866        7.2774929744       -1.4877349119    0   0   0
Mo               6.3023402489        7.2775163977        3.0563747413
Mo               7.8771274868        6.3685740279        9.1461798289
S                6.2978148337        7.2751487996        7.5800007260
S                7.8784640787        6.3676789641        4.6235758729
S                7.8781097677        6.3678242774        1.4884114535
S                6.3283673472        7.2692370112       10.7295746388
Mo               4.7268792535       10.0065304219       -9.1672481230    0   0   0
Mo               6.3025111524        9.0968738021       -3.0554915260    0   0   0
S                4.7268840634       10.0065452125       -4.6232380477    0   0   0
S                6.3024994256        9.0968439439       -7.6014065489    0   0   0
S                6.3024998793        9.0968450728      -10.7330757790    0   0   0
S                4.7268847312       10.0065459141       -1.4877283294    0   0   0
Mo               4.7266891080       10.0065863525        3.0561590492
Mo               6.3143489841        9.0856102128        9.1583124458
S                4.7243004658       10.0282058706        7.6289774397
S                6.3018935332        9.0971111423        4.6241391051
S                6.3024823385        9.0968482266        1.4885499937
S                4.7436637217        9.9155331243       10.7786943646
Pt               1.5646128898        6.3741981699       11.9801421022
Pd              11.0192609193        0.9155123702       12.1055651921
End final coordinates



     Writing all to output data dir ./outdir/pwscf.save/ :
     XML data file, charge density, pseudopotentials, collected wavefunctions
 
     init_run     :    176.10s CPU    179.43s WALL (       1 calls)
     electrons    : 116456.29s CPU 117903.30s WALL (      16 calls)
     update_pot   :     25.35s CPU     26.10s WALL (      15 calls)
     forces       :   2070.16s CPU   2106.64s WALL (      16 calls)
     force_dftd3  :     10.73s CPU     11.18s WALL (      16 calls)

     Called by init_run:
     wfcinit      :    152.25s CPU    154.06s WALL (       1 calls)
     potinit      :      1.28s CPU      1.40s WALL (       1 calls)
     hinit0       :     12.97s CPU     13.05s WALL (       1 calls)

     Called by electrons:
     c_bands      : 103090.89s CPU 104064.67s WALL (     188 calls)
     sum_band     :  11949.26s CPU  12196.32s WALL (     188 calls)
     v_of_rho     :     67.73s CPU     75.75s WALL (     190 calls)
     newd         :   1200.65s CPU   1423.75s WALL (     190 calls)
     PAW_pot      :    181.56s CPU    183.17s WALL (     205 calls)
     mix_rho      :     17.22s CPU     19.97s WALL (     188 calls)
     energy_dftd3 :      6.27s CPU      6.30s WALL (      16 calls)

     Called by c_bands:
     init_us_2    :    406.00s CPU    407.94s WALL (    1632 calls)
     init_us_2:cp :    405.98s CPU    407.93s WALL (    1632 calls)
     cegterg      : 101371.29s CPU 102334.40s WALL (     769 calls)

     Called by *egterg:
     cdiaghg      :   5614.33s CPU   5823.27s WALL (    9207 calls)
     h_psi        :  51274.26s CPU  51591.86s WALL (    9330 calls)
     s_psi        :  11650.33s CPU  11723.46s WALL (    9330 calls)
     g_psi        :     92.79s CPU     93.17s WALL (    8557 calls)

     Called by h_psi:
     h_psi:calbec :  11673.78s CPU  11711.77s WALL (    9330 calls)
     vloc_psi     :  27715.01s CPU  27851.45s WALL (    9330 calls)
     add_vuspsi   :  11674.79s CPU  11747.01s WALL (    9330 calls)

     General routines
     calbec       :  16827.97s CPU  16883.22s WALL (   10398 calls)
     fft          :     78.91s CPU     86.76s WALL (    2643 calls)
     ffts         :      3.39s CPU      3.64s WALL (     378 calls)
     fftw         :  20988.11s CPU  21090.55s WALL ( 5442144 calls)
     interpolate  :      5.87s CPU      6.45s WALL (     190 calls)
 
     Parallel routines
 
     PWSCF        :   1d 9h 9m CPU   1d 9h35m WALL

 
   This run was terminated on:   2:34:58  16Mar2024            

=------------------------------------------------------------------------------=
   JOB DONE.
=------------------------------------------------------------------------------=
