
     Program PWSCF v.7.2 starts on 18Dec2023 at 13:32:32 

     This program is part of the open-source Quantum ESPRESSO suite
     for quantum simulation of materials; please cite
         "P. Giannozzi et al., J. Phys.:Condens. Matter 21 395502 (2009);
         "P. Giannozzi et al., J. Phys.:Condens. Matter 29 465901 (2017);
         "P. Giannozzi et al., J. Chem. Phys. 152 154105 (2020);
          URL http://www.quantum-espresso.org", 
     in publications or presentations arising from this work. More details at
     http://www.quantum-espresso.org/quote

     Parallel version (MPI), running on    36 processors

     MPI processes distributed on     1 nodes
     768297 MiB available memory on the printing compute node when the environment starts
 
     Waiting for input...
     Reading input from standard input
Warning: card &CELL ignored
Warning: card / ignored

     Current dimensions of program PWSCF are:
     Max number of different atomic species (ntypx) = 10
     Max number of k-points (npk) =  40000
     Max angular momentum in pseudopotentials (lmaxx) =  4
     file Mo.pbe-spn-kjpaw_psl.1.0.0.UPF: wavefunction(s)  4S 4D renormalized
     file S.pbe-n-kjpaw_psl.1.0.0.UPF: wavefunction(s)  3S 3P renormalized
     file Pt.pbe-spfn-kjpaw_psl.1.0.0.UPF: wavefunction(s)  5P 4F renormalized
     file H.pbe-kjpaw_psl.1.0.0.UPF: wavefunction(s)  1S renormalized
 
     R & G space division:  proc/nbgrp/npool/nimage =      36
     Subspace diagonalization in iterative solution of the eigenvalue problem:
     one sub-group per band group will be used
     custom distributed-memory algorithm (size of sub-group:  6*  6 procs)

 
     Parallelization info
     --------------------
     sticks:   dense  smooth     PW     G-vecs:    dense   smooth      PW
     Min         586     335     89               165416    71459    9765
     Max         587     337     90               165425    71461    9778
     Sum       21109   12085   3205              5955087  2572543  351657
 
     Using Slab Decomposition
 


     bravais-lattice index     =            0
     lattice parameter (alat)  =      23.8395  a.u.
     unit-cell volume          =   28182.8498 (a.u.)^3
     number of atoms/cell      =          146
     number of atomic types    =            4
     number of electrons       =      1281.00
     number of Kohn-Sham states=          769
     kinetic-energy cutoff     =      77.0000  Ry
     charge density cutoff     =     539.0000  Ry
     scf convergence threshold =      1.0E-06
     mixing beta               =       0.2000
     number of iterations used =            8  plain     mixing
     energy convergence thresh.=      1.0E-04
     force convergence thresh. =      1.0E-03
     Exchange-correlation= SLA  PW   PBX  PBC
                           (   1   4   3   4   0   0   0)
     nstep                     =         1000


     Effective Screening Medium Method
     =================================
     Boundary Conditions: Vacuum-Slab-Vacuum
     total charge in unit cell        =   0.0000
     grid points for fit at edges     =        4 
 

     celldm(1)=  23.839504  celldm(2)=   0.000000  celldm(3)=   0.000000
     celldm(4)=   0.000000  celldm(5)=   0.000000  celldm(6)=   0.000000

     crystal axes: (cart. coord. in units of alat)
               a(1) = (   1.000000   0.000000   0.000000 )  
               a(2) = (  -0.500001   0.866026   0.000000 )  
               a(3) = (   0.000000   0.000000   2.401941 )  

     reciprocal axes: (cart. coord. in units 2 pi/alat)
               b(1) = (  1.000000  0.577351  0.000000 )  
               b(2) = (  0.000000  1.154700  0.000000 )  
               b(3) = (  0.000000  0.000000  0.416330 )  


     PseudoPot. # 1 for Mo read from file:
     ./pseudo/Mo.pbe-spn-kjpaw_psl.1.0.0.UPF
     MD5 check sum: 317bf72632116215fd98f72de1686f13
     Pseudo is Projector augmented-wave + core cor, Zval = 14.0
     Generated using 'atomic' code by A. Dal Corso  v.7.2
     Shape of augmentation charge: PSQ
     Using radial grid of 1229 points,  6 beta functions with: 
                l(1) =   0
                l(2) =   0
                l(3) =   1
                l(4) =   1
                l(5) =   2
                l(6) =   2
     Q(r) pseudized with 0 coefficients 


     PseudoPot. # 2 for S  read from file:
     ./pseudo/S.pbe-n-kjpaw_psl.1.0.0.UPF
     MD5 check sum: 8b7b5302570d38d5e87fed6a1065abda
     Pseudo is Projector augmented-wave + core cor, Zval =  6.0
     Generated using 'atomic' code by A. Dal Corso  v.7.2
     Shape of augmentation charge: PSQ
     Using radial grid of 1151 points,  6 beta functions with: 
                l(1) =   0
                l(2) =   0
                l(3) =   1
                l(4) =   1
                l(5) =   2
                l(6) =   2
     Q(r) pseudized with 0 coefficients 


     PseudoPot. # 3 for Pt read from file:
     ./pseudo/Pt.pbe-spfn-kjpaw_psl.1.0.0.UPF
     MD5 check sum: 620096ebf4e6ebacc94de60fd67efcb5
     Pseudo is Projector augmented-wave + core cor, Zval = 32.0
     Generated using 'atomic' code by A. Dal Corso  v.7.2
     Shape of augmentation charge: PSQ
     Using radial grid of 1277 points,  8 beta functions with: 
                l(1) =   0
                l(2) =   0
                l(3) =   1
                l(4) =   1
                l(5) =   2
                l(6) =   2
                l(7) =   3
                l(8) =   3
     Q(r) pseudized with 0 coefficients 


     PseudoPot. # 4 for H  read from file:
     ./pseudo/H.pbe-kjpaw_psl.1.0.0.UPF
     MD5 check sum: b3cb3c48ee3b58cc53e4d592112d0ca6
     Pseudo is Projector augmented-wave, Zval =  1.0
     Generated using 'atomic' code by A. Dal Corso  v.7.2
     Shape of augmentation charge: PSQ
     Using radial grid of  929 points,  2 beta functions with: 
                l(1) =   0
                l(2) =   0
     Q(r) pseudized with 0 coefficients 


     atomic species   valence    mass     pseudopotential
        Mo            14.00    95.95000     Mo( 1.00)
        S              6.00    32.06000     S ( 1.00)
        Pt            32.00   195.08400     Pt( 1.00)
        H              1.00     1.00800     H ( 1.00)

     No symmetry found



   Cartesian axes

     site n.     atom                  positions (alat units)
         1           Mo  tau(   1) = (   0.1245066   0.2151403   0.4829270  )
         2           Mo  tau(   2) = (   0.1250004   0.0721694  -0.4825273  )
         3           Mo  tau(   3) = (   0.0000143   0.1443586  -0.0000404  )
         4           S   tau(   4) = (   0.0000004   0.0000006  -0.6064556  )
         5           S   tau(   5) = (   0.1249859   0.0722111  -0.1241825  )
         6           S   tau(   6) = (   0.0002990   0.1445714   0.3572522  )
         7           S   tau(   7) = (   0.0000004   0.0000005  -0.3584711  )
         8           S   tau(   8) = (   0.1250243   0.0721377   0.1241202  )
         9           S   tau(   9) = (  -0.0011552   0.1430195   0.6061730  )
        10           Mo  tau(  10) = (  -0.0014303   0.4332690   0.4829269  )
        11           Mo  tau(  11) = (   0.0000001   0.2886759  -0.4825273  )
        12           Mo  tau(  12) = (  -0.1249759   0.3608474  -0.0000404  )
        13           S   tau(  13) = (  -0.1249999   0.2165071  -0.6064556  )
        14           S   tau(  14) = (   0.0000250   0.2886908  -0.1241273  )
        15           S   tau(  15) = (  -0.1246483   0.3609863   0.3572522  )
        16           S   tau(  16) = (  -0.1249998   0.2165070  -0.3584711  )
        17           S   tau(  17) = (   0.0000923   0.2887297   0.1242244  )
        18           S   tau(  18) = (  -0.1267194   0.3605027   0.6061730  )
        19           Mo  tau(  19) = (  -0.1251617   0.6496109   0.4820319  )
        20           Mo  tau(  20) = (  -0.1250002   0.5051824  -0.4825273  )
        21           Mo  tau(  21) = (  -0.2500022   0.5773395  -0.0001503  )
        22           S   tau(  22) = (  -0.2500002   0.4330136  -0.6064556  )
        23           S   tau(  23) = (  -0.1249718   0.5051500  -0.1241823  )
        24           S   tau(  24) = (  -0.2500018   0.5776353   0.3574746  )
        25           S   tau(  25) = (  -0.2500001   0.4330135  -0.3584711  )
        26           S   tau(  26) = (  -0.1250162   0.5052198   0.1241203  )
        27           S   tau(  27) = (  -0.2500018   0.5771316   0.6060170  )
        28           Mo  tau(  28) = (   0.2499988  -0.0001852   0.4820322  )
        29           Mo  tau(  29) = (  -0.2500004   0.7216889  -0.4825273  )
        30           Mo  tau(  30) = (  -0.3750121   0.7938628  -0.0001504  )
        31           S   tau(  31) = (  -0.3750004   0.6495201  -0.6064556  )
        32           S   tau(  32) = (  -0.2500022   0.7216884  -0.1242395  )
        33           S   tau(  33) = (  -0.3747547   0.7937137   0.3574746  )
        34           S   tau(  34) = (  -0.3750004   0.6495200  -0.3584711  )
        35           S   tau(  35) = (  -0.2500023   0.7216883   0.1240244  )
        36           S   tau(  36) = (  -0.3751912   0.7939655   0.6060169  )
        37           Mo  tau(  37) = (   0.3754907   0.2151405   0.4829271  )
        38           Mo  tau(  38) = (   0.3750004   0.0721694  -0.4825273  )
        39           Mo  tau(  39) = (   0.2499984   0.1443573  -0.0000731  )
        40           S   tau(  40) = (   0.2500004   0.0000006  -0.6064556  )
        41           S   tau(  41) = (   0.3750112   0.0722112  -0.1241824  )
        42           S   tau(  42) = (   0.2499987   0.1444686   0.3583292  )
        43           S   tau(  43) = (   0.2500004   0.0000005  -0.3584711  )
        44           S   tau(  44) = (   0.3749727   0.0721378   0.1241202  )
        45           S   tau(  45) = (   0.2499989   0.1436262   0.6067914  )
        46           Mo  tau(  46) = (   0.2499982   0.4330120   0.4873213  )
        47           Mo  tau(  47) = (   0.2500001   0.2886759  -0.4825273  )
        48           Mo  tau(  48) = (   0.1250313   0.3608632  -0.0000369  )
        49           S   tau(  49) = (   0.1250001   0.2165071  -0.6064556  )
        50           S   tau(  50) = (   0.2499984   0.2886902  -0.1241509  )
        51           S   tau(  51) = (   0.1269276   0.3619573   0.3622727  )
        52           S   tau(  52) = (   0.1250002   0.2165070  -0.3584711  )
        53           S   tau(  53) = (   0.2499983   0.2886817   0.1242427  )
        54           S   tau(  54) = (   0.1143670   0.3547054   0.6129634  )
        55           Mo  tau(  55) = (   0.1240620   0.6506275   0.4829270  )
        56           Mo  tau(  56) = (   0.1249998   0.5051824  -0.4825273  )
        57           Mo  tau(  57) = (   0.0000150   0.5773409  -0.0000731  )
        58           S   tau(  58) = (  -0.0000002   0.4330136  -0.6064556  )
        59           S   tau(  59) = (   0.1250108   0.5051746  -0.1241509  )
        60           S   tau(  60) = (   0.0001121   0.5772840   0.3583290  )
        61           S   tau(  61) = (  -0.0000001   0.4330135  -0.3584711  )
        62           S   tau(  62) = (   0.1250034   0.5051788   0.1242428  )
        63           S   tau(  63) = (  -0.0006172   0.5777056   0.6067911  )
        64           Mo  tau(  64) = (   0.5000733   0.0000423   0.4811256  )
        65           Mo  tau(  65) = (  -0.0000004   0.7216889  -0.4825273  )
        66           Mo  tau(  66) = (  -0.1249927   0.7938628  -0.0001503  )
        67           S   tau(  67) = (  -0.1250004   0.6495201  -0.6064556  )
        68           S   tau(  68) = (   0.0000406   0.7216783  -0.1241824  )
        69           S   tau(  69) = (  -0.1252496   0.7937135   0.3574746  )
        70           S   tau(  70) = (  -0.1250004   0.6495200  -0.3584711  )
        71           S   tau(  71) = (  -0.0000422   0.7216817   0.1241204  )
        72           S   tau(  72) = (  -0.1248129   0.7939655   0.6060170  )
        73           Mo  tau(  73) = (   0.6251034   0.2164454   0.4813717  )
        74           Mo  tau(  74) = (   0.6250004   0.0721694  -0.4825273  )
        75           Mo  tau(  75) = (   0.4999826   0.1443587  -0.0000403  )
        76           S   tau(  76) = (   0.5000004   0.0000006  -0.6064556  )
        77           S   tau(  77) = (   0.6249765   0.0721563  -0.1241436  )
        78           S   tau(  78) = (   0.4996985   0.1445712   0.3572516  )
        79           S   tau(  79) = (   0.5000004   0.0000005  -0.3584711  )
        80           S   tau(  80) = (   0.6250052   0.0721729   0.1241442  )
        81           S   tau(  81) = (   0.5011529   0.1430194   0.6061729  )
        82           Mo  tau(  82) = (   0.5014272   0.4332689   0.4829269  )
        83           Mo  tau(  83) = (   0.5000001   0.2886759  -0.4825273  )
        84           Mo  tau(  84) = (   0.3749652   0.3608633  -0.0000370  )
        85           S   tau(  85) = (   0.3750001   0.2165071  -0.6064556  )
        86           S   tau(  86) = (   0.4999715   0.2886908  -0.1241272  )
        87           S   tau(  87) = (   0.3730698   0.3619571   0.3622724  )
        88           S   tau(  88) = (   0.3750002   0.2165070  -0.3584711  )
        89           S   tau(  89) = (   0.4999043   0.2887298   0.1242243  )
        90           S   tau(  90) = (   0.3856284   0.3547066   0.6129638  )
        91           Mo  tau(  91) = (   0.3759345   0.6506277   0.4829270  )
        92           Mo  tau(  92) = (   0.3749998   0.5051824  -0.4825273  )
        93           Mo  tau(  93) = (   0.2499980   0.5773127  -0.0000370  )
        94           S   tau(  94) = (   0.2499998   0.4330136  -0.6064556  )
        95           S   tau(  95) = (   0.3749852   0.5051745  -0.1241508  )
        96           S   tau(  96) = (   0.2499983   0.5751230   0.3622722  )
        97           S   tau(  97) = (   0.2499999   0.4330135  -0.3584711  )
        98           S   tau(  98) = (   0.3749925   0.5051788   0.1242430  )
        99           S   tau(  99) = (   0.2499985   0.5896211   0.6129642  )
       100           Mo  tau( 100) = (   0.7499990   0.0001203   0.4813716  )
       101           Mo  tau( 101) = (   0.2499996   0.7216889  -0.4825273  )
       102           Mo  tau( 102) = (   0.1250080   0.7938333  -0.0000403  )
       103           S   tau( 103) = (   0.1249996   0.6495201  -0.6064556  )
       104           S   tau( 104) = (   0.2499977   0.7216576  -0.1241273  )
       105           S   tau( 105) = (   0.1250507   0.7934796   0.3572514  )
       106           S   tau( 106) = (   0.1249996   0.6495200  -0.3584711  )
       107           S   tau( 107) = (   0.2499978   0.7215798   0.1242243  )
       108           S   tau( 108) = (   0.1244341   0.7955149   0.6061727  )
       109           Mo  tau( 109) = (  -0.1251058   0.2164455   0.4813720  )
       110           Mo  tau( 110) = (   0.8750004   0.0721694  -0.4825273  )
       111           Mo  tau( 111) = (   0.7499984   0.1443377  -0.0000951  )
       112           S   tau( 112) = (   0.7500004   0.0000006  -0.6064556  )
       113           S   tau( 113) = (   0.8750204   0.0721563  -0.1241436  )
       114           S   tau( 114) = (   0.7499989   0.1443372   0.3571897  )
       115           S   tau( 115) = (   0.7500004   0.0000005  -0.3584711  )
       116           S   tau( 116) = (   0.8749917   0.0721728   0.1241442  )
       117           S   tau( 117) = (   0.7499986   0.1443371   0.6056765  )
       118           Mo  tau( 118) = (  -0.2500015   0.4329261   0.4811261  )
       119           Mo  tau( 119) = (   0.7500001   0.2886759  -0.4825273  )
       120           Mo  tau( 120) = (   0.6249722   0.3608476  -0.0000403  )
       121           S   tau( 121) = (   0.6250001   0.2165071  -0.6064556  )
       122           S   tau( 122) = (   0.7499981   0.2887008  -0.1241435  )
       123           S   tau( 123) = (   0.6246456   0.3609863   0.3572519  )
       124           S   tau( 124) = (   0.6250002   0.2165070  -0.3584711  )
       125           S   tau( 125) = (   0.7499982   0.2886677   0.1241441  )
       126           S   tau( 126) = (   0.6267164   0.3605023   0.6061731  )
       127           Mo  tau( 127) = (  -0.3748420   0.6496111   0.4820319  )
       128           Mo  tau( 128) = (   0.6249998   0.5051824  -0.4825273  )
       129           Mo  tau( 129) = (   0.4999808   0.5773409  -0.0000733  )
       130           S   tau( 130) = (   0.4999998   0.4330136  -0.6064556  )
       131           S   tau( 131) = (   0.6249676   0.5051499  -0.1241823  )
       132           S   tau( 132) = (   0.4998845   0.5772841   0.3583289  )
       133           S   tau( 133) = (   0.4999999   0.4330135  -0.3584711  )
       134           S   tau( 134) = (   0.6250119   0.5052197   0.1241202  )
       135           S   tau( 135) = (   0.5006138   0.5777054   0.6067911  )
       136           Mo  tau( 136) = (  -0.0000756   0.0000425   0.4811258  )
       137           Mo  tau( 137) = (   0.4999996   0.7216889  -0.4825273  )
       138           Mo  tau( 138) = (   0.3749875   0.7938333  -0.0000404  )
       139           S   tau( 139) = (   0.3749996   0.6495201  -0.6064556  )
       140           S   tau( 140) = (   0.4999549   0.7216781  -0.1241825  )
       141           S   tau( 141) = (   0.3749453   0.7934797   0.3572516  )
       142           S   tau( 142) = (   0.3749996   0.6495200  -0.3584711  )
       143           S   tau( 143) = (   0.5000375   0.7216816   0.1241203  )
       144           S   tau( 144) = (   0.3755618   0.7955149   0.6061729  )
       145           Pt  tau( 145) = (   0.2499972   0.4330095   0.7045710  )
       146           H   tau( 146) = (   0.2500134   0.4330448   0.8313700  )

     --------------------------------------------
     DFT-D3 Dispersion Correction (3-body terms):
     --------------------------------------------
       Reference C6 values for interpolation: 

         atom   Coordination number   C6
         H          0.912             6.05
         H          0.000            15.18
         S          0.000           268.01
         S          0.995           261.99
         S          1.990           251.62
         Mo         0.000          1691.79
         Mo         1.942          1004.01
         Mo        11.056           674.22
         Pt         0.000           782.29
         Pt         1.919           692.72
         Pt         6.667           673.75

       Values used:

         atom   Coordination number  R0_AB[au]  C6      C8
         Mo        10.172            3.547    674.22  77634.20
         Mo        10.189            3.547    674.22  77634.20
         Mo        10.200            3.547    674.22  77634.20
         S          3.753            3.128    251.62  12327.25
         S          3.858            3.128    251.62  12327.25
         S          3.845            3.128    251.62  12327.25
         S          3.859            3.128    251.62  12327.25
         S          3.860            3.128    251.62  12327.25
         S          3.821            3.128    251.62  12327.25
         Mo        10.172            3.547    674.22  77634.20
         Mo        10.189            3.547    674.22  77634.20
         Mo        10.200            3.547    674.22  77634.20
         S          3.753            3.128    251.62  12327.25
         S          3.859            3.128    251.62  12327.25
         S          3.845            3.128    251.62  12327.25
         S          3.858            3.128    251.62  12327.25
         S          3.855            3.128    251.62  12327.25
         S          3.821            3.128    251.62  12327.25
         Mo        10.217            3.547    674.22  77634.20
         Mo        10.189            3.547    674.22  77634.20
         Mo        10.200            3.547    674.22  77634.20
         S          3.753            3.128    251.62  12327.25
         S          3.858            3.128    251.62  12327.25
         S          3.861            3.128    251.62  12327.25
         S          3.859            3.128    251.62  12327.25
         S          3.860            3.128    251.62  12327.25
         S          3.762            3.128    251.62  12327.25
         Mo        10.217            3.547    674.22  77634.20
         Mo        10.189            3.547    674.22  77634.20
         Mo        10.200            3.547    674.22  77634.20
         S          3.753            3.128    251.62  12327.25
         S          3.858            3.128    251.62  12327.25
         S          3.861            3.128    251.62  12327.25
         S          3.859            3.128    251.62  12327.25
         S          3.863            3.128    251.62  12327.25
         S          3.762            3.128    251.62  12327.25
         Mo        10.172            3.547    674.22  77634.20
         Mo        10.189            3.547    674.22  77634.20
         Mo        10.201            3.547    674.22  77634.20
         S          3.753            3.128    251.62  12327.25
         S          3.858            3.128    251.62  12327.25
         S          3.858            3.128    251.62  12327.25
         S          3.859            3.128    251.62  12327.25
         S          3.860            3.128    251.62  12327.25
         S          3.752            3.128    251.62  12327.25
         Mo        10.888            3.547    674.21  77634.20
         Mo        10.189            3.547    674.22  77634.20
         Mo        10.203            3.547    674.22  77634.20
         S          3.753            3.128    251.62  12327.25
         S          3.859            3.128    251.62  12327.25
         S          3.864            3.128    251.62  12327.25
         S          3.859            3.128    251.62  12327.25
         S          3.851            3.128    251.62  12327.25
         S          4.653            3.128    251.62  12327.25
         Mo        10.172            3.547    674.22  77634.20
         Mo        10.189            3.547    674.22  77634.20
         Mo        10.201            3.547    674.22  77634.20
         S          3.753            3.128    251.62  12327.25
         S          3.859            3.128    251.62  12327.25
         S          3.858            3.128    251.62  12327.25
         S          3.859            3.128    251.62  12327.25
         S          3.851            3.128    251.62  12327.25
         S          3.752            3.128    251.62  12327.25
         Mo        10.230            3.547    674.22  77634.20
         Mo        10.189            3.547    674.22  77634.20
         Mo        10.200            3.547    674.22  77634.20
         S          3.753            3.128    251.62  12327.25
         S          3.858            3.128    251.62  12327.25
         S          3.861            3.128    251.62  12327.25
         S          3.859            3.128    251.62  12327.25
         S          3.860            3.128    251.62  12327.25
         S          3.762            3.128    251.62  12327.25
         Mo        10.215            3.547    674.22  77634.20
         Mo        10.189            3.547    674.22  77634.20
         Mo        10.200            3.547    674.22  77634.20
         S          3.753            3.128    251.62  12327.25
         S          3.858            3.128    251.62  12327.25
         S          3.845            3.128    251.62  12327.25
         S          3.859            3.128    251.62  12327.25
         S          3.860            3.128    251.62  12327.25
         S          3.821            3.128    251.62  12327.25
         Mo        10.172            3.547    674.22  77634.20
         Mo        10.189            3.547    674.22  77634.20
         Mo        10.203            3.547    674.22  77634.20
         S          3.753            3.128    251.62  12327.25
         S          3.859            3.128    251.62  12327.25
         S          3.864            3.128    251.62  12327.25
         S          3.859            3.128    251.62  12327.25
         S          3.855            3.128    251.62  12327.25
         S          4.653            3.128    251.62  12327.25
         Mo        10.172            3.547    674.22  77634.20
         Mo        10.189            3.547    674.22  77634.20
         Mo        10.203            3.547    674.22  77634.20
         S          3.753            3.128    251.62  12327.25
         S          3.859            3.128    251.62  12327.25
         S          3.864            3.128    251.62  12327.25
         S          3.859            3.128    251.62  12327.25
         S          3.851            3.128    251.62  12327.25
         S          4.653            3.128    251.62  12327.25
         Mo        10.215            3.547    674.22  77634.20
         Mo        10.189            3.547    674.22  77634.20
         Mo        10.200            3.547    674.22  77634.20
         S          3.753            3.128    251.62  12327.25
         S          3.859            3.128    251.62  12327.25
         S          3.845            3.128    251.62  12327.25
         S          3.859            3.128    251.62  12327.25
         S          3.855            3.128    251.62  12327.25
         S          3.821            3.128    251.62  12327.25
         Mo        10.215            3.547    674.22  77634.20
         Mo        10.189            3.547    674.22  77634.20
         Mo        10.200            3.547    674.22  77634.20
         S          3.753            3.128    251.62  12327.25
         S          3.858            3.128    251.62  12327.25
         S          3.853            3.128    251.62  12327.25
         S          3.858            3.128    251.62  12327.25
         S          3.860            3.128    251.62  12327.25
         S          3.785            3.128    251.62  12327.25
         Mo        10.230            3.547    674.22  77634.20
         Mo        10.189            3.547    674.22  77634.20
         Mo        10.200            3.547    674.22  77634.20
         S          3.753            3.128    251.62  12327.25
         S          3.858            3.128    251.62  12327.25
         S          3.845            3.128    251.62  12327.25
         S          3.858            3.128    251.62  12327.25
         S          3.860            3.128    251.62  12327.25
         S          3.821            3.128    251.62  12327.25
         Mo        10.217            3.547    674.22  77634.20
         Mo        10.189            3.547    674.22  77634.20
         Mo        10.201            3.547    674.22  77634.20
         S          3.753            3.128    251.62  12327.25
         S          3.858            3.128    251.62  12327.25
         S          3.858            3.128    251.62  12327.25
         S          3.859            3.128    251.62  12327.25
         S          3.860            3.128    251.62  12327.25
         S          3.752            3.128    251.62  12327.25
         Mo        10.230            3.547    674.22  77634.20
         Mo        10.189            3.547    674.22  77634.20
         Mo        10.200            3.547    674.22  77634.20
         S          3.753            3.128    251.62  12327.25
         S          3.858            3.128    251.62  12327.25
         S          3.845            3.128    251.62  12327.25
         S          3.859            3.128    251.62  12327.25
         S          3.860            3.128    251.62  12327.25
         S          3.821            3.128    251.62  12327.25
         Pt         4.987            3.168    673.75  70061.90
         H          0.965            2.062      6.22     75.16

         Molecular C6 ( Ry / a.u.^6 ) =   7815731.47


     number of k points=     4  Gaussian smearing, width (Ry)=  0.0100
                       cart. coord. in units 2pi/alat
        k(    1) = (   0.0000000   0.0000000   0.0000000), wk =   0.5000000
        k(    2) = (   0.0000000  -0.5773499   0.0000000), wk =   0.5000000
        k(    3) = (  -0.5000000  -0.2886755   0.0000000), wk =   0.5000000
        k(    4) = (  -0.5000000  -0.8660254   0.0000000), wk =   0.5000000

     Dense  grid:  5955087 G-vectors     FFT dimensions: ( 180, 180, 432)

     Smooth grid:  2572543 G-vectors     FFT dimensions: ( 135, 135, 320)

     Estimated max dynamical RAM per process >       3.06 GB

     Estimated total dynamical RAM >     110.21 GB

     Initial potential from superposition of free atoms

     starting charge    1280.9544, renormalised to    1281.0000

     negative rho (up, down):  6.793E-04 0.000E+00
     Starting wfcs are  882 randomized atomic wfcs
     Checking if some PAW data can be deallocated... 

     total cpu time spent up to now is      109.4 secs

     Self-consistent Calculation

     iteration #  1     ecut=    77.00 Ry     beta= 0.20
     Davidson diagonalization with overlap
     ethr =  1.00E-02,  avg # of iterations =  2.0

     Threshold (ethr) on eigenvalues was too large:
     Diagonalizing with lowered threshold

     Davidson diagonalization with overlap
     ethr =  1.20E-04,  avg # of iterations = 18.5

     negative rho (up, down):  1.882E-04 0.000E+00

     total cpu time spent up to now is     1459.8 secs

     total energy              =  -25521.02623664 Ry
     estimated scf accuracy    <       5.07409640 Ry

     iteration #  2     ecut=    77.00 Ry     beta= 0.20
     Davidson diagonalization with overlap
     ethr =  3.96E-04,  avg # of iterations =  1.0

     negative rho (up, down):  2.345E-05 0.000E+00

     total cpu time spent up to now is     1675.7 secs

     total energy              =  -25519.91370501 Ry
     estimated scf accuracy    <       2.68761941 Ry

     iteration #  3     ecut=    77.00 Ry     beta= 0.20
     Davidson diagonalization with overlap
     ethr =  2.10E-04,  avg # of iterations =  6.5

     negative rho (up, down):  1.935E-05 0.000E+00

     total cpu time spent up to now is     1981.8 secs

     total energy              =  -25520.36833708 Ry
     estimated scf accuracy    <       0.44274218 Ry

     iteration #  4     ecut=    77.00 Ry     beta= 0.20
     Davidson diagonalization with overlap
     c_bands:  5 eigenvalues not converged
     c_bands:  4 eigenvalues not converged
     c_bands:  1 eigenvalues not converged
     ethr =  3.46E-05,  avg # of iterations = 57.2

     negative rho (up, down):  3.036E-05 0.000E+00

     total cpu time spent up to now is     3302.7 secs

     total energy              =  -25520.97011867 Ry
     estimated scf accuracy    <       0.65606361 Ry

     iteration #  5     ecut=    77.00 Ry     beta= 0.20
     Davidson diagonalization with overlap
     ethr =  3.46E-05,  avg # of iterations = 10.2

     negative rho (up, down):  6.024E-05 0.000E+00

     total cpu time spent up to now is     3564.1 secs

     total energy              =  -25520.95483829 Ry
     estimated scf accuracy    <       0.23410868 Ry

     iteration #  6     ecut=    77.00 Ry     beta= 0.20
     Davidson diagonalization with overlap
     ethr =  1.83E-05,  avg # of iterations =  5.2

     negative rho (up, down):  8.101E-04 0.000E+00

     total cpu time spent up to now is     3811.6 secs

     total energy              =  -25520.95862306 Ry
     estimated scf accuracy    <       0.13379183 Ry

     iteration #  7     ecut=    77.00 Ry     beta= 0.20
     Davidson diagonalization with overlap
     c_bands:  3 eigenvalues not converged
     c_bands:  1 eigenvalues not converged
     c_bands:  1 eigenvalues not converged
     ethr =  1.04E-05,  avg # of iterations = 48.2

     negative rho (up, down):  5.967E-04 0.000E+00

     total cpu time spent up to now is     4995.6 secs

     total energy              =  -25521.09914811 Ry
     estimated scf accuracy    <       1.34267783 Ry

     iteration #  8     ecut=    77.00 Ry     beta= 0.20
     Davidson diagonalization with overlap
     ethr =  1.04E-05,  avg # of iterations =  2.5

     negative rho (up, down):  3.759E-04 0.000E+00

     total cpu time spent up to now is     5228.9 secs

     total energy              =  -25520.94000781 Ry
     estimated scf accuracy    <       0.60483453 Ry

     iteration #  9     ecut=    77.00 Ry     beta= 0.20
     Davidson diagonalization with overlap
     ethr =  1.04E-05,  avg # of iterations =  5.2

     negative rho (up, down):  3.388E-04 0.000E+00

     total cpu time spent up to now is     5560.1 secs

     total energy              =  -25520.95302104 Ry
     estimated scf accuracy    <       0.16287123 Ry

     iteration # 10     ecut=    77.00 Ry     beta= 0.20
     Davidson diagonalization with overlap
     ethr =  1.04E-05,  avg # of iterations =  6.0

     negative rho (up, down):  4.016E-04 0.000E+00

     total cpu time spent up to now is     5851.6 secs

     total energy              =  -25520.96592398 Ry
     estimated scf accuracy    <       0.04182238 Ry

     iteration # 11     ecut=    77.00 Ry     beta= 0.20
     Davidson diagonalization with overlap
     c_bands:  5 eigenvalues not converged
     c_bands:  3 eigenvalues not converged
     c_bands:  2 eigenvalues not converged
     c_bands:  3 eigenvalues not converged
     ethr =  3.26E-06,  avg # of iterations = 35.0

     negative rho (up, down):  5.208E-04 0.000E+00

     total cpu time spent up to now is     6746.6 secs

     total energy              =  -25521.01397063 Ry
     estimated scf accuracy    <       0.04063144 Ry

     iteration # 12     ecut=    77.00 Ry     beta= 0.20
     Davidson diagonalization with overlap
     c_bands:  1 eigenvalues not converged
     c_bands:  2 eigenvalues not converged
     ethr =  3.17E-06,  avg # of iterations = 21.5

     negative rho (up, down):  5.663E-04 0.000E+00

     total cpu time spent up to now is     7091.8 secs

     total energy              =  -25521.01840930 Ry
     estimated scf accuracy    <       0.00349260 Ry

     iteration # 13     ecut=    77.00 Ry     beta= 0.20
     Davidson diagonalization with overlap
     c_bands:  1 eigenvalues not converged
     ethr =  2.73E-07,  avg # of iterations = 13.2

     negative rho (up, down):  5.953E-04 0.000E+00

     total cpu time spent up to now is     7803.3 secs

     total energy              =  -25521.02525722 Ry
     estimated scf accuracy    <       0.00106277 Ry

     iteration # 14     ecut=    77.00 Ry     beta= 0.20
     Davidson diagonalization with overlap
     ethr =  8.30E-08,  avg # of iterations = 11.2

     negative rho (up, down):  6.699E-04 0.000E+00

     total cpu time spent up to now is     8203.6 secs

     total energy              =  -25521.02555078 Ry
     estimated scf accuracy    <       0.00082808 Ry

     iteration # 15     ecut=    77.00 Ry     beta= 0.20
     Davidson diagonalization with overlap
     ethr =  6.46E-08,  avg # of iterations =  9.0

     negative rho (up, down):  8.186E-04 0.000E+00

     total cpu time spent up to now is     8488.8 secs

     total energy              =  -25521.02558418 Ry
     estimated scf accuracy    <       0.00027665 Ry

     iteration # 16     ecut=    77.00 Ry     beta= 0.20
     Davidson diagonalization with overlap
     c_bands:  4 eigenvalues not converged
     ethr =  2.16E-08,  avg # of iterations = 19.8

     negative rho (up, down):  8.453E-04 0.000E+00

     total cpu time spent up to now is     8989.5 secs

     total energy              =  -25521.02573219 Ry
     estimated scf accuracy    <       0.00007081 Ry

     iteration # 17     ecut=    77.00 Ry     beta= 0.20
     Davidson diagonalization with overlap
     ethr =  5.53E-09,  avg # of iterations = 14.2

     negative rho (up, down):  8.274E-04 0.000E+00

     total cpu time spent up to now is     9570.3 secs

     total energy              =  -25521.02581755 Ry
     estimated scf accuracy    <       0.00009106 Ry

     iteration # 18     ecut=    77.00 Ry     beta= 0.20
     Davidson diagonalization with overlap
     ethr =  5.53E-09,  avg # of iterations =  1.2

     negative rho (up, down):  8.216E-04 0.000E+00

     total cpu time spent up to now is     9790.8 secs

     total energy              =  -25521.02581336 Ry
     estimated scf accuracy    <       0.00004849 Ry

     iteration # 19     ecut=    77.00 Ry     beta= 0.20
     Davidson diagonalization with overlap
     ethr =  3.79E-09,  avg # of iterations =  3.8

     negative rho (up, down):  8.443E-04 0.000E+00

     total cpu time spent up to now is    10031.1 secs

     total energy              =  -25521.02578965 Ry
     estimated scf accuracy    <       0.00003493 Ry

     iteration # 20     ecut=    77.00 Ry     beta= 0.20
     Davidson diagonalization with overlap
     ethr =  2.73E-09,  avg # of iterations = 13.8

     negative rho (up, down):  8.575E-04 0.000E+00

     total cpu time spent up to now is    10445.3 secs

     total energy              =  -25521.02580818 Ry
     estimated scf accuracy    <       0.00000891 Ry

     iteration # 21     ecut=    77.00 Ry     beta= 0.20
     Davidson diagonalization with overlap
     c_bands:  2 eigenvalues not converged
     ethr =  6.96E-10,  avg # of iterations = 16.0

     negative rho (up, down):  8.591E-04 0.000E+00

     total cpu time spent up to now is    10905.4 secs

     total energy              =  -25521.02581173 Ry
     estimated scf accuracy    <       0.00000518 Ry

     iteration # 22     ecut=    77.00 Ry     beta= 0.20
     Davidson diagonalization with overlap
     ethr =  4.04E-10,  avg # of iterations =  9.5

     negative rho (up, down):  8.669E-04 0.000E+00

     total cpu time spent up to now is    11247.9 secs

     End of self-consistent calculation

          k = 0.0000 0.0000 0.0000 (321495 PWs)   bands (ev):

  -103.4988 -71.9038 -71.8595 -71.8595 -71.7718 -71.7718 -71.7456 -71.7431
   -66.9757 -66.9547 -66.9547 -66.9546 -66.9546 -66.9546 -66.9546 -66.9335
   -66.9335 -66.9335 -66.9335 -66.9335 -66.9334 -66.9334 -66.9334 -66.9334
   -66.9052 -66.8846 -66.8846 -66.8846 -66.8837 -66.8835 -66.8835 -66.8641
   -66.8638 -66.8633 -66.8633 -66.8628 -66.8628 -66.8620 -66.8620 -66.8618
   -66.7948 -66.7805 -66.7767 -66.7767 -66.7681 -66.7681 -66.7589 -66.7589
   -66.7587 -66.7459 -66.7401 -66.7401 -66.7317 -66.7317 -66.7290 -66.6338
   -57.8535 -57.5896 -57.5895 -41.3021 -41.3021 -41.3021 -41.2303 -41.2299
   -41.2299 -41.2273 -41.2273 -41.2273 -41.2273 -41.2273 -41.2273 -41.1557
   -41.1557 -41.1553 -41.1552 -41.1552 -41.1548 -41.1360 -41.1124 -41.1112
   -41.1112 -41.1018 -41.1018 -41.1018 -41.1018 -41.1017 -41.1017 -41.0946
   -41.0946 -41.0946 -41.0946 -41.0945 -41.0945 -41.0669 -41.0669 -41.0669
   -41.0669 -41.0669 -41.0669 -41.0664 -41.0529 -41.0529 -41.0529 -41.0529
   -41.0529 -41.0529 -41.0528 -41.0528 -41.0528 -41.0447 -41.0402 -41.0360
   -41.0360 -41.0304 -41.0300 -41.0300 -41.0298 -41.0298 -41.0294 -41.0256
   -41.0255 -41.0255 -41.0248 -41.0244 -41.0244 -41.0123 -41.0123 -40.9955
   -40.9954 -40.9951 -40.9951 -40.9949 -40.9946 -40.9891 -40.9891 -40.9891
   -40.9846 -40.9841 -40.9837 -40.9837 -40.9834 -40.9834 -40.9826 -40.9826
   -40.9822 -40.9586 -40.9423 -40.9423 -40.9423 -40.9423 -40.9423 -40.9423
   -40.9225 -40.9216 -40.9216 -40.9200 -40.9175 -40.9173 -40.9173 -40.9164
   -40.9164 -40.9130 -40.9129 -40.8994 -40.8988 -40.8988 -40.8950 -40.8950
   -40.8884 -40.8868 -40.8827 -40.8814 -40.8814 -40.8774 -40.8755 -40.8755
   -40.8712 -40.8707 -40.8707 -40.8706 -40.8705 -40.8699 -40.8695 -40.8695
   -40.8676 -40.8619 -40.8619 -40.8473 -40.8473 -40.8233 -40.8233 -40.8146
   -40.7984 -40.7936 -40.7936 -40.7487 -40.7483 -40.7483 -40.7440 -40.7290
   -40.7290 -40.6616 -40.6615 -20.4036 -20.2817 -20.1601 -19.5427 -19.5395
   -19.5395 -19.5371 -19.5366 -19.5366 -19.4835 -19.4571 -19.4571 -19.4125
   -19.4112 -19.4112 -19.3618 -19.3523 -19.3523 -19.2650 -19.2650 -19.2644
   -19.1444 -18.9681 -18.8169 -18.8011 -18.8011 -18.7379 -18.7355 -18.7355
   -18.7341 -18.6781 -18.6781 -18.6295 -18.5723 -18.5719 -18.5719 -18.5168
   -18.5168 -18.4855 -18.4339 -18.4339 -18.4336 -18.4336 -18.4333 -18.4333
   -18.4224 -18.4198 -18.4198 -18.3940 -18.3939 -18.3939 -18.3533 -18.3533
   -18.3482 -18.3469 -18.3436 -18.3436 -18.3336 -18.3336 -18.3143 -18.3136
   -18.3136 -18.2500 -18.2431 -18.2400 -18.2400 -18.2383 -18.2383 -18.2373
   -18.2256 -18.2256 -18.1971 -18.1907 -18.1907 -18.1901 -18.1892 -18.1863
   -18.1863 -18.1579 -18.1579 -18.1486 -18.1319 -18.1319 -18.1209 -18.1201
   -18.1165 -18.1165 -18.0735 -18.0735 -18.0462 -18.0302 -18.0302 -18.0188
   -18.0153 -18.0038 -18.0038 -12.2795 -12.1986 -12.0497 -12.0497 -12.0473
   -11.9782 -11.9782 -11.9603 -11.9144 -11.9144 -11.8370 -11.5823 -11.5072
   -11.5072 -11.4906 -11.4882 -11.4882 -11.4728 -11.4475 -11.4475 -11.4194
   -11.4177 -11.4177 -11.4163 -11.4115 -11.4115 -11.3950 -11.2899 -11.2807
   -11.2807 -11.2765 -11.2765 -11.2650 -11.2117 -11.1969 -11.1969 -11.1842
   -11.1823 -11.1823 -11.1820 -11.1628 -11.1628 -11.1466 -11.1466 -11.1302
   -11.1264 -11.1264 -11.1263 -11.1215 -11.1215 -11.1001 -11.0965 -11.0965
   -11.0938 -11.0808 -11.0808 -11.0723 -11.0587 -11.0587 -11.0390 -11.0339
   -11.0339 -11.0013 -11.0013 -10.9996 -10.9707 -10.9441 -10.9180 -10.9180
   -10.8967 -10.8769 -10.8769 -10.8615 -10.8615 -10.8614 -10.5912 -10.5912
   -10.4090 -10.3395 -10.3395 -10.3371 -10.1922 -10.1742 -10.1742 -10.1163
   -10.0636 -10.0636 -10.0562 -10.0562 -10.0562 -10.0479  -9.9862  -9.9862
    -9.9817  -9.9659  -9.9659  -9.9573  -9.9491  -9.9491  -9.9178  -9.9111
    -9.9111  -9.9032  -9.8997  -9.8997  -9.8665  -9.8662  -9.8656  -9.8656
    -9.8618  -9.8618  -9.8469  -9.8229  -9.8074  -9.8074  -9.7809  -9.7809
    -9.7671  -9.7599  -9.7599  -9.7296  -9.7223  -9.7222  -9.7142  -9.7115
    -9.7115  -9.6538  -9.6279  -9.6279  -9.6026  -9.6026  -9.5924  -9.5721
    -9.5567  -9.5567  -9.4978  -9.4883  -9.4883  -9.4722  -9.4605  -9.4605
    -9.4471  -9.4471  -9.4361  -9.4188  -9.3280  -9.3141  -9.3141  -9.3133
    -9.3069  -9.3036  -9.3036  -9.2913  -9.2913  -9.2808  -9.2808  -9.2333
    -9.2292  -9.2292  -9.1974  -9.1447  -9.1447  -9.1187  -9.1171  -9.1171
    -9.1023  -9.0886  -9.0860  -9.0860  -9.0837  -9.0831  -9.0831  -9.0391
    -9.0391  -9.0202  -9.0202  -9.0032  -9.0019  -9.0019  -9.0018  -8.9379
    -8.9378  -8.9375  -8.8705  -8.7249  -8.7249  -8.6808  -8.6473  -8.6473
    -8.6402  -8.6402  -8.6125  -8.6124  -8.6124  -8.6124  -8.6123  -8.6123
    -8.5364  -8.5364  -8.5360  -8.5334  -8.5333  -8.5333  -8.5091  -8.5091
    -8.4574  -8.4473  -8.4473  -8.4131  -8.2803  -8.2803  -8.2507  -8.1972
    -8.1972  -8.0366  -7.9955  -7.9791  -7.9791  -7.8772  -7.8772  -7.8770
    -7.8769  -7.8768  -7.8768  -7.8310  -7.8306  -7.8305  -7.8305  -7.8303
    -7.8303  -7.8181  -7.8181  -7.7987  -7.7972  -7.7972  -7.7954  -7.7890
    -7.7838  -7.7838  -7.7670  -7.7670  -7.7518  -7.7510  -7.7500  -7.7500
    -7.7465  -7.7465  -7.7204  -7.7037  -7.7011  -7.6998  -7.6998  -7.6952
    -7.6952  -7.6711  -7.6711  -7.6605  -7.6559  -7.6206  -7.6159  -7.6159
    -7.5961  -7.5961  -7.5552  -7.5227  -7.5227  -7.4887  -7.4887  -7.4799
    -7.4799  -7.4315  -7.4315  -7.4248  -7.2803  -7.2546  -7.2546  -7.1835
    -7.1835  -7.1223  -7.1223  -7.1075  -7.0954  -7.0933  -7.0875  -7.0875
    -6.9847  -6.9641  -6.9641  -6.9233  -6.9233  -6.9126  -6.9015  -6.9015
    -6.8975  -6.8678  -6.8580  -6.8580  -6.8123  -6.8080  -6.8080  -6.7963
    -6.7863  -6.7863  -6.7844  -6.7844  -6.7817  -6.7141  -6.7097  -6.7097
    -6.7032  -6.7032  -6.7020  -6.6768  -6.6768  -6.6681  -6.6439  -6.6439
    -6.6439  -6.6439  -6.6438  -6.6438  -6.6066  -6.5618  -6.5618  -6.5613
    -6.5613  -6.5607  -6.5601  -6.5378  -6.5378  -6.5045  -6.5045  -6.4503
    -6.4396  -6.4278  -6.3624  -6.3624  -5.8732  -5.8732  -5.8454  -5.5127
    -5.2857  -4.1177  -4.1175  -4.1155  -4.1124  -4.1124  -4.1026  -4.0846
    -4.0841  -4.0841  -4.0824  -4.0823  -4.0720  -3.8627  -3.8626  -3.8546
    -3.8545  -3.8530  -3.8514  -3.8365  -3.8365  -3.8359  -3.8318  -3.8318
    -3.7845  -3.7844  -3.7844  -3.7656  -3.7634  -3.7629  -3.7626  -3.7614
    -3.7612  -3.7384  -3.7118  -3.7114  -3.7114  -3.6740  -3.6538  -3.6518
    -3.6515  -3.6466  -3.6464  -3.6421  -3.6420  -3.6378  -3.6377  -3.6273
    -3.5949  -3.5906  -3.5766  -3.5766  -3.5623  -3.5241  -3.5241  -3.5215
    -3.5172  -3.5171  -3.5065  -3.4954  -3.4953  -3.4546  -3.4545  -3.3201
    -3.3163  -3.3161  -3.3117  -3.3116  -3.3084  -3.2454  -3.2453  -3.2452
    -3.2451  -3.2448  -3.2446  -3.2377  -3.2375  -3.2148  -3.2139  -3.2136
    -3.1990  -3.1990  -3.1795  -3.1677  -3.1677  -3.1667  -3.1663  -3.1657
    -3.1593  -3.1567  -3.1564  -3.1395  -3.1284  -3.1282  -3.0944  -3.0943
    -3.0507  -3.0506  -3.0415  -3.0401  -3.0393  -3.0363  -3.0350  -3.0346
    -3.0324  -3.0257  -3.0255  -3.0147  -3.0141  -2.9989  -2.9692  -2.9690
    -2.9388  -2.9095  -2.9092  -2.9090  -2.8968  -2.8966  -2.8625  -2.8619
    -2.8393  -2.7905  -2.7889  -2.7798  -2.7353  -2.7349  -2.7320  -2.7153
    -2.7144

          k = 0.0000-0.5773 0.0000 (321564 PWs)   bands (ev):

  -103.4988 -71.9038 -71.8595 -71.8595 -71.7719 -71.7718 -71.7456 -71.7431
   -66.9696 -66.9695 -66.9590 -66.9590 -66.9441 -66.9440 -66.9440 -66.9440
   -66.9397 -66.9396 -66.9335 -66.9335 -66.9334 -66.9334 -66.9290 -66.9290
   -66.8994 -66.8987 -66.8885 -66.8885 -66.8738 -66.8738 -66.8735 -66.8732
   -66.8695 -66.8687 -66.8634 -66.8633 -66.8630 -66.8619 -66.8584 -66.8584
   -66.7915 -66.7879 -66.7777 -66.7723 -66.7669 -66.7654 -66.7610 -66.7606
   -66.7588 -66.7444 -66.7405 -66.7400 -66.7330 -66.7322 -66.7279 -66.6338
   -57.8535 -57.5896 -57.5895 -41.2707 -41.2707 -41.2707 -41.2707 -41.2441
   -41.2441 -41.2322 -41.2322 -41.1991 -41.1990 -41.1986 -41.1980 -41.1817
   -41.1817 -41.1817 -41.1817 -41.1724 -41.1718 -41.1601 -41.1601 -41.1239
   -41.1239 -41.1138 -41.1138 -41.1098 -41.1098 -41.1097 -41.1097 -41.1032
   -41.1032 -41.0941 -41.0838 -41.0783 -41.0738 -41.0737 -41.0737 -41.0737
   -41.0651 -41.0651 -41.0612 -41.0596 -41.0589 -41.0546 -41.0540 -41.0529
   -41.0529 -41.0528 -41.0528 -41.0528 -41.0528 -41.0442 -41.0442 -41.0420
   -41.0419 -41.0411 -41.0337 -41.0335 -41.0220 -41.0220 -41.0220 -41.0220
   -41.0193 -41.0045 -41.0045 -41.0043 -41.0038 -40.9959 -40.9952 -40.9923
   -40.9875 -40.9875 -40.9875 -40.9875 -40.9871 -40.9838 -40.9837 -40.9835
   -40.9825 -40.9810 -40.9809 -40.9777 -40.9755 -40.9754 -40.9748 -40.9746
   -40.9563 -40.9562 -40.9543 -40.9508 -40.9506 -40.9501 -40.9499 -40.9496
   -40.9437 -40.9394 -40.9394 -40.9266 -40.9198 -40.9164 -40.9158 -40.9158
   -40.9157 -40.9157 -40.9090 -40.9089 -40.9089 -40.9041 -40.9034 -40.8977
   -40.8970 -40.8957 -40.8956 -40.8853 -40.8850 -40.8841 -40.8819 -40.8802
   -40.8749 -40.8716 -40.8689 -40.8677 -40.8676 -40.8628 -40.8583 -40.8545
   -40.8376 -40.8368 -40.8362 -40.8311 -40.8309 -40.8214 -40.8147 -40.7995
   -40.7919 -40.7903 -40.7822 -40.7784 -40.7666 -40.7602 -40.7529 -40.7443
   -40.7209 -40.6774 -40.6649 -20.1680 -20.1666 -20.0642 -20.0373 -19.9518
   -19.9010 -19.7326 -19.7323 -19.6186 -19.6171 -19.5083 -19.5058 -19.0850
   -19.0614 -19.0303 -19.0243 -19.0242 -19.0239 -18.9958 -18.9952 -18.9523
   -18.9103 -18.9031 -18.8936 -18.8880 -18.8260 -18.8200 -18.8186 -18.7952
   -18.7777 -18.7771 -18.7699 -18.7203 -18.6957 -18.6759 -18.6724 -18.6652
   -18.6478 -18.6202 -18.5693 -18.5470 -18.5267 -18.5007 -18.4957 -18.4935
   -18.4921 -18.4283 -18.4209 -18.4144 -18.4142 -18.4142 -18.4137 -18.3890
   -18.3813 -18.3739 -18.3629 -18.3334 -18.3319 -18.3315 -18.3299 -18.3217
   -18.3205 -18.2829 -18.2717 -18.2607 -18.2398 -18.2372 -18.2351 -18.2341
   -18.2281 -18.2093 -18.1979 -18.1910 -18.1907 -18.1867 -18.1606 -18.1521
   -18.1517 -18.1517 -18.1395 -18.1325 -18.1322 -18.0893 -18.0892 -18.0728
   -18.0717 -18.0692 -18.0486 -18.0296 -18.0279 -18.0253 -18.0245 -17.9733
   -17.9596 -17.9271 -17.9189 -12.1645 -11.9513 -11.9467 -11.7950 -11.7706
   -11.7601 -11.7597 -11.7560 -11.7468 -11.7337 -11.7255 -11.6701 -11.6693
   -11.6570 -11.6570 -11.6168 -11.6080 -11.5930 -11.5624 -11.5587 -11.5569
   -11.5498 -11.5449 -11.5449 -11.5304 -11.4935 -11.4932 -11.4831 -11.4736
   -11.4348 -11.4314 -11.4312 -11.4298 -11.4118 -11.3206 -11.2553 -11.2444
   -11.2410 -11.2379 -11.2171 -11.2143 -11.2003 -11.1959 -11.1731 -11.1540
   -11.1494 -11.1293 -11.1225 -11.1184 -11.1169 -11.1159 -11.1140 -11.1042
   -11.0720 -11.0664 -11.0590 -11.0504 -11.0475 -11.0461 -11.0402 -11.0247
   -11.0224 -11.0018 -10.9204 -10.8436 -10.8238 -10.7924 -10.7724 -10.7556
   -10.7533 -10.6519 -10.6313 -10.5278 -10.4511 -10.4210 -10.4104 -10.4012
   -10.3977 -10.3670 -10.3309 -10.2993 -10.2883 -10.2786 -10.2270 -10.2219
   -10.2186 -10.2156 -10.2128 -10.2099 -10.1799 -10.1774 -10.1755 -10.1668
   -10.1507 -10.1363 -10.0675 -10.0623 -10.0529 -10.0312 -10.0273 -10.0187
   -10.0096 -10.0047  -9.9921  -9.9876  -9.9876  -9.9793  -9.9398  -9.9141
    -9.8956  -9.8926  -9.8777  -9.8763  -9.8726  -9.8698  -9.8602  -9.8167
    -9.8148  -9.8132  -9.8080  -9.7630  -9.7503  -9.7489  -9.7302  -9.6958
    -9.6679  -9.6319  -9.5731  -9.5580  -9.5284  -9.5248  -9.4809  -9.4808
    -9.4364  -9.4276  -9.4234  -9.4134  -9.4073  -9.4066  -9.4007  -9.3878
    -9.3756  -9.3234  -9.3221  -9.3096  -9.2956  -9.2817  -9.2743  -9.2567
    -9.2548  -9.2345  -9.2314  -9.2193  -9.2190  -9.2177  -9.2169  -9.2004
    -9.1873  -9.1797  -9.1757  -9.1540  -9.1512  -9.1466  -9.1424  -9.1340
    -9.1271  -9.1271  -9.1190  -9.1037  -9.0980  -9.0905  -9.0771  -9.0697
    -9.0495  -9.0464  -9.0395  -9.0242  -9.0130  -9.0024  -8.9933  -8.9586
    -8.9508  -8.9407  -8.8064  -8.8006  -8.7958  -8.7332  -8.7101  -8.6927
    -8.6810  -8.6628  -8.5409  -8.4813  -8.4813  -8.4616  -8.4043  -8.4030
    -8.3743  -8.3391  -8.3062  -8.2235  -8.2221  -8.2154  -8.2048  -8.1900
    -8.1473  -8.1446  -8.1386  -8.1345  -8.1345  -8.1321  -8.1292  -8.1246
    -8.1186  -8.1118  -8.0872  -8.0871  -8.0868  -8.0856  -8.0588  -8.0587
    -8.0447  -8.0419  -8.0399  -8.0397  -8.0112  -8.0100  -8.0074  -8.0068
    -7.9888  -7.9744  -7.9679  -7.9612  -7.9610  -7.9604  -7.9494  -7.9493
    -7.9463  -7.9264  -7.9168  -7.9135  -7.9106  -7.8962  -7.8773  -7.8727
    -7.8725  -7.8723  -7.8667  -7.8399  -7.8278  -7.8164  -7.8163  -7.7797
    -7.7623  -7.7561  -7.7088  -7.7052  -7.6473  -7.6223  -7.5318  -7.5264
    -7.5216  -7.5212  -7.4791  -7.4339  -7.4128  -7.3984  -7.3925  -7.3921
    -7.3496  -7.3304  -7.3071  -7.3015  -7.2964  -7.2828  -7.2299  -7.2274
    -7.2181  -7.2125  -7.2021  -7.1980  -7.1813  -7.1242  -7.1191  -7.1143
    -7.1042  -7.0563  -7.0411  -6.9907  -6.9831  -6.9474  -6.9462  -6.9461
    -6.9461  -6.9429  -6.9185  -6.8889  -6.8729  -6.8726  -6.8709  -6.8698
    -6.8495  -6.8253  -6.8137  -6.7749  -6.7737  -6.7587  -6.7436  -6.6961
    -6.6791  -6.6518  -6.6144  -6.6142  -6.6141  -6.6139  -6.5576  -6.5449
    -6.5445  -6.5294  -6.5280  -6.5259  -6.5221  -6.4909  -6.4581  -6.4431
    -6.4338  -6.4043  -6.3939  -6.3879  -6.2660  -6.2659  -6.1855  -6.1848
    -6.1378  -6.0920  -6.0502  -6.0134  -5.8789  -5.8477  -5.8228  -5.7768
    -5.2966  -4.2967  -4.2946  -4.2896  -4.2790  -4.1816  -4.1816  -4.1515
    -4.1451  -4.1117  -4.1115  -4.0376  -4.0330  -4.0257  -4.0038  -3.9904
    -3.9806  -3.9375  -3.9130  -3.8780  -3.8776  -3.8763  -3.8742  -3.8660
    -3.8658  -3.8094  -3.8051  -3.8048  -3.7813  -3.7795  -3.7722  -3.7553
    -3.7503  -3.7468  -3.7421  -3.7369  -3.7353  -3.7323  -3.6902  -3.6621
    -3.6542  -3.6323  -3.6320  -3.6156  -3.6134  -3.6034  -3.6014  -3.6009
    -3.5928  -3.5881  -3.5779  -3.5559  -3.5556  -3.5551  -3.5548  -3.5350
    -3.5303  -3.5156  -3.5128  -3.5026  -3.4973  -3.4753  -3.4699  -3.4674
    -3.4636  -3.4596  -3.4579  -3.4253  -3.3927  -3.3795  -3.3636  -3.3518
    -3.3512  -3.3449  -3.3446  -3.3287  -3.3105  -3.3062  -3.2940  -3.2928
    -3.2923  -3.2918  -3.2911  -3.2841  -3.2491  -3.2417  -3.2414  -3.2402
    -3.1979  -3.1939  -3.1932  -3.1867  -3.1863  -3.1771  -3.1597  -3.1568
    -3.1438  -3.1374  -3.1292  -3.1277  -3.1097  -3.0893  -3.0885  -3.0773
    -3.0750  -3.0619  -3.0398  -3.0327  -3.0050  -3.0017  -2.9666  -2.9637
    -2.9289  -2.9274  -2.9230  -2.8973  -2.8930  -2.8906  -2.8405  -2.8366
    -2.8075  -2.7621  -2.7601  -2.7440  -2.7258  -2.6914  -2.6847  -2.5740
    -2.5614

          k =-0.5000-0.2887 0.0000 (321564 PWs)   bands (ev):

  -103.4988 -71.9038 -71.8595 -71.8595 -71.7719 -71.7718 -71.7456 -71.7431
   -66.9696 -66.9696 -66.9590 -66.9590 -66.9441 -66.9441 -66.9441 -66.9440
   -66.9397 -66.9396 -66.9335 -66.9335 -66.9334 -66.9334 -66.9290 -66.9290
   -66.8994 -66.8987 -66.8885 -66.8885 -66.8738 -66.8738 -66.8735 -66.8732
   -66.8695 -66.8687 -66.8634 -66.8633 -66.8630 -66.8620 -66.8584 -66.8584
   -66.7915 -66.7879 -66.7777 -66.7723 -66.7669 -66.7654 -66.7610 -66.7606
   -66.7588 -66.7444 -66.7405 -66.7401 -66.7330 -66.7322 -66.7279 -66.6338
   -57.8535 -57.5896 -57.5895 -41.2707 -41.2707 -41.2707 -41.2707 -41.2441
   -41.2441 -41.2322 -41.2321 -41.1990 -41.1990 -41.1986 -41.1980 -41.1817
   -41.1817 -41.1817 -41.1817 -41.1724 -41.1718 -41.1601 -41.1601 -41.1239
   -41.1239 -41.1138 -41.1138 -41.1098 -41.1098 -41.1097 -41.1097 -41.1032
   -41.1032 -41.0941 -41.0838 -41.0783 -41.0738 -41.0737 -41.0737 -41.0737
   -41.0651 -41.0651 -41.0612 -41.0596 -41.0589 -41.0546 -41.0540 -41.0529
   -41.0529 -41.0528 -41.0528 -41.0528 -41.0528 -41.0442 -41.0442 -41.0420
   -41.0419 -41.0411 -41.0337 -41.0335 -41.0220 -41.0220 -41.0220 -41.0220
   -41.0192 -41.0045 -41.0045 -41.0043 -41.0038 -40.9959 -40.9952 -40.9923
   -40.9875 -40.9875 -40.9875 -40.9875 -40.9871 -40.9838 -40.9837 -40.9835
   -40.9825 -40.9810 -40.9809 -40.9777 -40.9755 -40.9754 -40.9748 -40.9746
   -40.9563 -40.9562 -40.9542 -40.9507 -40.9506 -40.9501 -40.9499 -40.9496
   -40.9437 -40.9394 -40.9394 -40.9266 -40.9198 -40.9164 -40.9158 -40.9158
   -40.9157 -40.9157 -40.9090 -40.9089 -40.9089 -40.9041 -40.9034 -40.8977
   -40.8970 -40.8957 -40.8956 -40.8853 -40.8850 -40.8841 -40.8819 -40.8802
   -40.8749 -40.8717 -40.8689 -40.8677 -40.8676 -40.8628 -40.8583 -40.8545
   -40.8376 -40.8368 -40.8362 -40.8311 -40.8309 -40.8215 -40.8147 -40.7995
   -40.7919 -40.7903 -40.7822 -40.7784 -40.7666 -40.7602 -40.7529 -40.7443
   -40.7209 -40.6774 -40.6649 -20.1680 -20.1666 -20.0642 -20.0373 -19.9518
   -19.9010 -19.7326 -19.7323 -19.6186 -19.6171 -19.5083 -19.5058 -19.0850
   -19.0614 -19.0303 -19.0243 -19.0242 -19.0239 -18.9958 -18.9952 -18.9523
   -18.9103 -18.9031 -18.8936 -18.8880 -18.8260 -18.8200 -18.8186 -18.7952
   -18.7777 -18.7771 -18.7699 -18.7203 -18.6957 -18.6759 -18.6724 -18.6652
   -18.6478 -18.6202 -18.5693 -18.5470 -18.5267 -18.5007 -18.4957 -18.4935
   -18.4921 -18.4283 -18.4209 -18.4144 -18.4142 -18.4142 -18.4137 -18.3890
   -18.3812 -18.3739 -18.3629 -18.3334 -18.3319 -18.3315 -18.3299 -18.3217
   -18.3205 -18.2829 -18.2717 -18.2607 -18.2398 -18.2372 -18.2351 -18.2341
   -18.2281 -18.2093 -18.1979 -18.1910 -18.1907 -18.1867 -18.1606 -18.1521
   -18.1517 -18.1517 -18.1395 -18.1325 -18.1322 -18.0893 -18.0892 -18.0728
   -18.0717 -18.0692 -18.0486 -18.0296 -18.0279 -18.0253 -18.0246 -17.9733
   -17.9596 -17.9271 -17.9189 -12.1645 -11.9513 -11.9467 -11.7951 -11.7706
   -11.7601 -11.7597 -11.7560 -11.7468 -11.7337 -11.7255 -11.6701 -11.6693
   -11.6570 -11.6570 -11.6168 -11.6080 -11.5930 -11.5624 -11.5587 -11.5569
   -11.5498 -11.5449 -11.5449 -11.5304 -11.4935 -11.4932 -11.4831 -11.4735
   -11.4348 -11.4314 -11.4312 -11.4298 -11.4118 -11.3206 -11.2553 -11.2444
   -11.2410 -11.2379 -11.2171 -11.2143 -11.2003 -11.1959 -11.1731 -11.1539
   -11.1494 -11.1293 -11.1225 -11.1184 -11.1169 -11.1159 -11.1140 -11.1042
   -11.0720 -11.0664 -11.0590 -11.0504 -11.0475 -11.0461 -11.0402 -11.0247
   -11.0224 -11.0018 -10.9204 -10.8436 -10.8238 -10.7924 -10.7724 -10.7555
   -10.7533 -10.6519 -10.6313 -10.5278 -10.4511 -10.4210 -10.4104 -10.4012
   -10.3978 -10.3670 -10.3309 -10.2993 -10.2883 -10.2787 -10.2270 -10.2219
   -10.2186 -10.2156 -10.2129 -10.2099 -10.1799 -10.1774 -10.1755 -10.1668
   -10.1507 -10.1363 -10.0675 -10.0623 -10.0529 -10.0312 -10.0273 -10.0187
   -10.0096 -10.0047  -9.9921  -9.9876  -9.9876  -9.9793  -9.9398  -9.9141
    -9.8956  -9.8926  -9.8777  -9.8763  -9.8726  -9.8698  -9.8602  -9.8167
    -9.8148  -9.8132  -9.8080  -9.7630  -9.7503  -9.7489  -9.7302  -9.6958
    -9.6679  -9.6319  -9.5731  -9.5581  -9.5284  -9.5248  -9.4809  -9.4808
    -9.4365  -9.4276  -9.4234  -9.4134  -9.4073  -9.4066  -9.4007  -9.3878
    -9.3755  -9.3234  -9.3221  -9.3096  -9.2956  -9.2817  -9.2743  -9.2566
    -9.2548  -9.2345  -9.2314  -9.2193  -9.2190  -9.2177  -9.2169  -9.2004
    -9.1872  -9.1797  -9.1757  -9.1540  -9.1512  -9.1466  -9.1424  -9.1340
    -9.1271  -9.1271  -9.1190  -9.1037  -9.0979  -9.0905  -9.0771  -9.0697
    -9.0495  -9.0464  -9.0396  -9.0242  -9.0130  -9.0024  -8.9933  -8.9585
    -8.9508  -8.9407  -8.8064  -8.8006  -8.7958  -8.7332  -8.7101  -8.6927
    -8.6810  -8.6628  -8.5409  -8.4813  -8.4813  -8.4616  -8.4043  -8.4030
    -8.3743  -8.3391  -8.3062  -8.2235  -8.2221  -8.2154  -8.2048  -8.1899
    -8.1473  -8.1446  -8.1386  -8.1345  -8.1345  -8.1321  -8.1292  -8.1246
    -8.1186  -8.1118  -8.0872  -8.0871  -8.0868  -8.0856  -8.0588  -8.0587
    -8.0447  -8.0419  -8.0399  -8.0397  -8.0112  -8.0100  -8.0074  -8.0068
    -7.9888  -7.9744  -7.9679  -7.9612  -7.9610  -7.9604  -7.9494  -7.9493
    -7.9463  -7.9264  -7.9168  -7.9135  -7.9106  -7.8962  -7.8773  -7.8727
    -7.8725  -7.8723  -7.8667  -7.8399  -7.8278  -7.8164  -7.8163  -7.7797
    -7.7622  -7.7561  -7.7088  -7.7052  -7.6473  -7.6223  -7.5318  -7.5264
    -7.5216  -7.5212  -7.4791  -7.4339  -7.4128  -7.3985  -7.3925  -7.3921
    -7.3496  -7.3304  -7.3070  -7.3015  -7.2964  -7.2828  -7.2299  -7.2274
    -7.2181  -7.2125  -7.2021  -7.1980  -7.1813  -7.1242  -7.1192  -7.1143
    -7.1043  -7.0564  -7.0411  -6.9907  -6.9831  -6.9474  -6.9462  -6.9461
    -6.9461  -6.9429  -6.9185  -6.8889  -6.8729  -6.8726  -6.8709  -6.8698
    -6.8495  -6.8253  -6.8137  -6.7749  -6.7737  -6.7587  -6.7436  -6.6961
    -6.6791  -6.6517  -6.6144  -6.6142  -6.6141  -6.6139  -6.5576  -6.5449
    -6.5445  -6.5294  -6.5280  -6.5259  -6.5221  -6.4909  -6.4581  -6.4431
    -6.4338  -6.4043  -6.3939  -6.3879  -6.2660  -6.2659  -6.1855  -6.1848
    -6.1378  -6.0920  -6.0501  -6.0134  -5.8789  -5.8477  -5.8228  -5.7768
    -5.2966  -4.2967  -4.2945  -4.2896  -4.2789  -4.1816  -4.1816  -4.1515
    -4.1451  -4.1117  -4.1116  -4.0375  -4.0333  -4.0256  -4.0038  -3.9904
    -3.9806  -3.9375  -3.9131  -3.8781  -3.8777  -3.8764  -3.8744  -3.8660
    -3.8658  -3.8099  -3.8052  -3.8050  -3.7815  -3.7798  -3.7726  -3.7558
    -3.7507  -3.7468  -3.7418  -3.7365  -3.7349  -3.7319  -3.6902  -3.6620
    -3.6540  -3.6319  -3.6318  -3.6156  -3.6132  -3.6031  -3.6012  -3.6009
    -3.5922  -3.5878  -3.5777  -3.5559  -3.5556  -3.5552  -3.5549  -3.5356
    -3.5307  -3.5159  -3.5131  -3.5025  -3.4976  -3.4756  -3.4700  -3.4677
    -3.4638  -3.4597  -3.4580  -3.4253  -3.3930  -3.3795  -3.3637  -3.3518
    -3.3510  -3.3450  -3.3446  -3.3289  -3.3102  -3.3063  -3.2941  -3.2929
    -3.2926  -3.2921  -3.2916  -3.2836  -3.2487  -3.2414  -3.2410  -3.2402
    -3.1977  -3.1932  -3.1931  -3.1863  -3.1860  -3.1767  -3.1599  -3.1570
    -3.1441  -3.1373  -3.1294  -3.1276  -3.1093  -3.0886  -3.0878  -3.0744
    -3.0715  -3.0596  -3.0388  -3.0328  -3.0067  -3.0023  -2.9648  -2.9615
    -2.9287  -2.9273  -2.9199  -2.8975  -2.8930  -2.8904  -2.8403  -2.8365
    -2.8086  -2.7628  -2.7609  -2.7439  -2.7258  -2.6933  -2.6846  -2.5736
    -2.5556

          k =-0.5000-0.8660 0.0000 (321564 PWs)   bands (ev):

  -103.4988 -71.9038 -71.8595 -71.8595 -71.7719 -71.7718 -71.7456 -71.7431
   -66.9696 -66.9696 -66.9590 -66.9590 -66.9441 -66.9441 -66.9440 -66.9440
   -66.9397 -66.9396 -66.9335 -66.9335 -66.9334 -66.9334 -66.9290 -66.9290
   -66.8994 -66.8987 -66.8885 -66.8885 -66.8738 -66.8738 -66.8735 -66.8732
   -66.8694 -66.8687 -66.8633 -66.8633 -66.8630 -66.8620 -66.8584 -66.8584
   -66.7915 -66.7879 -66.7777 -66.7723 -66.7669 -66.7654 -66.7610 -66.7606
   -66.7588 -66.7444 -66.7405 -66.7401 -66.7330 -66.7322 -66.7279 -66.6338
   -57.8535 -57.5896 -57.5895 -41.2707 -41.2707 -41.2707 -41.2707 -41.2441
   -41.2441 -41.2322 -41.2321 -41.1990 -41.1990 -41.1986 -41.1980 -41.1817
   -41.1817 -41.1817 -41.1817 -41.1724 -41.1718 -41.1601 -41.1601 -41.1239
   -41.1239 -41.1138 -41.1138 -41.1098 -41.1098 -41.1097 -41.1097 -41.1032
   -41.1032 -41.0941 -41.0838 -41.0783 -41.0738 -41.0737 -41.0737 -41.0737
   -41.0651 -41.0651 -41.0612 -41.0596 -41.0589 -41.0546 -41.0540 -41.0529
   -41.0529 -41.0528 -41.0528 -41.0528 -41.0528 -41.0442 -41.0442 -41.0420
   -41.0419 -41.0411 -41.0337 -41.0335 -41.0220 -41.0220 -41.0220 -41.0220
   -41.0192 -41.0045 -41.0045 -41.0043 -41.0038 -40.9959 -40.9953 -40.9923
   -40.9875 -40.9875 -40.9875 -40.9875 -40.9871 -40.9838 -40.9837 -40.9835
   -40.9825 -40.9810 -40.9809 -40.9777 -40.9755 -40.9754 -40.9748 -40.9746
   -40.9563 -40.9562 -40.9542 -40.9507 -40.9506 -40.9501 -40.9499 -40.9496
   -40.9437 -40.9394 -40.9394 -40.9266 -40.9198 -40.9164 -40.9158 -40.9158
   -40.9157 -40.9157 -40.9090 -40.9089 -40.9089 -40.9040 -40.9034 -40.8977
   -40.8970 -40.8957 -40.8956 -40.8853 -40.8850 -40.8841 -40.8819 -40.8802
   -40.8749 -40.8716 -40.8689 -40.8677 -40.8676 -40.8628 -40.8583 -40.8545
   -40.8376 -40.8369 -40.8362 -40.8311 -40.8309 -40.8215 -40.8147 -40.7995
   -40.7919 -40.7903 -40.7822 -40.7784 -40.7666 -40.7601 -40.7529 -40.7443
   -40.7209 -40.6774 -40.6649 -20.1680 -20.1666 -20.0642 -20.0373 -19.9518
   -19.9010 -19.7326 -19.7323 -19.6186 -19.6171 -19.5083 -19.5058 -19.0850
   -19.0614 -19.0303 -19.0243 -19.0242 -19.0239 -18.9958 -18.9952 -18.9523
   -18.9103 -18.9031 -18.8936 -18.8880 -18.8260 -18.8200 -18.8186 -18.7952
   -18.7777 -18.7771 -18.7699 -18.7203 -18.6957 -18.6759 -18.6724 -18.6652
   -18.6478 -18.6202 -18.5693 -18.5470 -18.5267 -18.5007 -18.4957 -18.4935
   -18.4921 -18.4283 -18.4209 -18.4144 -18.4142 -18.4142 -18.4137 -18.3890
   -18.3812 -18.3740 -18.3629 -18.3334 -18.3319 -18.3315 -18.3299 -18.3217
   -18.3205 -18.2829 -18.2717 -18.2607 -18.2397 -18.2372 -18.2351 -18.2341
   -18.2281 -18.2093 -18.1979 -18.1910 -18.1907 -18.1867 -18.1606 -18.1521
   -18.1517 -18.1517 -18.1395 -18.1325 -18.1322 -18.0893 -18.0892 -18.0728
   -18.0717 -18.0692 -18.0486 -18.0296 -18.0279 -18.0253 -18.0245 -17.9733
   -17.9596 -17.9271 -17.9189 -12.1645 -11.9513 -11.9467 -11.7950 -11.7706
   -11.7601 -11.7597 -11.7561 -11.7468 -11.7337 -11.7255 -11.6701 -11.6693
   -11.6570 -11.6570 -11.6168 -11.6080 -11.5930 -11.5624 -11.5587 -11.5569
   -11.5498 -11.5449 -11.5449 -11.5304 -11.4935 -11.4932 -11.4831 -11.4735
   -11.4348 -11.4314 -11.4312 -11.4298 -11.4118 -11.3206 -11.2553 -11.2444
   -11.2410 -11.2379 -11.2171 -11.2143 -11.2003 -11.1959 -11.1731 -11.1540
   -11.1494 -11.1293 -11.1225 -11.1184 -11.1169 -11.1159 -11.1140 -11.1042
   -11.0720 -11.0664 -11.0590 -11.0504 -11.0475 -11.0461 -11.0402 -11.0247
   -11.0224 -11.0018 -10.9204 -10.8436 -10.8238 -10.7924 -10.7724 -10.7555
   -10.7533 -10.6519 -10.6313 -10.5278 -10.4511 -10.4210 -10.4104 -10.4011
   -10.3977 -10.3670 -10.3309 -10.2993 -10.2883 -10.2787 -10.2270 -10.2219
   -10.2186 -10.2156 -10.2129 -10.2099 -10.1799 -10.1774 -10.1755 -10.1668
   -10.1507 -10.1363 -10.0675 -10.0623 -10.0529 -10.0312 -10.0273 -10.0187
   -10.0095 -10.0047  -9.9921  -9.9876  -9.9876  -9.9793  -9.9398  -9.9141
    -9.8956  -9.8926  -9.8777  -9.8763  -9.8726  -9.8698  -9.8602  -9.8167
    -9.8148  -9.8132  -9.8080  -9.7630  -9.7503  -9.7489  -9.7302  -9.6958
    -9.6679  -9.6319  -9.5731  -9.5581  -9.5284  -9.5248  -9.4809  -9.4808
    -9.4365  -9.4276  -9.4234  -9.4134  -9.4073  -9.4066  -9.4007  -9.3878
    -9.3756  -9.3234  -9.3221  -9.3096  -9.2956  -9.2817  -9.2743  -9.2566
    -9.2548  -9.2345  -9.2314  -9.2193  -9.2190  -9.2177  -9.2169  -9.2004
    -9.1872  -9.1797  -9.1757  -9.1540  -9.1512  -9.1466  -9.1424  -9.1340
    -9.1271  -9.1271  -9.1190  -9.1037  -9.0979  -9.0905  -9.0771  -9.0697
    -9.0495  -9.0464  -9.0395  -9.0242  -9.0130  -9.0024  -8.9933  -8.9585
    -8.9508  -8.9407  -8.8064  -8.8006  -8.7958  -8.7332  -8.7101  -8.6927
    -8.6810  -8.6628  -8.5409  -8.4813  -8.4813  -8.4616  -8.4043  -8.4030
    -8.3743  -8.3391  -8.3062  -8.2235  -8.2221  -8.2154  -8.2048  -8.1899
    -8.1473  -8.1446  -8.1386  -8.1345  -8.1345  -8.1320  -8.1292  -8.1246
    -8.1186  -8.1118  -8.0872  -8.0871  -8.0868  -8.0856  -8.0588  -8.0587
    -8.0447  -8.0419  -8.0399  -8.0397  -8.0112  -8.0100  -8.0074  -8.0068
    -7.9888  -7.9744  -7.9679  -7.9612  -7.9610  -7.9604  -7.9494  -7.9493
    -7.9463  -7.9264  -7.9168  -7.9135  -7.9106  -7.8962  -7.8773  -7.8727
    -7.8725  -7.8723  -7.8667  -7.8399  -7.8278  -7.8164  -7.8163  -7.7797
    -7.7622  -7.7561  -7.7088  -7.7052  -7.6473  -7.6223  -7.5318  -7.5264
    -7.5216  -7.5212  -7.4791  -7.4339  -7.4128  -7.3984  -7.3925  -7.3921
    -7.3496  -7.3304  -7.3070  -7.3015  -7.2964  -7.2828  -7.2299  -7.2274
    -7.2181  -7.2125  -7.2021  -7.1980  -7.1813  -7.1242  -7.1191  -7.1143
    -7.1043  -7.0563  -7.0411  -6.9907  -6.9831  -6.9474  -6.9462  -6.9461
    -6.9461  -6.9429  -6.9185  -6.8889  -6.8729  -6.8726  -6.8709  -6.8698
    -6.8495  -6.8253  -6.8137  -6.7749  -6.7737  -6.7587  -6.7436  -6.6961
    -6.6791  -6.6518  -6.6144  -6.6143  -6.6141  -6.6139  -6.5576  -6.5449
    -6.5445  -6.5294  -6.5280  -6.5259  -6.5221  -6.4909  -6.4581  -6.4431
    -6.4338  -6.4043  -6.3939  -6.3879  -6.2660  -6.2659  -6.1855  -6.1848
    -6.1378  -6.0920  -6.0502  -6.0134  -5.8789  -5.8477  -5.8228  -5.7768
    -5.2966  -4.2969  -4.2946  -4.2895  -4.2790  -4.1817  -4.1817  -4.1516
    -4.1452  -4.1117  -4.1116  -4.0375  -4.0330  -4.0256  -4.0038  -3.9904
    -3.9806  -3.9374  -3.9130  -3.8782  -3.8777  -3.8765  -3.8743  -3.8660
    -3.8658  -3.8094  -3.8052  -3.8050  -3.7815  -3.7797  -3.7727  -3.7559
    -3.7507  -3.7470  -3.7419  -3.7368  -3.7353  -3.7321  -3.6904  -3.6621
    -3.6541  -3.6323  -3.6318  -3.6156  -3.6131  -3.6035  -3.6013  -3.6009
    -3.5924  -3.5878  -3.5781  -3.5556  -3.5553  -3.5550  -3.5546  -3.5357
    -3.5310  -3.5161  -3.5131  -3.5027  -3.4979  -3.4753  -3.4700  -3.4673
    -3.4637  -3.4595  -3.4578  -3.4257  -3.3929  -3.3795  -3.3638  -3.3518
    -3.3513  -3.3450  -3.3445  -3.3288  -3.3105  -3.3061  -3.2945  -3.2931
    -3.2929  -3.2926  -3.2919  -3.2843  -3.2491  -3.2415  -3.2412  -3.2402
    -3.1977  -3.1937  -3.1932  -3.1867  -3.1859  -3.1766  -3.1597  -3.1567
    -3.1442  -3.1374  -3.1294  -3.1276  -3.1095  -3.0891  -3.0884  -3.0757
    -3.0749  -3.0620  -3.0398  -3.0328  -3.0036  -2.9998  -2.9660  -2.9637
    -2.9289  -2.9271  -2.9226  -2.8969  -2.8933  -2.8905  -2.8404  -2.8365
    -2.8087  -2.7631  -2.7600  -2.7440  -2.7256  -2.6930  -2.6833  -2.5771
    -2.5546

     the Fermi energy is    -5.2932 ev

!    total energy              =  -25521.02580995 Ry
     total all-electron energy =   -502193.568753 Ry
     estimated scf accuracy    <       0.00000091 Ry
     smearing contrib. (-TS)   =      -0.00573956 Ry
     internal energy E=F+TS    =  -25521.02007038 Ry

     The total energy is F=E-TS. E is the sum of the following terms:
     one-electron contribution =  473170.40658170 Ry
     hartree contribution      = -236737.61661158 Ry
     xc contribution           =   -1504.23119065 Ry
     ewald contribution        = -244512.10347373 Ry
     DFT-D3 Dispersion         =      -3.98700456 Ry
     one-center paw contrib.   =  -15933.48837157 Ry

     convergence has been achieved in  22 iterations

     negative rho (up, down):  8.669E-04 0.000E+00

     Forces acting on atoms (cartesian axes, Ry/au):

     atom    1 type  1   force =    -0.00375194    0.00214473   -0.00047309
     atom    2 type  1   force =     0.00000678   -0.00001469    0.00193946
     atom    3 type  1   force =     0.00003065   -0.00005388    0.00005445
     atom    4 type  2   force =    -0.00000185   -0.00000127   -0.00343061
     atom    5 type  2   force =    -0.00000174    0.00000573   -0.00004587
     atom    6 type  2   force =     0.00008265   -0.00009737    0.00073767
     atom    7 type  2   force =     0.00000187   -0.00000457    0.00161626
     atom    8 type  2   force =    -0.00004322    0.00000694    0.00015042
     atom    9 type  2   force =    -0.00179569   -0.00048213    0.00045498
     atom   10 type  1   force =     0.00001021   -0.00432015   -0.00046542
     atom   11 type  1   force =    -0.00000402   -0.00001192    0.00193542
     atom   12 type  1   force =    -0.00002725    0.00003882    0.00005073
     atom   13 type  2   force =    -0.00000645   -0.00000348   -0.00342866
     atom   14 type  2   force =    -0.00002284   -0.00001010   -0.00003204
     atom   15 type  2   force =    -0.00004605    0.00012293    0.00072551
     atom   16 type  2   force =    -0.00000595   -0.00000191    0.00163707
     atom   17 type  2   force =    -0.00003868   -0.00001897    0.00017748
     atom   18 type  2   force =    -0.00131157   -0.00131225    0.00046994
     atom   19 type  1   force =     0.00085288   -0.00050696   -0.00205476
     atom   20 type  1   force =    -0.00000930    0.00001362    0.00193716
     atom   21 type  1   force =    -0.00000171    0.00002655    0.00003944
     atom   22 type  2   force =    -0.00000189   -0.00000103   -0.00343678
     atom   23 type  2   force =     0.00000511   -0.00000470   -0.00005598
     atom   24 type  2   force =     0.00000281    0.00001599    0.00070029
     atom   25 type  2   force =    -0.00000224    0.00000590    0.00162340
     atom   26 type  2   force =    -0.00001427   -0.00003979    0.00015653
     atom   27 type  2   force =     0.00000049   -0.00001684    0.00029098
     atom   28 type  1   force =     0.00000039    0.00101267   -0.00205044
     atom   29 type  1   force =     0.00000152    0.00000763    0.00194054
     atom   30 type  1   force =     0.00001723   -0.00000631    0.00003695
     atom   31 type  2   force =    -0.00000090   -0.00000077   -0.00342355
     atom   32 type  2   force =     0.00000072    0.00000106   -0.00007338
     atom   33 type  2   force =     0.00001592   -0.00000454    0.00069607
     atom   34 type  2   force =    -0.00000013   -0.00000250    0.00161726
     atom   35 type  2   force =    -0.00000157   -0.00000385    0.00000634
     atom   36 type  2   force =    -0.00001416    0.00000962    0.00029553
     atom   37 type  1   force =     0.00374744    0.00213382   -0.00048218
     atom   38 type  1   force =    -0.00000082   -0.00001895    0.00194188
     atom   39 type  1   force =    -0.00000644   -0.00000207   -0.00017829
     atom   40 type  2   force =     0.00000015   -0.00000324   -0.00342362
     atom   41 type  2   force =     0.00000288    0.00000689   -0.00005298
     atom   42 type  2   force =     0.00000360    0.00018801    0.00028023
     atom   43 type  2   force =    -0.00000110   -0.00000167    0.00161803
     atom   44 type  2   force =     0.00004562    0.00000983    0.00015908
     atom   45 type  2   force =    -0.00000185   -0.00097056    0.00038829
     atom   46 type  1   force =     0.00000373    0.00001450   -0.00191792
     atom   47 type  1   force =    -0.00000327   -0.00001015    0.00193243
     atom   48 type  1   force =     0.00003222    0.00000486    0.00008344
     atom   49 type  2   force =    -0.00000325   -0.00000246   -0.00343241
     atom   50 type  2   force =     0.00000066    0.00001511   -0.00003620
     atom   51 type  2   force =    -0.00240647   -0.00138894   -0.00148622
     atom   52 type  2   force =    -0.00000179    0.00000701    0.00162274
     atom   53 type  2   force =     0.00000597   -0.00015710   -0.00015984
     atom   54 type  2   force =     0.01064295    0.00614787   -0.01667915
     atom   55 type  1   force =     0.00374597    0.00214178   -0.00047679
     atom   56 type  1   force =     0.00000658    0.00000825    0.00192827
     atom   57 type  1   force =    -0.00000298    0.00000804   -0.00018116
     atom   58 type  2   force =    -0.00000501    0.00000046   -0.00343610
     atom   59 type  2   force =     0.00001394   -0.00000777   -0.00004566
     atom   60 type  2   force =     0.00016225   -0.00008999    0.00026953
     atom   61 type  2   force =     0.00000459   -0.00000203    0.00163017
     atom   62 type  2   force =    -0.00013449    0.00008060   -0.00015762
     atom   63 type  2   force =    -0.00083989    0.00048151    0.00039474
     atom   64 type  1   force =    -0.00013892   -0.00005666   -0.00126525
     atom   65 type  1   force =    -0.00000588    0.00001074    0.00193558
     atom   66 type  1   force =    -0.00001883   -0.00000752    0.00002624
     atom   67 type  2   force =    -0.00000229    0.00000084   -0.00342709
     atom   68 type  2   force =     0.00000584   -0.00000307   -0.00005178
     atom   69 type  2   force =    -0.00001555   -0.00000741    0.00069341
     atom   70 type  2   force =    -0.00000230   -0.00000127    0.00162142
     atom   71 type  2   force =     0.00003036    0.00003175    0.00015862
     atom   72 type  2   force =     0.00001465    0.00000995    0.00029546
     atom   73 type  1   force =     0.00024618   -0.00015839   -0.00092349
     atom   74 type  1   force =     0.00001934   -0.00000668    0.00193325
     atom   75 type  1   force =    -0.00002810   -0.00004319    0.00004767
     atom   76 type  2   force =    -0.00000092   -0.00000186   -0.00343330
     atom   77 type  2   force =     0.00005002    0.00003127   -0.00005061
     atom   78 type  2   force =    -0.00008181   -0.00010187    0.00073525
     atom   79 type  2   force =    -0.00000386   -0.00000203    0.00161615
     atom   80 type  2   force =    -0.00011988   -0.00006806    0.00005643
     atom   81 type  2   force =     0.00179758   -0.00047962    0.00045655
     atom   82 type  1   force =     0.00000094   -0.00432008   -0.00047215
     atom   83 type  1   force =     0.00001236   -0.00000547    0.00193822
     atom   84 type  1   force =    -0.00002483    0.00000491    0.00009190
     atom   85 type  2   force =     0.00000248   -0.00000465   -0.00343869
     atom   86 type  2   force =     0.00002337   -0.00001172   -0.00003376
     atom   87 type  2   force =     0.00240341   -0.00138852   -0.00149336
     atom   88 type  2   force =     0.00000135    0.00000672    0.00162928
     atom   89 type  2   force =     0.00003385   -0.00001981    0.00017559
     atom   90 type  2   force =    -0.01064495    0.00614308   -0.01668172
     atom   91 type  1   force =    -0.00374400    0.00215643   -0.00046865
     atom   92 type  1   force =     0.00000775    0.00002028    0.00193364
     atom   93 type  1   force =     0.00000411   -0.00003747    0.00008411
     atom   94 type  2   force =    -0.00000229    0.00000240   -0.00344500
     atom   95 type  2   force =    -0.00001387   -0.00000779   -0.00003935
     atom   96 type  2   force =    -0.00000214    0.00277716   -0.00148653
     atom   97 type  2   force =    -0.00000076    0.00000137    0.00163587
     atom   98 type  2   force =     0.00013646    0.00007592   -0.00016093
     atom   99 type  2   force =    -0.00000580   -0.01228394   -0.01669984
     atom  100 type  1   force =     0.00000171    0.00029397   -0.00092136
     atom  101 type  1   force =     0.00000780    0.00001536    0.00193265
     atom  102 type  1   force =    -0.00005723    0.00000089    0.00004540
     atom  103 type  2   force =    -0.00000144    0.00000342   -0.00343455
     atom  104 type  2   force =    -0.00000170    0.00002119   -0.00003302
     atom  105 type  2   force =    -0.00012249   -0.00002238    0.00072342
     atom  106 type  2   force =     0.00000427   -0.00000397    0.00162731
     atom  107 type  2   force =    -0.00000078    0.00003984    0.00018376
     atom  108 type  2   force =     0.00048646    0.00179697    0.00046649
     atom  109 type  1   force =    -0.00024098   -0.00016026   -0.00092440
     atom  110 type  1   force =    -0.00002265   -0.00001098    0.00193183
     atom  111 type  1   force =     0.00001022    0.00000174    0.00032231
     atom  112 type  2   force =    -0.00000045    0.00000547   -0.00342014
     atom  113 type  2   force =    -0.00005110    0.00003009   -0.00005070
     atom  114 type  2   force =    -0.00000472   -0.00000354   -0.00024654
     atom  115 type  2   force =    -0.00000086    0.00000531    0.00162889
     atom  116 type  2   force =     0.00012040   -0.00006932    0.00005392
     atom  117 type  2   force =     0.00000027   -0.00000070    0.00061727
     atom  118 type  1   force =    -0.00000500    0.00016907   -0.00126632
     atom  119 type  1   force =    -0.00000539   -0.00001772    0.00193113
     atom  120 type  1   force =     0.00002195    0.00003980    0.00005000
     atom  121 type  2   force =     0.00000524   -0.00000315   -0.00343114
     atom  122 type  2   force =    -0.00000022   -0.00005794   -0.00005162
     atom  123 type  2   force =     0.00004484    0.00012438    0.00073308
     atom  124 type  2   force =     0.00000097   -0.00000082    0.00163671
     atom  125 type  2   force =     0.00000057    0.00013608    0.00005878
     atom  126 type  2   force =     0.00131230   -0.00131745    0.00045858
     atom  127 type  1   force =    -0.00086122   -0.00050485   -0.00204192
     atom  128 type  1   force =     0.00000109    0.00000990    0.00193992
     atom  129 type  1   force =     0.00000191    0.00000782   -0.00017873
     atom  130 type  2   force =     0.00000413   -0.00000093   -0.00343350
     atom  131 type  2   force =    -0.00000499   -0.00000655   -0.00005660
     atom  132 type  2   force =    -0.00016352   -0.00009265    0.00027362
     atom  133 type  2   force =    -0.00000658   -0.00000233    0.00162639
     atom  134 type  2   force =     0.00001652   -0.00004126    0.00016130
     atom  135 type  2   force =     0.00084211    0.00048529    0.00038746
     atom  136 type  1   force =     0.00013719   -0.00006517   -0.00124897
     atom  137 type  1   force =     0.00000030   -0.00000559    0.00194013
     atom  138 type  1   force =     0.00006517    0.00000240    0.00005163
     atom  139 type  2   force =    -0.00000159    0.00000310   -0.00342659
     atom  140 type  2   force =    -0.00000677   -0.00000262   -0.00004914
     atom  141 type  2   force =     0.00012342   -0.00002502    0.00073350
     atom  142 type  2   force =    -0.00000586   -0.00000402    0.00161617
     atom  143 type  2   force =    -0.00002748    0.00003325    0.00015665
     atom  144 type  2   force =    -0.00048616    0.00179786    0.00045350
     atom  145 type  3   force =     0.00000096    0.00005540    0.04820907
     atom  146 type  4   force =    -0.00000075   -0.00000099    0.00625783
     The non-local contrib.  to forces
     atom    1 type  1   force =     0.00094427    0.00742631   -0.00409629
     atom    2 type  1   force =    -0.00001082    0.00000357   -0.00195433
     atom    3 type  1   force =     0.00018991    0.00002207   -0.00071055
     atom    4 type  2   force =     0.00000019    0.00000058    0.26317580
     atom    5 type  2   force =    -0.00001614   -0.00006660    0.26613370
     atom    6 type  2   force =    -0.00174559   -0.00281568    0.26319732
     atom    7 type  2   force =    -0.00000629    0.00000195   -0.26457658
     atom    8 type  2   force =    -0.00023763    0.00012588   -0.26467860
     atom    9 type  2   force =    -0.00302041    0.00114979   -0.26400750
     atom   10 type  1   force =     0.00690197   -0.00289267   -0.00409747
     atom   11 type  1   force =    -0.00000549   -0.00000573   -0.00195107
     atom   12 type  1   force =     0.00012048    0.00015819   -0.00070586
     atom   13 type  2   force =    -0.00000178    0.00000206    0.26317332
     atom   14 type  2   force =     0.00001928    0.00000989    0.26608521
     atom   15 type  2   force =    -0.00331041   -0.00010515    0.26320009
     atom   16 type  2   force =    -0.00001165   -0.00000494   -0.26457595
[...]
     atom   65 type  1   force =    -0.00000028   -0.00000014    0.00260399
     atom   66 type  1   force =    -0.00000004   -0.00000002   -0.00001199
     atom   67 type  2   force =    -0.00000004    0.00000002    0.00441156
     atom   68 type  2   force =    -0.00000178   -0.00000061   -0.00004600
     atom   69 type  2   force =    -0.00000145   -0.00000084   -0.00020246
     atom   70 type  2   force =    -0.00000013    0.00000008    0.00023584
     atom   71 type  2   force =    -0.00001351    0.00001288    0.00009484
     atom   72 type  2   force =     0.00002700    0.00001559   -0.00439592
     atom   73 type  1   force =    -0.00008368    0.00004831   -0.00253757
     atom   74 type  1   force =    -0.00000032   -0.00000018    0.00260318
     atom   75 type  1   force =     0.00000747   -0.00000684   -0.00001728
     atom   76 type  2   force =    -0.00000001   -0.00000000    0.00441142
     atom   77 type  2   force =    -0.00000078   -0.00000045   -0.00004508
     atom   78 type  2   force =     0.00000862    0.00000545   -0.00015024
     atom   79 type  2   force =    -0.00000056   -0.00000032    0.00023542
     atom   80 type  2   force =     0.00000378    0.00000218    0.00010395
     atom   81 type  2   force =    -0.00021334    0.00024816   -0.00430259
     atom   82 type  1   force =    -0.00034270    0.00000108   -0.00223460
     atom   83 type  1   force =    -0.00000029    0.00000016    0.00260359
     atom   84 type  1   force =     0.00001002   -0.00000579   -0.00004897
     atom   85 type  2   force =     0.00000000    0.00000001    0.00441132
     atom   86 type  2   force =    -0.00000025    0.00000014   -0.00004784
     atom   87 type  2   force =    -0.00006040    0.00003488    0.00016224
     atom   88 type  2   force =    -0.00000037    0.00000012    0.00023561
     atom   89 type  2   force =     0.00001354   -0.00000782    0.00010032
     atom   90 type  2   force =    -0.00023758    0.00013720   -0.00423129
     atom   91 type  1   force =    -0.00017041   -0.00029731   -0.00223459
     atom   92 type  1   force =    -0.00000002   -0.00000001    0.00260395
     atom   93 type  1   force =     0.00000000    0.00001157   -0.00004897
     atom   94 type  2   force =     0.00000000    0.00000000    0.00441119
     atom   95 type  2   force =     0.00000109    0.00000062   -0.00005172
     atom   96 type  2   force =     0.00000000   -0.00006973    0.00016224
     atom   97 type  2   force =     0.00000000   -0.00000000    0.00023568
     atom   98 type  2   force =     0.00001610    0.00000929    0.00008231
     atom   99 type  2   force =     0.00000002   -0.00027434   -0.00423124
     atom  100 type  1   force =     0.00000000   -0.00009663   -0.00253756
     atom  101 type  1   force =    -0.00000000   -0.00000033    0.00260359
     atom  102 type  1   force =    -0.00000219    0.00000989   -0.00001728
     atom  103 type  2   force =     0.00000001   -0.00000000    0.00441132
     atom  104 type  2   force =     0.00000000   -0.00000029   -0.00004783
     atom  105 type  2   force =     0.00000904    0.00000474   -0.00015024
     atom  106 type  2   force =    -0.00000008   -0.00000038    0.00023561
     atom  107 type  2   force =     0.00000000    0.00001564    0.00010032
     atom  108 type  2   force =     0.00010826   -0.00030887   -0.00430258
     atom  109 type  1   force =     0.00008367    0.00004831   -0.00253757
     atom  110 type  1   force =     0.00000031   -0.00000018    0.00260318
     atom  111 type  1   force =    -0.00000000   -0.00000000   -0.00000389
     atom  112 type  2   force =     0.00000000   -0.00000003    0.00441131
     atom  113 type  2   force =     0.00000078   -0.00000045   -0.00004509
     atom  114 type  2   force =    -0.00000000   -0.00000000   -0.00017893
     atom  115 type  2   force =    -0.00000000   -0.00000059    0.00023554
     atom  116 type  2   force =    -0.00000377    0.00000218    0.00010395
     atom  117 type  2   force =     0.00000000    0.00000000   -0.00441278
     atom  118 type  1   force =    -0.00000001   -0.00002042   -0.00255800
     atom  119 type  1   force =    -0.00000000    0.00000036    0.00260318
     atom  120 type  1   force =     0.00000965   -0.00000305   -0.00001728
     atom  121 type  2   force =    -0.00000003    0.00000002    0.00441131
     atom  122 type  2   force =     0.00000000    0.00000090   -0.00004509
     atom  123 type  2   force =    -0.00000041   -0.00001020   -0.00015024
     atom  124 type  2   force =    -0.00000051    0.00000030    0.00023554
     atom  125 type  2   force =     0.00000000   -0.00000436    0.00010395
     atom  126 type  2   force =    -0.00032160    0.00006069   -0.00430259
     atom  127 type  1   force =    -0.00010906   -0.00006296   -0.00254329
     atom  128 type  1   force =     0.00000002    0.00000031    0.00260399
     atom  129 type  1   force =     0.00001107    0.00000640   -0.00003127
     atom  130 type  2   force =    -0.00000000   -0.00000000    0.00441132
     atom  131 type  2   force =     0.00000036    0.00000185   -0.00004600
     atom  132 type  2   force =    -0.00003464   -0.00001999   -0.00010053
     atom  133 type  2   force =    -0.00000029    0.00000026    0.00023561
     atom  134 type  2   force =     0.00001791    0.00000526    0.00009483
     atom  135 type  2   force =    -0.00050941   -0.00029410   -0.00414921
     atom  136 type  1   force =    -0.00001769    0.00001020   -0.00255801
     atom  137 type  1   force =     0.00000028   -0.00000014    0.00260399
     atom  138 type  1   force =     0.00000219    0.00000989   -0.00001727
     atom  139 type  2   force =    -0.00000001   -0.00000000    0.00441132
     atom  140 type  2   force =     0.00000179   -0.00000061   -0.00004600
     atom  141 type  2   force =    -0.00000904    0.00000474   -0.00015024
     atom  142 type  2   force =     0.00000008   -0.00000038    0.00023561
     atom  143 type  2   force =     0.00001351    0.00001288    0.00009483
     atom  144 type  2   force =    -0.00010825   -0.00030888   -0.00430258
     atom  145 type  3   force =    -0.00000001   -0.00000001   -0.00672755
     atom  146 type  4   force =    -0.00000000   -0.00000001   -0.00086625

     Total force =     0.002760     Total SCF correction =     0.000497
     SCF correction compared to forces is large: reduce conv_thr to get better values
     Energy error            =      1.3E-05 Ry
     Gradient error          =      9.4E-04 Ry/Bohr

     bfgs converged in  11 scf cycles and  10 bfgs steps
     (criteria: energy <  1.0E-04 Ry, force <  1.0E-03 Ry/Bohr)

     End of BFGS Geometry Optimization

     Final energy             =  -25521.0368592631 Ry

     File ./outdir/pwscf.bfgs deleted, as requested
Begin final coordinates

ATOMIC_POSITIONS (angstrom)
Mo            1.5676018225        2.7189782389        6.0834777078
Mo            1.5769197498        0.9104407117       -6.0872367793    0   0   0
Mo            0.0002517698        1.8209700558       -0.0002431052
S             0.0000044503        0.0000077495       -7.6506323570    0   0   0
S             1.5765381502        0.9107994212       -1.5665632421
S             0.0008261170        1.8209602065        4.5059867605
S             0.0000053241        0.0000068460       -4.5222282367    0   0   0
S             1.5773996812        0.9100702255        1.5659029957
S            -0.0153230139        1.8096376284        7.6468335273
Mo           -0.0153257102        5.4606892318        6.0834819128
Mo            0.0000011799        3.6417399547       -6.0872367793    0   0   0
Mo           -1.5767109377        4.5523405483       -0.0002479835
S            -1.5769141197        2.7313069925       -7.6506323570    0   0   0
S             0.0001177406        3.6418088317       -1.5655577658
S            -1.5764227859        4.5528345738        4.5059871441
S            -1.5769132459        2.7313060890       -4.5222282367    0   0   0
S             0.0008921420        3.6422602739        1.5673385512
S            -1.5943054105        4.5445090576        7.6468340301
Mo           -1.5784792527        8.1947763359        6.0753645196
Mo           -1.5769173901        6.3730391977       -6.0872367793    0   0   0
Mo           -3.1538558418        7.2833459436       -0.0016135879
S            -3.1538326896        5.4626062355       -7.6506323570    0   0   0
S            -1.5768005707        6.3725355522       -1.5665680713
S            -3.1538551745        7.2848718829        4.5084836560
S            -3.1538318159        5.4626053320       -4.5222282367    0   0   0
S            -1.5770015604        6.3736451019        1.5658997445
S            -3.1538526978        7.2818297984        7.6427607174
Mo            3.1538160303       -0.0017874000        6.0753655943
Mo           -3.1538359601        9.1043384407       -6.0872367793    0   0   0
Mo           -4.7308778947       10.0148249287       -0.0016132720
S            -4.7307512596        8.1939054785       -7.6506323570    0   0   0
S            -3.1538586908        9.1043305052       -1.5669946781
S            -4.7295457424       10.0140446192        4.5084831412
S            -4.7307503859        8.1939045750       -4.5222282367    0   0   0
S            -3.1538557913        9.1043290572        1.5648405460
S            -4.7321799447       10.0155679963        7.6427614680
Mo            4.7400253822        2.7189707286        6.0834707002
Mo            4.7307503218        0.9104407117       -6.0872367793    0   0   0
Mo            3.1538107285        1.8208608023       -0.0013973730
S             3.1538350223        0.0000077495       -7.6506323570    0   0   0
S             4.7310864024        0.9108007407       -1.5665673784
S             3.1538105436        1.8216085294        4.5152249561
S             3.1538358961        0.0000068460       -4.5222282367    0   0   0
S             4.7302288926        0.9100713208        1.5658999831
S             3.1538163514        1.8133111603        7.6472182271
Mo            3.1538112254        5.4625897526        6.1441765224
Mo            3.1538317519        3.6417399547       -6.0872367793    0   0   0
Mo            1.5772166033        4.5523503477       -0.0004789615
S             1.5769164523        2.7313069925       -7.6506323570    0   0   0
S             3.1538085824        3.6419830236       -1.5662504972
S             1.5921967410        4.5609880243        4.5517046551
S             1.5769173261        2.7313060890       -4.5222282367    0   0   0
S             3.1538086284        3.6412654355        1.5664124204
S             1.4919957462        4.5031334364        7.6944285777
Mo            1.5708700569        8.2080995437        6.0834683382
Mo            1.5769131819        6.3730391977       -6.0872367793    0   0   0
Mo           -0.0000288113        7.2834674113       -0.0013998999
S            -0.0000021176        5.4626062355       -7.6506323570    0   0   0
S             1.5771110462        6.3729047138       -1.5662528056
S             0.0006264620        7.2830725286        4.5152249738
S            -0.0000012439        5.4626053320       -4.5222282367    0   0   0
S             1.5764866097        6.3732642898        1.5664136752
S            -0.0065560217        7.2872291618        7.6472158373
Mo            6.3092328792        0.0009067144        6.0708814846
Mo           -0.0000053881        9.1043384407       -6.0872367793    0   0   0
Mo           -1.5768389610       10.0148253149       -0.0016154403
S            -1.5769206876        8.1939054785       -7.6506323570    0   0   0
S             0.0004713849        9.1044589046       -1.5665671924
S            -1.5781704521       10.0140442529        4.5084795981
S            -1.5769198139        8.1939045750       -4.5222282367    0   0   0
S            -0.0005911625        9.1040770159        1.5658981482
S            -1.5755311944       10.0155675115        7.6427582558
Mo            7.8869672675        2.7298990996        6.0705704307
Mo            7.8845808939        0.9104407117       -6.0872367793    0   0   0
Mo            6.3073733935        1.8209735953       -0.0002492550
S             6.3076655943        0.0000077495       -7.6506323570    0   0   0
S             7.8845978174        0.9104556224       -1.5654868707
S             6.3068051403        1.8209579663        4.5059806629
S             6.3076664681        0.0000068460       -4.5222282367    0   0   0
S             7.8841743438        0.9102126781        1.5663397646
S             6.3229524531        1.8096325979        7.6468267946
Mo            6.3229499868        5.4606902129        6.0834813937
Mo            6.3076623239        3.6417399547       -6.0872367793    0   0   0
Mo            4.7304007167        4.5523510971       -0.0004779792
S             4.7307470244        2.7313069925       -7.6506323570    0   0   0
S             6.3075006889        3.6418127963       -1.5655605151
S             4.7154271954        4.5609872707        4.5517015501
S             4.7307478981        2.7313060890       -4.5222282367    0   0   0
S             6.3067267678        3.6422598581        1.5673349629
S             4.8156275973        4.5031286728        7.6944118667
Mo            4.7367403263        8.2080993927        6.0834749378
Mo            4.7307437539        6.3730391977       -6.0872367793    0   0   0
Mo            3.1538061932        7.2830916234       -0.0004792763
S             3.1538284544        5.4626062355       -7.6506323570    0   0   0
S             4.7305024049        6.3729058617       -1.5662522858
S             3.1538080448        7.2657888389        4.5516994083
S             3.1538293281        5.4626053320       -4.5222282367    0   0   0
S             4.7311245799        6.3732641350        1.5664137226
S             3.1538039647        7.3814947299        7.6943898554
Mo            9.4614778322        0.0027711477        6.0705698936
Mo            3.1538251839        9.1043384407       -6.0872367793    0   0   0
Mo            1.5768456452       10.0144801827       -0.0002482975
S             1.5769098844        8.1939054785       -7.6506323570    0   0   0
S             3.1538050840        9.1041728319       -1.5655589822
S             1.5765564591       10.0139777402        4.5059783844
S             1.5769107581        8.1939045750       -4.5222282367    0   0   0
S             3.1538020578        9.1032763321        1.5673392583
S             1.5748226474       10.0336235403        7.6468267382
Mo           -1.5793387375        2.7298999168        6.0705729187
Mo           11.0384114659        0.9104407117       -6.0872367793    0   0   0
Mo            9.4614745640        1.8208656122       -0.0000848231
S             9.4614961663        0.0000077495       -7.6506323570    0   0   0
S            11.0383531454        0.9104540381       -1.5654816913
S             9.4614782137        1.8208588506        4.5029212010
S             9.4614970401        0.0000068460       -4.5222282367    0   0   0
S            11.0387713783        0.9102113117        1.5663430973
S             9.4614742131        1.8208561424        7.6401051742
Mo           -3.1538498979        5.4607584916        6.0708887771
Mo            9.4614928959        3.6417399547       -6.0872367793    0   0   0
Mo            7.8843265497        4.5523421007       -0.0002494259
S             7.8845775964        2.7313069925       -7.6506323570    0   0   0
S             9.4614711923        3.6416867430       -1.5654869921
S             7.8840472469        4.5528350008        4.5059856853
S             7.8845784701        2.7313060890       -4.5222282367    0   0   0
S             9.4614694771        3.6421754824        1.5663391226
S             7.9019301447        4.5445076520        7.6468329119
Mo           -4.7292306196        8.1947766247        6.0753677864
Mo            7.8845743259        6.3730391977       -6.0872367793    0   0   0
Mo            6.3076397669        7.2834674044       -0.0013987440
S             6.3076590264        5.4626062355       -7.6506323570    0   0   0
S             7.8844128589        6.3725371447       -1.5665678231
S             6.3069865086        7.2830757626        4.5152276695
S             6.3076599001        5.4626053320       -4.5222282367    0   0   0
S             7.8846143008        6.3736440209        1.5658994222
S             6.3141703253        7.2872269810        7.6472186007
Mo           -0.0015996554        0.0009085827        6.0708888622
Mo            6.3076557559        9.1043384407       -6.0872367793    0   0   0
Mo            4.7307625773       10.0144791838       -0.0002430155
S             4.7307404564        8.1939054785       -7.6506323570    0   0   0
S             6.3071367255        9.1044582394       -1.5665637757
S             4.7310546791       10.0139770476        4.5059831912
S             4.7307413301        8.1939045750       -4.5222282367    0   0   0
S             6.3081981209        9.1040750801        1.5659015815
S             4.7327840467       10.0336248158        7.6468324555
Pt            3.1538533183        5.4626661718        9.0305218688
H             3.1540053338        5.4630118596       10.6233860695
End final coordinates



     Writing all to output data dir ./outdir/pwscf.save/
 
     init_run     :    105.95s CPU    108.99s WALL (       1 calls)
     electrons    :  53045.88s CPU  53874.23s WALL (      11 calls)
     update_pot   :     46.95s CPU     47.14s WALL (      10 calls)
     forces       :    818.42s CPU    846.87s WALL (      11 calls)
     force_dftd3  :      5.04s CPU      5.06s WALL (      11 calls)

     Called by init_run:
     wfcinit      :     84.92s CPU     86.25s WALL (       1 calls)
     potinit      :      2.08s CPU      2.15s WALL (       1 calls)
     hinit0       :     11.74s CPU     11.78s WALL (       1 calls)

     Called by electrons:
     c_bands      :  46499.37s CPU  46811.26s WALL (     150 calls)
     sum_band     :   5781.67s CPU   6060.35s WALL (     150 calls)
     v_of_rho     :     63.70s CPU     64.62s WALL (     154 calls)
     newd         :    602.65s CPU    852.12s WALL (     154 calls)
     PAW_pot      :     97.45s CPU     97.48s WALL (     164 calls)
     mix_rho      :     17.53s CPU     17.59s WALL (     150 calls)
     energy_dftd3 :      2.32s CPU      2.32s WALL (      11 calls)

     Called by c_bands:
     init_us_2    :    240.34s CPU    240.45s WALL (    1288 calls)
     init_us_2:cp :    240.32s CPU    240.45s WALL (    1288 calls)
     cegterg      :  45715.22s CPU  46024.29s WALL (     619 calls)

     Called by *egterg:
     cdiaghg      :   2782.64s CPU   2791.25s WALL (    7079 calls)
     h_psi        :  24452.96s CPU  24543.70s WALL (    7151 calls)
     s_psi        :   4807.11s CPU   4807.54s WALL (    7151 calls)
     g_psi        :     56.39s CPU     56.43s WALL (    6528 calls)

     Called by h_psi:
     h_psi:calbec :   4945.32s CPU   4946.39s WALL (    7151 calls)
     vloc_psi     :  14589.65s CPU  14624.82s WALL (    7151 calls)
     add_vuspsi   :   4854.88s CPU   4856.18s WALL (    7151 calls)

     General routines
     calbec       :   7030.19s CPU   7031.72s WALL (    7967 calls)
     fft          :     58.79s CPU     60.05s WALL (    2118 calls)
     ffts         :      2.77s CPU      2.80s WALL (     304 calls)
     fftw         :  11597.69s CPU  11626.90s WALL ( 3229346 calls)
     interpolate  :      6.34s CPU      6.41s WALL (     154 calls)
 
     Parallel routines
 
     PWSCF        :     15h 4m CPU     15h19m WALL

 
   This run was terminated on:   4:52: 0  19Dec2023            

=------------------------------------------------------------------------------=
   JOB DONE.
=------------------------------------------------------------------------------=
Application 11518034 resources: utime ~1954377s, stime ~31550s, Rss ~2629804, inblocks ~0, outblocks ~35013392
