
     Program PWSCF v.7.3 starts on  3May2024 at  0:27:17 

     This program is part of the open-source Quantum ESPRESSO suite
     for quantum simulation of materials; please cite
         "P. Giannozzi et al., J. Phys.:Condens. Matter 21 395502 (2009);
         "P. Giannozzi et al., J. Phys.:Condens. Matter 29 465901 (2017);
         "P. Giannozzi et al., J. Chem. Phys. 152 154105 (2020);
          URL http://www.quantum-espresso.org", 
     in publications or presentations arising from this work. More details at
     http://www.quantum-espresso.org/quote

     Parallel version (MPI & OpenMP), running on      36 processor cores
     Number of MPI processes:                36
     Threads/MPI process:                     1

     MPI processes distributed on     1 nodes
     558157 MiB available memory on the printing compute node when the environment starts
 
     Waiting for input...
     Reading input from standard input
Warning: card &CELL ignored
Warning: card / ignored

     Current dimensions of program PWSCF are:
     Max number of different atomic species (ntypx) = 10
     Max number of k-points (npk) =  40000
     Max angular momentum in pseudopotentials (lmaxx) =  4
     file Mo.pbe-spn-kjpaw_psl.1.0.0.UPF: wavefunction(s)  4S 4D renormalized
     file S.pbe-n-kjpaw_psl.1.0.0.UPF: wavefunction(s)  3S 3P renormalized
     file Pt.pbe-spfn-kjpaw_psl.1.0.0.UPF: wavefunction(s)  5P 4F renormalized
     file Pd.pbe-spn-kjpaw_psl.1.0.0.UPF: wavefunction(s)  4S 5S 4D renormalized
 
     R & G space division:  proc/nbgrp/npool/nimage =      36
     Subspace diagonalization in iterative solution of the eigenvalue problem:
     one sub-group per band group will be used
     scalapack distributed-memory algorithm (size of sub-group:  6*  6 procs)

 
     Parallelization info
     --------------------
     sticks:   dense  smooth     PW     G-vecs:    dense   smooth      PW
     Min         585     334     89               198743    85850   11735
     Max         586     335     90               198750    85861   11748
     Sum       21073   12049   3205              7154885  3090769  422587
 
     Using Slab Decomposition
 


     bravais-lattice index     =            0
     lattice parameter (alat)  =      23.8199  a.u.
     unit-cell volume          =   33861.0370 (a.u.)^3
     number of atoms/cell      =          195
     number of atomic types    =            4
     number of electrons       =      1732.00
     number of Kohn-Sham states=         1039
     kinetic-energy cutoff     =      77.0000  Ry
     charge density cutoff     =     539.0000  Ry
     scf convergence threshold =      1.0E-06
     mixing beta               =       0.2000
     number of iterations used =            8  plain     mixing
     energy convergence thresh.=      1.0E-04
     force convergence thresh. =      1.0E-03
     Exchange-correlation= SLA  PW   PBX  PBC
                           (   1   4   3   4   0   0   0)
     nstep                     =         1000


     Effective Screening Medium Method
     =================================
     Boundary Conditions: Vacuum-Slab-Vacuum
     total charge in unit cell        =   0.0000
     grid points for fit at edges     =        4 
 

     celldm(1)=  23.819920  celldm(2)=   0.000000  celldm(3)=   0.000000
     celldm(4)=   0.000000  celldm(5)=   0.000000  celldm(6)=   0.000000

     crystal axes: (cart. coord. in units of alat)
               a(1) = (   1.000000   0.000000   0.000000 )  
               a(2) = (  -0.499999   0.866026   0.000000 )  
               a(3) = (   0.000000   0.000000   2.893000 )  

     reciprocal axes: (cart. coord. in units 2 pi/alat)
               b(1) = (  1.000000  0.577349  0.000000 )  
               b(2) = (  0.000000  1.154700  0.000000 )  
               b(3) = (  0.000000  0.000000  0.345662 )  


     PseudoPot. # 1 for Mo read from file:
     ./pseudo/Mo.pbe-spn-kjpaw_psl.1.0.0.UPF
     MD5 check sum: 317bf72632116215fd98f72de1686f13
     Pseudo is Projector augmented-wave + core cor, Zval = 14.0
     Generated using 'atomic' code by A. Dal Corso  v.7.2
     Shape of augmentation charge: PSQ
     Using radial grid of 1229 points,  6 beta functions with: 
                l(1) =   0
                l(2) =   0
                l(3) =   1
                l(4) =   1
                l(5) =   2
                l(6) =   2
     Q(r) pseudized with 0 coefficients 


     PseudoPot. # 2 for S  read from file:
     ./pseudo/S.pbe-n-kjpaw_psl.1.0.0.UPF
     MD5 check sum: 8b7b5302570d38d5e87fed6a1065abda
     Pseudo is Projector augmented-wave + core cor, Zval =  6.0
     Generated using 'atomic' code by A. Dal Corso  v.7.2
     Shape of augmentation charge: PSQ
     Using radial grid of 1151 points,  6 beta functions with: 
                l(1) =   0
                l(2) =   0
                l(3) =   1
                l(4) =   1
                l(5) =   2
                l(6) =   2
     Q(r) pseudized with 0 coefficients 


     PseudoPot. # 3 for Pt read from file:
     ./pseudo/Pt.pbe-spfn-kjpaw_psl.1.0.0.UPF
     MD5 check sum: 620096ebf4e6ebacc94de60fd67efcb5
     Pseudo is Projector augmented-wave + core cor, Zval = 32.0
     Generated using 'atomic' code by A. Dal Corso  v.7.2
     Shape of augmentation charge: PSQ
     Using radial grid of 1277 points,  8 beta functions with: 
                l(1) =   0
                l(2) =   0
                l(3) =   1
                l(4) =   1
                l(5) =   2
                l(6) =   2
                l(7) =   3
                l(8) =   3
     Q(r) pseudized with 0 coefficients 


     PseudoPot. # 4 for Pd read from file:
     ./pseudo/Pd.pbe-spn-kjpaw_psl.1.0.0.UPF
     MD5 check sum: a60571a671f2502b8a6a4569d20a6edb
     Pseudo is Projector augmented-wave + core cor, Zval = 18.0
     Generated using 'atomic' code by A. Dal Corso  v.7.2
     Shape of augmentation charge: PSQ
     Using radial grid of 1235 points,  6 beta functions with: 
                l(1) =   0
                l(2) =   0
                l(3) =   1
                l(4) =   1
                l(5) =   2
                l(6) =   2
     Q(r) pseudized with 0 coefficients 


     atomic species   valence    mass     pseudopotential
     Mo               14.00    95.95000     Mo( 1.00)
     S                 6.00    32.06000     S ( 1.00)
     Pt               32.00   195.08400     Pt( 1.00)
     Pd               18.00   106.42000     Pd( 1.00)

     No symmetry found



   Cartesian axes

     site n.     atom                  positions (alat units)
         1        Mo     tau(   1) = (   0.0000010   0.1443372  -0.7272732  )
         2        Mo     tau(   2) = (   0.1249995   0.0721706  -0.2424038  )
         3        S      tau(   3) = (   0.0000015   0.1443386  -0.3667807  )
         4        S      tau(   4) = (   0.1250010   0.0721682  -0.6030489  )
         5        S      tau(   5) = (   0.1250010   0.0721683  -0.8514963  )
         6        S      tau(   6) = (   0.0000015   0.1443389  -0.1180260  )
         7        Mo     tau(   7) = (   0.0000005   0.1443381   0.2424561  )
         8        Mo     tau(   8) = (   0.1251981   0.0716023   0.7276027  )
         9        S      tau(   9) = (  -0.0003031   0.1454842   0.6052312  )
        10        S      tau(  10) = (   0.1249558   0.0721599   0.3668208  )
        11        S      tau(  11) = (   0.1250088   0.0721517   0.1180857  )
        12        S      tau(  12) = (  -0.0004157   0.1382876   0.8564685  )
        13        Mo     tau(  13) = (  -0.1249989   0.3608437  -0.7272732  )
        14        Mo     tau(  14) = (   0.0000030   0.2886752  -0.2424042  )
        15        S      tau(  15) = (  -0.1249977   0.3608450  -0.3667802  )
        16        S      tau(  16) = (   0.0000012   0.2886747  -0.6030489  )
        17        S      tau(  17) = (   0.0000012   0.2886748  -0.8514963  )
        18        S      tau(  18) = (  -0.1249977   0.3608454  -0.1180274  )
        19        Mo     tau(  19) = (  -0.1249623   0.3608201   0.2425155  )
        20        Mo     tau(  20) = (  -0.0007801   0.2872696   0.7308518  )
        21        S      tau(  21) = (  -0.1240398   0.3604107   0.6055268  )
        22        S      tau(  22) = (   0.0000411   0.2886546   0.3669163  )
        23        S      tau(  23) = (   0.0000035   0.2886726   0.1180964  )
        24        S      tau(  24) = (  -0.1315418   0.3638985   0.8543850  )
        25        Mo     tau(  25) = (  -0.2499987   0.5773502  -0.7272732  )
        26        Mo     tau(  26) = (  -0.1249977   0.5051839  -0.2424055  )
        27        S      tau(  27) = (  -0.2499981   0.5773518  -0.3667809  )
        28        S      tau(  28) = (  -0.1249986   0.5051812  -0.6030489  )
        29        S      tau(  29) = (  -0.1249986   0.5051813  -0.8514963  )
        30        S      tau(  30) = (  -0.2499979   0.5773512  -0.1180266  )
        31        Mo     tau(  31) = (  -0.2499787   0.5773156   0.2425145  )
        32        Mo     tau(  32) = (  -0.1271807   0.5060660   0.7281741  )
        33        S      tau(  33) = (  -0.2502658   0.5775034   0.6017985  )
        34        S      tau(  34) = (  -0.1249543   0.5051367   0.3669386  )
        35        S      tau(  35) = (  -0.1249864   0.5051552   0.1181399  )
        36        S      tau(  36) = (  -0.2525628   0.5785576   0.8514793  )
        37        Mo     tau(  37) = (  -0.3749985   0.7938567  -0.7272732  )
        38        Mo     tau(  38) = (  -0.2500001   0.7216874  -0.2424031  )
        39        S      tau(  39) = (  -0.3749980   0.7938584  -0.3667800  )
        40        S      tau(  40) = (  -0.2499984   0.7216877  -0.6030489  )
        41        S      tau(  41) = (  -0.2499984   0.7216878  -0.8514963  )
        42        S      tau(  42) = (  -0.3749982   0.7938585  -0.1180264  )
        43        Mo     tau(  43) = (  -0.3750043   0.7938372   0.2424536  )
        44        Mo     tau(  44) = (  -0.2503619   0.7218808   0.7263407  )
        45        S      tau(  45) = (  -0.3755748   0.7941519   0.6023691  )
        46        S      tau(  46) = (  -0.2500067   0.7216811   0.3668312  )
        47        S      tau(  47) = (  -0.2499793   0.7216445   0.1181126  )
        48        S      tau(  48) = (  -0.3746959   0.7932047   0.8515893  )
        49        Mo     tau(  49) = (   0.2500010   0.1443372  -0.7272732  )
        50        Mo     tau(  50) = (   0.3750034   0.0721723  -0.2424032  )
        51        S      tau(  51) = (   0.2500017   0.1443391  -0.3667788  )
        52        S      tau(  52) = (   0.3750010   0.0721682  -0.6030489  )
        53        S      tau(  53) = (   0.3750010   0.0721683  -0.8514963  )
        54        S      tau(  54) = (   0.2500016   0.1443391  -0.1180271  )
        55        Mo     tau(  55) = (   0.2500033   0.1443124   0.2424881  )
        56        Mo     tau(  56) = (   0.3752595   0.0716472   0.7255395  )
        57        S      tau(  57) = (   0.2498544   0.1431280   0.6011361  )
        58        S      tau(  58) = (   0.3750516   0.0721435   0.3668117  )
        59        S      tau(  59) = (   0.3750079   0.0721203   0.1180977  )
        60        S      tau(  60) = (   0.2517312   0.1427646   0.8506906  )
        61        Mo     tau(  61) = (   0.1250012   0.3608437  -0.7272732  )
        62        Mo     tau(  62) = (   0.2500029   0.2886782  -0.2424031  )
        63        S      tau(  63) = (   0.1250024   0.3608455  -0.3667794  )
        64        S      tau(  64) = (   0.2500012   0.2886747  -0.6030489  )
        65        S      tau(  65) = (   0.2500012   0.2886748  -0.8514963  )
        66        S      tau(  66) = (   0.1250021   0.3608455  -0.1180270  )
        67        Mo     tau(  67) = (   0.1249995   0.3608273   0.2424838  )
        68        Mo     tau(  68) = (   0.2535704   0.2866116   0.7259154  )
        69        S      tau(  69) = (   0.1241106   0.3617788   0.6079553  )
        70        S      tau(  70) = (   0.2499752   0.2886689   0.3668869  )
        71        S      tau(  71) = (   0.2500098   0.2886475   0.1181123  )
        72        S      tau(  72) = (   0.1336503   0.3523048   0.8541313  )
        73        Mo     tau(  73) = (   0.0000014   0.5773502  -0.7272732  )
        74        Mo     tau(  74) = (   0.1250045   0.5051840  -0.2424036  )
        75        S      tau(  75) = (   0.0000030   0.5773520  -0.3667799  )
        76        S      tau(  76) = (   0.1250014   0.5051812  -0.6030489  )
        77        S      tau(  77) = (   0.1250014   0.5051813  -0.8514963  )
        78        S      tau(  78) = (   0.0000026   0.5773517  -0.1180274  )
        79        Mo     tau(  79) = (   0.0000276   0.5772927   0.2425177  )
        80        Mo     tau(  80) = (   0.1255270   0.5059369   0.7313762  )
        81        S      tau(  81) = (   0.0011816   0.5764663   0.6064450  )
        82        S      tau(  82) = (   0.1250222   0.5051261   0.3669341  )
        83        S      tau(  83) = (   0.1249880   0.5051467   0.1180950  )
        84        S      tau(  84) = (  -0.0088763   0.5830479   0.8565830  )
        85        Mo     tau(  85) = (  -0.1249984   0.7938567  -0.7272732  )
        86        Mo     tau(  86) = (   0.0000069   0.7216896  -0.2424039  )
        87        S      tau(  87) = (  -0.1249975   0.7938582  -0.3667782  )
        88        S      tau(  88) = (   0.0000016   0.7216877  -0.6030489  )
        89        S      tau(  89) = (   0.0000016   0.7216878  -0.8514963  )
        90        S      tau(  90) = (  -0.1249973   0.7938582  -0.1180279  )
        91        Mo     tau(  91) = (  -0.1249699   0.7938095   0.2424907  )
        92        Mo     tau(  92) = (  -0.0004895   0.7231014   0.7275053  )
        93        S      tau(  93) = (  -0.1248847   0.7932555   0.6014963  )
        94        S      tau(  94) = (   0.0000405   0.7216116   0.3668908  )
        95        S      tau(  95) = (   0.0000242   0.7216332   0.1181249  )
        96        S      tau(  96) = (  -0.1259194   0.7949777   0.8510667  )
        97        Mo     tau(  97) = (   0.5000010   0.1443372  -0.7272732  )
        98        Mo     tau(  98) = (   0.6250001   0.0721662  -0.2424040  )
        99        S      tau(  99) = (   0.5000017   0.1443386  -0.3667801  )
       100        S      tau( 100) = (   0.6250010   0.0721682  -0.6030489  )
       101        S      tau( 101) = (   0.6250010   0.0721683  -0.8514963  )
       102        S      tau( 102) = (   0.5000020   0.1443388  -0.1180261  )
       103        Mo     tau( 103) = (   0.5000355   0.1442968   0.2424343  )
       104        Mo     tau( 104) = (   0.6251054   0.0720760   0.7269638  )
       105        S      tau( 105) = (   0.5007812   0.1439212   0.6015111  )
       106        S      tau( 106) = (   0.6250309   0.0721295   0.3668346  )
       107        S      tau( 107) = (   0.6250410   0.0721183   0.1180973  )
       108        S      tau( 108) = (   0.4998652   0.1442971   0.8504179  )
       109        Mo     tau( 109) = (   0.3750012   0.3608437  -0.7272732  )
       110        Mo     tau( 110) = (   0.4999991   0.2886761  -0.2424038  )
       111        S      tau( 111) = (   0.3750012   0.3608452  -0.3667804  )
       112        S      tau( 112) = (   0.5000012   0.2886747  -0.6030489  )
       113        S      tau( 113) = (   0.5000012   0.2886748  -0.8514963  )
       114        S      tau( 114) = (   0.3750014   0.3608455  -0.1180261  )
       115        Mo     tau( 115) = (   0.3749988   0.3608207   0.2424913  )
       116        Mo     tau( 116) = (   0.5005676   0.2886014   0.7258090  )
       117        S      tau( 117) = (   0.3761076   0.3615161   0.6013079  )
       118        S      tau( 118) = (   0.5000282   0.2886169   0.3668001  )
       119        S      tau( 119) = (   0.5000158   0.2886613   0.1180928  )
       120        S      tau( 120) = (   0.3768791   0.3600665   0.8508100  )
       121        Mo     tau( 121) = (   0.2500014   0.5773502  -0.7272732  )
       122        Mo     tau( 122) = (   0.3749983   0.5051825  -0.2424043  )
       123        S      tau( 123) = (   0.2500017   0.5773519  -0.3667810  )
       124        S      tau( 124) = (   0.3750014   0.5051812  -0.6030489  )
       125        S      tau( 125) = (   0.3750014   0.5051813  -0.8514963  )
       126        S      tau( 126) = (   0.2500018   0.5773519  -0.1180256  )
       127        Mo     tau( 127) = (   0.2499755   0.5773110   0.2424609  )
       128        Mo     tau( 128) = (   0.3758691   0.5051374   0.7277779  )
       129        S      tau( 129) = (   0.2483182   0.5768077   0.6062789  )
       130        S      tau( 130) = (   0.3749464   0.5051844   0.3668408  )
       131        S      tau( 131) = (   0.3749944   0.5051486   0.1180923  )
       132        S      tau( 132) = (   0.2574557   0.5818559   0.8585037  )
       133        Mo     tau( 133) = (   0.1250016   0.7938567  -0.7272732  )
       134        Mo     tau( 134) = (   0.2499995   0.7216883  -0.2424036  )
       135        S      tau( 135) = (   0.1250024   0.7938578  -0.3667813  )
       136        S      tau( 136) = (   0.2500016   0.7216877  -0.6030489  )
       137        S      tau( 137) = (   0.2500016   0.7216878  -0.8514963  )
       138        S      tau( 138) = (   0.1250024   0.7938579  -0.1180253  )
       139        Mo     tau( 139) = (   0.1250229   0.7938069   0.2425006  )
       140        Mo     tau( 140) = (   0.2504358   0.7224862   0.7284223  )
       141        S      tau( 141) = (   0.1254429   0.7935457   0.6029055  )
       142        S      tau( 142) = (   0.2500049   0.7216116   0.3668842  )
       143        S      tau( 143) = (   0.2500022   0.7216616   0.1181021  )
       144        S      tau( 144) = (   0.1246626   0.7944127   0.8519137  )
       145        Mo     tau( 145) = (   0.7500010   0.1443372  -0.7272732  )
       146        Mo     tau( 146) = (   0.8750038   0.0721696  -0.2424038  )
       147        S      tau( 147) = (   0.7500016   0.1443382  -0.3667789  )
       148        S      tau( 148) = (   0.8750010   0.0721682  -0.6030489  )
       149        S      tau( 149) = (   0.8750010   0.0721683  -0.8514963  )
       150        S      tau( 150) = (   0.7500016   0.1443384  -0.1180279  )
       151        Mo     tau( 151) = (   0.7500289   0.1443141   0.2424936  )
       152        Mo     tau( 152) = (   0.8748115   0.0715393   0.7280420  )
       153        S      tau( 153) = (   0.7503587   0.1440662   0.6027403  )
       154        S      tau( 154) = (   0.8750369   0.0721618   0.3668742  )
       155        S      tau( 155) = (   0.8750002   0.0721408   0.1181001  )
       156        S      tau( 156) = (   0.7494385   0.1444101   0.8516821  )
       157        Mo     tau( 157) = (   0.6250012   0.3608437  -0.7272732  )
       158        Mo     tau( 158) = (   0.7500028   0.2886769  -0.2424041  )
       159        S      tau( 159) = (   0.6250015   0.3608451  -0.3667792  )
       160        S      tau( 160) = (   0.7500012   0.2886747  -0.6030489  )
       161        S      tau( 161) = (   0.7500012   0.2886748  -0.8514963  )
       162        S      tau( 162) = (   0.6250016   0.3608454  -0.1180280  )
       163        Mo     tau( 163) = (   0.6250302   0.3608127   0.2424760  )
       164        Mo     tau( 164) = (   0.7487590   0.2885376   0.7272130  )
       165        S      tau( 165) = (   0.6254237   0.3608917   0.6015174  )
       166        S      tau( 166) = (   0.7500486   0.2886525   0.3668797  )
       167        S      tau( 167) = (   0.7500385   0.2886557   0.1181169  )
       168        S      tau( 168) = (   0.6239430   0.3610912   0.8510113  )
       169        Mo     tau( 169) = (   0.5000014   0.5773502  -0.7272732  )
       170        Mo     tau( 170) = (   0.6250029   0.5051841  -0.2424047  )
       171        S      tau( 171) = (   0.5000014   0.5773518  -0.3667794  )
       172        S      tau( 172) = (   0.6250014   0.5051812  -0.6030489  )
       173        S      tau( 173) = (   0.6250014   0.5051813  -0.8514963  )
       174        S      tau( 174) = (   0.5000016   0.5773516  -0.1180277  )
       175        Mo     tau( 175) = (   0.4999859   0.5773250   0.2424709  )
       176        Mo     tau( 176) = (   0.6245890   0.5053660   0.7261562  )
       177        S      tau( 177) = (   0.4993068   0.5776651   0.6022414  )
       178        S      tau( 178) = (   0.6249823   0.5051501   0.3668388  )
       179        S      tau( 179) = (   0.6250205   0.5051637   0.1181147  )
       180        S      tau( 180) = (   0.5009766   0.5773609   0.8515797  )
       181        Mo     tau( 181) = (   0.3750016   0.7938567  -0.7272732  )
       182        Mo     tau( 182) = (   0.5000025   0.7216901  -0.2424039  )
       183        S      tau( 183) = (   0.3750019   0.7938578  -0.3667793  )
       184        S      tau( 184) = (   0.5000016   0.7216877  -0.6030489  )
       185        S      tau( 185) = (   0.5000016   0.7216878  -0.8514963  )
       186        S      tau( 186) = (   0.3750020   0.7938579  -0.1180272  )
       187        Mo     tau( 187) = (   0.3749951   0.7938323   0.2424893  )
       188        Mo     tau( 188) = (   0.4998599   0.7217391   0.7271366  )
       189        S      tau( 189) = (   0.3746033   0.7939741   0.6029663  )
       190        S      tau( 190) = (   0.4999946   0.7216688   0.3668260  )
       191        S      tau( 191) = (   0.4999891   0.7216628   0.1180901  )
       192        S      tau( 192) = (   0.3755955   0.7938624   0.8526444  )
       193        Pt     tau( 193) = (   0.1194898   0.4990527   0.9549993  )
       194        Pd     tau( 194) = (   0.0026419   0.2990244   0.9662205  )
       195        Pd     tau( 195) = (   0.0610474   0.3990493   1.1295555  )

     --------------------------------------------
     DFT-D3 Dispersion Correction (3-body terms):
     --------------------------------------------
       Reference C6 values for interpolation: 

         atom   Coordination number   C6
         S          0.000           268.01
         S          0.995           261.99
         S          1.990           251.62
         Mo         0.000          1691.79
         Mo         1.942          1004.01
         Mo        11.056           674.22
         Pd         0.000          1217.01
         Pd         1.863           573.90
         Pd         5.710           531.75
         Pt         0.000           782.29
         Pt         1.919           692.72
         Pt         6.667           673.75

       Values used:

         atom   Coordination number  R0_AB[au]  C6      C8
         Mo        10.208            3.547    674.22  77634.20
         Mo        10.221            3.547    674.22  77634.20
         S          3.858            3.128    251.62  12327.25
         S          3.859            3.128    251.62  12327.25
         S          3.758            3.128    251.62  12327.25
         S          3.859            3.128    251.62  12327.25
         Mo        10.221            3.547    674.22  77634.20
         Mo        10.228            3.547    674.22  77634.20
         S          3.849            3.128    251.62  12327.25
         S          3.859            3.128    251.62  12327.25
         S          3.859            3.128    251.62  12327.25
         S          4.622            3.128    251.62  12327.25
         Mo        10.208            3.547    674.22  77634.20
         Mo        10.221            3.547    674.22  77634.20
         S          3.858            3.128    251.62  12327.25
         S          3.859            3.128    251.62  12327.25
         S          3.758            3.128    251.62  12327.25
         S          3.859            3.128    251.62  12327.25
         Mo        10.222            3.547    674.22  77634.20
         Mo        10.722            3.547    674.22  77634.20
         S          3.862            3.128    251.62  12327.25
         S          3.850            3.128    251.62  12327.25
         S          3.859            3.128    251.62  12327.25
         S          4.672            3.128    251.62  12327.25
         Mo        10.208            3.547    674.21  77634.20
         Mo        10.221            3.547    674.22  77634.20
         S          3.858            3.128    251.62  12327.25
         S          3.859            3.128    251.62  12327.25
         S          3.758            3.128    251.62  12327.25
         S          3.859            3.128    251.62  12327.25
         Mo        10.220            3.547    674.22  77634.20
         Mo        10.171            3.547    674.22  77634.20
         S          3.842            3.128    251.62  12327.25
         S          3.853            3.128    251.62  12327.25
         S          3.859            3.128    251.62  12327.25
         S          3.843            3.128    251.62  12327.25
         Mo        10.208            3.547    674.22  77634.20
         Mo        10.220            3.547    674.22  77634.20
         S          3.858            3.128    251.62  12327.25
         S          3.859            3.128    251.62  12327.25
         S          3.758            3.128    251.62  12327.25
         S          3.859            3.128    251.62  12327.25
         Mo        10.220            3.547    674.22  77634.20
         Mo        10.260            3.547    674.22  77634.20
         S          3.856            3.128    251.62  12327.25
         S          3.861            3.128    251.62  12327.25
         S          3.859            3.128    251.62  12327.25
         S          3.808            3.128    251.62  12327.25
         Mo        10.208            3.547    674.22  77634.20
         Mo        10.221            3.547    674.22  77634.20
         S          3.858            3.128    251.62  12327.25
         S          3.859            3.128    251.62  12327.25
         S          3.758            3.128    251.62  12327.25
         S          3.859            3.128    251.62  12327.25
         Mo        10.220            3.547    674.22  77634.20
         Mo        10.278            3.547    674.22  77634.20
         S          3.837            3.128    251.62  12327.25
         S          3.863            3.128    251.62  12327.25
         S          3.859            3.128    251.62  12327.25
         S          3.842            3.128    251.62  12327.25
         Mo        10.208            3.547    674.22  77634.20
         Mo        10.221            3.547    674.22  77634.20
         S          3.858            3.128    251.62  12327.25
         S          3.859            3.128    251.62  12327.25
         S          3.758            3.128    251.62  12327.25
         S          3.859            3.128    251.62  12327.25
         Mo        10.222            3.547    674.22  77634.20
         Mo        10.177            3.547    674.22  77634.20
         S          3.873            3.128    251.62  12327.25
         S          3.855            3.128    251.62  12327.25
         S          3.859            3.128    251.62  12327.25
         S          5.667            3.128    251.62  12327.25
         Mo        10.208            3.547    674.22  77634.20
         Mo        10.221            3.547    674.22  77634.20
         S          3.858            3.128    251.62  12327.25
         S          3.859            3.128    251.62  12327.25
         S          3.758            3.128    251.62  12327.25
         S          3.859            3.128    251.62  12327.25
         Mo        10.222            3.547    674.22  77634.20
         Mo        10.868            3.547    674.22  77634.20
         S          3.860            3.128    251.62  12327.25
         S          3.850            3.128    251.62  12327.25
         S          3.859            3.128    251.62  12327.25
         S          4.677            3.128    251.62  12327.25
         Mo        10.208            3.547    674.22  77634.20
         Mo        10.221            3.547    674.22  77634.20
         S          3.858            3.128    251.62  12327.25
         S          3.859            3.128    251.62  12327.25
         S          3.758            3.128    251.62  12327.25
         S          3.859            3.128    251.62  12327.25
         Mo        10.220            3.547    674.22  77634.20
         Mo        10.214            3.547    674.21  77634.20
         S          3.850            3.128    251.62  12327.25
         S          3.856            3.128    251.62  12327.25
         S          3.859            3.128    251.62  12327.25
         S          3.827            3.128    251.62  12327.25
         Mo        10.208            3.547    674.22  77634.20
         Mo        10.221            3.547    674.22  77634.20
         S          3.858            3.128    251.62  12327.25
         S          3.859            3.128    251.62  12327.25
         S          3.758            3.128    251.62  12327.25
         S          3.859            3.128    251.62  12327.25
         Mo        10.220            3.547    674.22  77634.20
         Mo        10.250            3.547    674.22  77634.20
         S          3.856            3.128    251.62  12327.25
         S          3.861            3.128    251.62  12327.25
         S          3.859            3.128    251.62  12327.25
         S          3.790            3.128    251.62  12327.25
         Mo        10.208            3.547    674.22  77634.20
         Mo        10.221            3.547    674.22  77634.20
         S          3.858            3.128    251.62  12327.25
         S          3.859            3.128    251.62  12327.25
         S          3.758            3.128    251.62  12327.25
         S          3.859            3.128    251.62  12327.25
         Mo        10.220            3.547    674.22  77634.20
         Mo        10.277            3.547    674.22  77634.20
         S          3.839            3.128    251.62  12327.25
         S          3.863            3.128    251.62  12327.25
         S          3.859            3.128    251.62  12327.25
         S          3.819            3.128    251.62  12327.25
         Mo        10.208            3.547    674.22  77634.20
         Mo        10.221            3.547    674.21  77634.20
         S          3.858            3.128    251.62  12327.25
         S          3.859            3.128    251.62  12327.25
         S          3.758            3.128    251.62  12327.25
         S          3.859            3.128    251.62  12327.25
         Mo        10.222            3.547    674.22  77634.20
         Mo        10.220            3.547    674.22  77634.20
         S          3.851            3.128    251.62  12327.25
         S          3.858            3.128    251.62  12327.25
         S          3.859            3.128    251.62  12327.25
         S          4.643            3.128    251.62  12327.25
         Mo        10.208            3.547    674.22  77634.20
         Mo        10.221            3.547    674.22  77634.20
         S          3.858            3.128    251.62  12327.25
         S          3.859            3.128    251.62  12327.25
         S          3.758            3.128    251.62  12327.25
         S          3.859            3.128    251.62  12327.25
         Mo        10.221            3.547    674.22  77634.20
         Mo        10.226            3.547    674.22  77634.20
         S          3.863            3.128    251.62  12327.25
         S          3.856            3.128    251.62  12327.25
         S          3.859            3.128    251.62  12327.25
         S          3.764            3.128    251.62  12327.25
         Mo        10.208            3.547    674.22  77634.20
         Mo        10.221            3.547    674.22  77634.20
         S          3.858            3.128    251.62  12327.25
         S          3.859            3.128    251.62  12327.25
         S          3.758            3.128    251.62  12327.25
         S          3.859            3.128    251.62  12327.25
         Mo        10.221            3.547    674.22  77634.20
         Mo        10.241            3.547    674.22  77634.20
         S          3.864            3.128    251.62  12327.25
         S          3.857            3.128    251.62  12327.25
         S          3.859            3.128    251.62  12327.25
         S          3.767            3.128    251.62  12327.25
         Mo        10.208            3.547    674.22  77634.20
         Mo        10.220            3.547    674.22  77634.20
         S          3.858            3.128    251.62  12327.25
         S          3.859            3.128    251.62  12327.25
         S          3.758            3.128    251.62  12327.25
         S          3.859            3.128    251.62  12327.25
         Mo        10.220            3.547    674.22  77634.20
         Mo        10.226            3.547    674.22  77634.20
         S          3.854            3.128    251.62  12327.25
         S          3.857            3.128    251.62  12327.25
         S          3.859            3.128    251.62  12327.25
         S          3.809            3.128    251.62  12327.25
         Mo        10.208            3.547    674.22  77634.20
         Mo        10.221            3.547    674.22  77634.20
         S          3.858            3.128    251.62  12327.25
         S          3.859            3.128    251.62  12327.25
         S          3.758            3.128    251.62  12327.25
         S          3.859            3.128    251.62  12327.25
         Mo        10.220            3.547    674.22  77634.20
         Mo        10.267            3.547    674.22  77634.20
         S          3.853            3.128    251.62  12327.25
         S          3.861            3.128    251.62  12327.25
         S          3.859            3.128    251.62  12327.25
         S          3.821            3.128    251.62  12327.25
         Mo        10.208            3.547    674.22  77634.20
         Mo        10.221            3.547    674.22  77634.20
         S          3.858            3.128    251.62  12327.25
         S          3.859            3.128    251.62  12327.25
         S          3.758            3.128    251.62  12327.25
         S          3.859            3.128    251.62  12327.25
         Mo        10.221            3.547    674.22  77634.20
         Mo        10.250            3.547    674.22  77634.20
         S          3.853            3.128    251.62  12327.25
         S          3.860            3.128    251.62  12327.25
         S          3.859            3.128    251.62  12327.25
         S          3.823            3.128    251.62  12327.25
         Pt         5.315            3.168    673.75  70061.90
         Pd         5.019            3.168    531.75  48720.73
         Pd         1.807            3.168    573.90  52583.18

         Molecular C6 ( Ry / a.u.^6 ) =  14156053.76


     number of k points=     4  Gaussian smearing, width (Ry)=  0.0100
                       cart. coord. in units 2pi/alat
        k(    1) = (   0.0000000   0.0000000   0.0000000), wk =   0.5000000
        k(    2) = (   0.0000000  -0.5773499   0.0000000), wk =   0.5000000
        k(    3) = (  -0.5000000  -0.2886744   0.0000000), wk =   0.5000000
        k(    4) = (  -0.5000000  -0.8660242   0.0000000), wk =   0.5000000

     Dense  grid:  7154885 G-vectors     FFT dimensions: ( 180, 180, 512)

     Smooth grid:  3090769 G-vectors     FFT dimensions: ( 135, 135, 400)

     Estimated max dynamical RAM per process >       4.32 GB

     Estimated total dynamical RAM >     155.52 GB

     Atomic positions and unit cell read from directory:
     ./outdir/pwscf.save/
     Atomic positions from file used, from input discarded
 

     The initial density is read from file :
     ./outdir/pwscf.save/charge-density


     negative rho (up, down):  9.184E-04 0.000E+00
     Cannot read wfcs: file not found
     Starting wfcs are 1189 randomized atomic wfcs
     Checking if some PAW data can be deallocated... 

     total cpu time spent up to now is      183.1 secs

     Self-consistent Calculation

     iteration #  1     ecut=    77.00 Ry     beta= 0.20
     Davidson diagonalization with overlap
     c_bands:  6 eigenvalues not converged
     c_bands: 14 eigenvalues not converged
     c_bands: 14 eigenvalues not converged
     c_bands: 14 eigenvalues not converged
     ethr =  1.00E-05,  avg # of iterations =120.0

     negative rho (up, down):  8.402E-04 0.000E+00

     total cpu time spent up to now is    11118.9 secs

     total energy              =  -34492.26801897 Ry
     estimated scf accuracy    <       2.72042561 Ry

     iteration #  2     ecut=    77.00 Ry     beta= 0.20
     Davidson diagonalization with overlap
     ethr =  1.57E-04,  avg # of iterations =  8.0

     negative rho (up, down):  8.771E-04 0.000E+00

     total cpu time spent up to now is    11564.5 secs

     total energy              =  -34491.28951318 Ry
     estimated scf accuracy    <       9.56003235 Ry

     iteration #  3     ecut=    77.00 Ry     beta= 0.20
     Davidson diagonalization with overlap
     ethr =  1.57E-04,  avg # of iterations =  1.8

     negative rho (up, down):  8.748E-04 0.000E+00

     total cpu time spent up to now is    11971.2 secs

     total energy              =  -34491.18499823 Ry
     estimated scf accuracy    <      13.43848777 Ry

     iteration #  4     ecut=    77.00 Ry     beta= 0.20
     Davidson diagonalization with overlap
     ethr =  1.57E-04,  avg # of iterations =  2.0

     negative rho (up, down):  7.641E-04 0.000E+00

     total cpu time spent up to now is    12385.9 secs

     total energy              =  -34492.09267041 Ry
     estimated scf accuracy    <       1.48749731 Ry

     iteration #  5     ecut=    77.00 Ry     beta= 0.20
     Davidson diagonalization with overlap
     ethr =  8.59E-05,  avg # of iterations = 13.8

     negative rho (up, down):  7.761E-04 0.000E+00

     total cpu time spent up to now is    12895.8 secs

     total energy              =  -34492.30303456 Ry
     estimated scf accuracy    <       0.82271988 Ry

     iteration #  6     ecut=    77.00 Ry     beta= 0.20
     Davidson diagonalization with overlap
     ethr =  4.75E-05,  avg # of iterations =  1.2

     negative rho (up, down):  7.947E-04 0.000E+00

     total cpu time spent up to now is    13282.6 secs

     total energy              =  -34492.24320153 Ry
     estimated scf accuracy    <       0.59323538 Ry

     iteration #  7     ecut=    77.00 Ry     beta= 0.20
     Davidson diagonalization with overlap
     ethr =  3.43E-05,  avg # of iterations =  9.0

     negative rho (up, down):  7.759E-04 0.000E+00

     total cpu time spent up to now is    13729.5 secs

     total energy              =  -34492.22035013 Ry
     estimated scf accuracy    <       0.28983675 Ry

     iteration #  8     ecut=    77.00 Ry     beta= 0.20
     Davidson diagonalization with overlap
     ethr =  1.67E-05,  avg # of iterations = 11.5

     negative rho (up, down):  7.789E-04 0.000E+00

     total cpu time spent up to now is    14190.3 secs

     total energy              =  -34492.23514819 Ry
     estimated scf accuracy    <       0.06750589 Ry

     iteration #  9     ecut=    77.00 Ry     beta= 0.20
     Davidson diagonalization with overlap
     c_bands:  3 eigenvalues not converged
     c_bands:  2 eigenvalues not converged
     c_bands:  5 eigenvalues not converged
     c_bands:  2 eigenvalues not converged
     ethr =  3.90E-06,  avg # of iterations = 35.0

     negative rho (up, down):  7.851E-04 0.000E+00

     total cpu time spent up to now is    15024.3 secs

     total energy              =  -34492.23896029 Ry
     estimated scf accuracy    <       0.04620255 Ry

     iteration # 10     ecut=    77.00 Ry     beta= 0.20
     Davidson diagonalization with overlap
     c_bands:  3 eigenvalues not converged
     c_bands:  1 eigenvalues not converged
     c_bands:  2 eigenvalues not converged
     c_bands:  3 eigenvalues not converged
     ethr =  2.67E-06,  avg # of iterations = 50.0

     negative rho (up, down):  8.042E-04 0.000E+00

     total cpu time spent up to now is    16155.2 secs

     total energy              =  -34492.23851839 Ry
     estimated scf accuracy    <       0.01969322 Ry

     iteration # 11     ecut=    77.00 Ry     beta= 0.20
     Davidson diagonalization with overlap
     c_bands:  3 eigenvalues not converged
     c_bands:  1 eigenvalues not converged
     c_bands:  3 eigenvalues not converged
     c_bands:  4 eigenvalues not converged
     ethr =  1.14E-06,  avg # of iterations = 30.0

     negative rho (up, down):  8.219E-04 0.000E+00

     total cpu time spent up to now is    16884.0 secs

     total energy              =  -34492.23927911 Ry
     estimated scf accuracy    <       0.00835047 Ry

     iteration # 12     ecut=    77.00 Ry     beta= 0.20
     Davidson diagonalization with overlap
     c_bands:  2 eigenvalues not converged
     c_bands:  1 eigenvalues not converged
     c_bands:  3 eigenvalues not converged
     c_bands:  2 eigenvalues not converged
     ethr =  4.82E-07,  avg # of iterations = 20.0

     negative rho (up, down):  8.390E-04 0.000E+00

     total cpu time spent up to now is    17464.3 secs

     total energy              =  -34492.24088188 Ry
     estimated scf accuracy    <       0.00391886 Ry

     iteration # 13     ecut=    77.00 Ry     beta= 0.20
     Davidson diagonalization with overlap
     c_bands:  5 eigenvalues not converged
     c_bands:  1 eigenvalues not converged
     ethr =  2.26E-07,  avg # of iterations = 17.8

     negative rho (up, down):  8.532E-04 0.000E+00

     total cpu time spent up to now is    18107.7 secs

     total energy              =  -34492.24186543 Ry
     estimated scf accuracy    <       0.00199198 Ry

     iteration # 14     ecut=    77.00 Ry     beta= 0.20
     Davidson diagonalization with overlap
     c_bands:  2 eigenvalues not converged
     ethr =  1.15E-07,  avg # of iterations = 21.5

     negative rho (up, down):  8.565E-04 0.000E+00

     total cpu time spent up to now is    18779.5 secs

     total energy              =  -34492.24226800 Ry
     estimated scf accuracy    <       0.00139982 Ry

     iteration # 15     ecut=    77.00 Ry     beta= 0.20
     Davidson diagonalization with overlap
     c_bands:  1 eigenvalues not converged
     ethr =  8.08E-08,  avg # of iterations = 13.0

     negative rho (up, down):  8.775E-04 0.000E+00

     total cpu time spent up to now is    19257.3 secs

     total energy              =  -34492.24232624 Ry
     estimated scf accuracy    <       0.00051878 Ry

     iteration # 16     ecut=    77.00 Ry     beta= 0.20
     Davidson diagonalization with overlap
     c_bands:  1 eigenvalues not converged
     c_bands:  5 eigenvalues not converged
     ethr =  3.00E-08,  avg # of iterations = 15.2

     negative rho (up, down):  8.874E-04 0.000E+00

     total cpu time spent up to now is    20105.8 secs

     total energy              =  -34492.24288465 Ry
     estimated scf accuracy    <       0.00022588 Ry

     iteration # 17     ecut=    77.00 Ry     beta= 0.20
     Davidson diagonalization with overlap
     c_bands:  1 eigenvalues not converged
     ethr =  1.30E-08,  avg # of iterations = 20.2

     negative rho (up, down):  8.940E-04 0.000E+00

     total cpu time spent up to now is    20779.5 secs

     total energy              =  -34492.24291214 Ry
     estimated scf accuracy    <       0.00004683 Ry

     iteration # 18     ecut=    77.00 Ry     beta= 0.20
     Davidson diagonalization with overlap
     c_bands:  1 eigenvalues not converged
     c_bands:  5 eigenvalues not converged
     ethr =  2.70E-09,  avg # of iterations = 18.8

     negative rho (up, down):  8.989E-04 0.000E+00

     total cpu time spent up to now is    22087.2 secs

     total energy              =  -34492.24300120 Ry
     estimated scf accuracy    <       0.00002883 Ry

     iteration # 19     ecut=    77.00 Ry     beta= 0.20
     Davidson diagonalization with overlap
     c_bands:  5 eigenvalues not converged
     ethr =  1.66E-09,  avg # of iterations = 12.5

     negative rho (up, down):  9.070E-04 0.000E+00

     total cpu time spent up to now is    22560.7 secs

     total energy              =  -34492.24299692 Ry
     estimated scf accuracy    <       0.00001510 Ry

     iteration # 20     ecut=    77.00 Ry     beta= 0.20
     Davidson diagonalization with overlap
     ethr =  8.72E-10,  avg # of iterations = 11.5

     negative rho (up, down):  9.134E-04 0.000E+00

     total cpu time spent up to now is    23366.0 secs

     total energy              =  -34492.24300373 Ry
     estimated scf accuracy    <       0.00000558 Ry

     iteration # 21     ecut=    77.00 Ry     beta= 0.20
     Davidson diagonalization with overlap
     c_bands:  2 eigenvalues not converged
     ethr =  3.22E-10,  avg # of iterations = 19.8

     negative rho (up, down):  9.139E-04 0.000E+00

     total cpu time spent up to now is    24389.5 secs

     total energy              =  -34492.24300739 Ry
     estimated scf accuracy    <       0.00000298 Ry

     iteration # 22     ecut=    77.00 Ry     beta= 0.20
     Davidson diagonalization with overlap
     ethr =  1.72E-10,  avg # of iterations = 11.2

     negative rho (up, down):  9.202E-04 0.000E+00

     total cpu time spent up to now is    24867.8 secs

     End of self-consistent calculation

          k = 0.0000 0.0000 0.0000 (386245 PWs)   bands (ev):

  -103.1660 -89.0874 -87.2674 -71.5521 -71.5450 -71.5000 -71.4559 -71.4402
   -71.4384 -71.4292 -66.6355 -66.6179 -66.6176 -66.6172 -66.6146 -66.6059
   -66.6021 -66.5966 -66.5966 -66.5966 -66.5966 -66.5966 -66.5966 -66.5966
   -66.5964 -66.5964 -66.5962 -66.5960 -66.5960 -66.5959 -66.5959 -66.5959
   -66.5959 -66.5959 -66.5959 -66.5948 -66.5912 -66.5888 -66.5854 -66.5790
   -66.5754 -66.5753 -66.5752 -66.5752 -66.5752 -66.5752 -66.5752 -66.5752
   -66.5752 -66.5752 -66.5751 -66.5750 -66.5749 -66.5749 -66.5748 -66.5747
   -66.5746 -66.5745 -66.5745 -66.5745 -66.5745 -66.5745 -66.5745 -66.5745
   -66.5745 -66.5745 -66.5745 -66.5683 -66.5629 -66.5586 -66.5462 -66.5328
   -66.5317 -66.5263 -57.4483 -57.4136 -57.2067 -54.9712 -54.9326 -54.6798
   -53.2471 -53.1397 -52.7826 -40.9453 -40.9453 -40.9453 -40.9453 -40.9453
   -40.9453 -40.9450 -40.9449 -40.9448 -40.9444 -40.9411 -40.9371 -40.8744
   -40.8703 -40.8700 -40.8700 -40.8700 -40.8700 -40.8700 -40.8700 -40.8699
   -40.8699 -40.8699 -40.8699 -40.8699 -40.8699 -40.8698 -40.8697 -40.8696
   -40.8695 -40.8694 -40.8693 -40.8605 -40.8552 -40.8463 -40.8353 -40.8034
   -40.7775 -40.7775 -40.7772 -40.7720 -40.7632 -40.7532 -40.7531 -40.7494
   -40.7437 -40.7436 -40.7436 -40.7436 -40.7436 -40.7436 -40.7435 -40.7434
   -40.7434 -40.7434 -40.7434 -40.7434 -40.7434 -40.7433 -40.7433 -40.7432
   -40.7432 -40.7431 -40.7430 -40.7411 -40.7377 -40.7358 -40.7358 -40.7358
   -40.7358 -40.7358 -40.7358 -40.7357 -40.7357 -40.7357 -40.7357 -40.7357
   -40.7357 -40.7357 -40.7356 -40.7356 -40.7354 -40.7353 -40.7352 -40.7335
   -40.7293 -40.7240 -40.7225 -40.7175 -40.7119 -40.7099 -40.7086 -40.7086
   -40.7086 -40.7086 -40.7086 -40.7086 -40.7085 -40.7084 -40.7083 -40.7083
   -40.7083 -40.7083 -40.7083 -40.7083 -40.7083 -40.7082 -40.7081 -40.7080
   -40.7080 -40.7039 -40.7028 -40.6964 -40.6940 -40.6939 -40.6938 -40.6938
   -40.6938 -40.6938 -40.6938 -40.6938 -40.6938 -40.6937 -40.6937 -40.6937
   -40.6937 -40.6937 -40.6937 -40.6937 -40.6937 -40.6937 -40.6936 -40.6936
   -40.6936 -40.6935 -40.6934 -40.6934 -40.6934 -40.6932 -40.6931 -40.6928
   -40.6919 -40.6857 -40.6828 -40.6747 -40.6732 -40.6691 -40.6651 -40.6303
   -40.6303 -40.6303 -40.6300 -40.6299 -40.6299 -40.6299 -40.6299 -40.6298
   -40.6257 -40.6193 -40.6130 -40.5832 -40.5832 -40.5832 -40.5831 -40.5831
   -40.5831 -40.5830 -40.5829 -40.5829 -40.5828 -40.5828 -40.5828 -40.5828
   -40.5828 -40.5827 -40.5826 -40.5826 -40.5825 -40.5774 -40.5760 -40.5660
   -40.5612 -40.5538 -40.5504 -40.5355 -40.5355 -40.5351 -40.5351 -40.5351
   -40.5351 -40.5124 -40.4982 -20.2036 -20.0945 -19.9937 -19.8853 -19.6688
   -19.3242 -19.2876 -19.2508 -19.2475 -19.2415 -19.2312 -19.2249 -19.2210
   -19.2010 -19.1954 -19.1807 -19.1458 -19.1344 -19.1307 -19.1166 -19.1115
   -19.0955 -19.0409 -19.0339 -19.0326 -19.0281 -19.0259 -19.0192 -18.9051
   -18.8098 -18.7569 -18.6241 -18.5583 -18.5541 -18.5071 -18.4994 -18.4746
   -18.4648 -18.4436 -18.4238 -18.4130 -18.4054 -18.3909 -18.3599 -18.3335
   -18.3200 -18.2808 -18.2786 -18.2712 -18.2477 -18.2382 -18.2364 -18.1836
   -18.1788 -18.1769 -18.1694 -18.1686 -18.1675 -18.1316 -18.1196 -18.1164
   -18.1153 -18.1131 -18.1126 -18.1107 -18.0966 -18.0882 -18.0844 -18.0793
   -18.0775 -18.0748 -18.0701 -18.0698 -18.0684 -18.0582 -18.0476 -18.0452
   -18.0440 -18.0409 -18.0375 -18.0280 -18.0242 -18.0217 -18.0112 -18.0042
   -17.9989 -17.9985 -17.9941 -17.9926 -17.9820 -17.9812 -17.9792 -17.9511
   -17.9429 -17.9415 -17.9301 -17.9168 -17.9158 -17.9123 -17.9106 -17.9095
   -17.8913 -17.8885 -17.8856 -17.8772 -17.8708 -17.8660 -17.8629 -17.8620
   -17.8604 -17.8533 -17.8520 -17.8506 -17.8351 -17.8347 -17.8341 -17.8252
   -17.8229 -17.8196 -17.8174 -17.8168 -17.8145 -17.7913 -17.7910 -17.7897
   -17.7892 -17.7888 -17.7880 -12.2524 -12.0548 -11.9581 -11.8904 -11.8175
   -11.7938 -11.7818 -11.7779 -11.6807 -11.6723 -11.6615 -11.5885 -11.5561
   -11.5482 -11.5416 -11.4300 -11.3636 -11.3540 -11.2750 -11.2404 -11.2331
   -11.2313 -11.2301 -11.2248 -11.2002 -11.1760 -11.1614 -11.1289 -11.1252
   -11.1243 -11.1220 -11.1186 -11.1146 -11.0873 -11.0736 -11.0667 -11.0652
   -11.0569 -11.0551 -11.0512 -11.0473 -11.0422 -11.0405 -11.0271 -11.0208
   -11.0003 -10.9798 -10.9654 -10.9586 -10.9435 -10.9375 -10.9328 -10.9196
   -10.9047 -10.8959 -10.8882 -10.8828 -10.8799 -10.8751 -10.8587 -10.8451
   -10.8436 -10.8387 -10.8360 -10.8282 -10.8276 -10.8253 -10.8236 -10.8223
   -10.8184 -10.8095 -10.8035 -10.8013 -10.8011 -10.7989 -10.7958 -10.7753
   -10.7752 -10.7726 -10.7708 -10.7692 -10.7647 -10.7631 -10.7520 -10.7496
   -10.7319 -10.7316 -10.7310 -10.7304 -10.7279 -10.7267 -10.6728 -10.6592
   -10.6523 -10.6231 -10.5935 -10.5906 -10.5806 -10.5748 -10.5718 -10.5505
   -10.4674 -10.3360 -10.2363 -10.1671 -10.1435 -10.1053  -9.9659  -9.9607
    -9.9350  -9.9202  -9.8329  -9.8219  -9.8054  -9.7993  -9.7963  -9.7880
    -9.7735  -9.7690  -9.7666  -9.7642  -9.7621  -9.7585  -9.7552  -9.7523
    -9.7463  -9.7437  -9.7409  -9.7334  -9.7315  -9.7244  -9.7088  -9.6892
    -9.6733  -9.6358  -9.6313  -9.6239  -9.6229  -9.6209  -9.6183  -9.6119
    -9.6115  -9.6107  -9.6105  -9.6089  -9.6068  -9.6018  -9.5952  -9.5732
    -9.5524  -9.5360  -9.5358  -9.5356  -9.5352  -9.5351  -9.5347  -9.5311
    -9.5300  -9.5165  -9.5145  -9.4990  -9.4945  -9.4766  -9.4722  -9.4501
    -9.4432  -9.4269  -9.3636  -9.3592  -9.3564  -9.3517  -9.3460  -9.3407
    -9.3279  -9.3252  -9.3198  -9.3075  -9.3025  -9.2968  -9.2580  -9.2522
    -9.2447  -9.2320  -9.2186  -9.2116  -9.1991  -9.1913  -9.1817  -9.1764
    -9.1740  -9.1725  -9.1715  -9.1702  -9.1345  -9.1286  -9.1154  -9.1018
    -9.0998  -9.0784  -9.0665  -9.0226  -8.9772  -8.9756  -8.9736  -8.9641
    -8.9551  -8.9498  -8.9483  -8.9421  -8.9341  -8.9260  -8.9112  -8.9108
    -8.9097  -8.9072  -8.8982  -8.8931  -8.8851  -8.8810  -8.8681  -8.8162
    -8.8153  -8.8151  -8.8149  -8.8146  -8.8141  -8.8019  -8.7578  -8.7485
    -8.7409  -8.7400  -8.7303  -8.7244  -8.6746  -8.6620  -8.6612  -8.6583
    -8.6518  -8.6459  -8.5975  -8.5937  -8.5870  -8.5865  -8.5847  -8.5829
    -8.5601  -8.5552  -8.4568  -8.4202  -8.4028  -8.3603  -8.3603  -8.3555
    -8.3549  -8.3508  -8.3487  -8.3471  -8.3418  -8.3032  -8.2759  -8.2708
    -8.2695  -8.2692  -8.2690  -8.2676  -8.2611  -8.2507  -8.2443  -8.2426
    -8.2423  -8.2400  -8.2371  -8.2302  -8.2178  -8.2145  -8.2144  -8.2133
    -8.2128  -8.2109  -8.2028  -8.1017  -8.0193  -7.9568  -7.9050  -7.8660
    -7.8535  -7.8516  -7.8444  -7.7794  -7.7744  -7.7661  -7.7084  -7.7044
    -7.6930  -7.6658  -7.6433  -7.6377  -7.6355  -7.6288  -7.6226  -7.6163
    -7.6015  -7.5992  -7.5910  -7.5772  -7.5641  -7.5567  -7.5437  -7.5386
    -7.5288  -7.5282  -7.5281  -7.5275  -7.5258  -7.5232  -7.5152  -7.5025
    -7.5019  -7.5008  -7.5002  -7.4990  -7.4966  -7.4941  -7.4773  -7.4764
    -7.4760  -7.4758  -7.4754  -7.4742  -7.4673  -7.4481  -7.4411  -7.4271
    -7.4185  -7.4171  -7.4133  -7.4046  -7.4012  -7.3953  -7.3874  -7.3769
    -7.3606  -7.3546  -7.3458  -7.3300  -7.3155  -7.3107  -7.2959  -7.2923
    -7.2888  -7.2841  -7.2833  -7.2794  -7.2727  -7.2513  -7.2444  -7.2443
    -7.2342  -7.2264  -7.2241  -7.2079  -7.2070  -7.1875  -7.1592  -7.1314
    -7.1193  -7.0927  -7.0887  -7.0754  -7.0248  -6.9569  -6.9538  -6.8902
    -6.8667  -6.8587  -6.8525  -6.8283  -6.7983  -6.7823  -6.7784  -6.7739
    -6.7613  -6.7452  -6.7243  -6.7132  -6.6946  -6.6756  -6.6689  -6.6431
    -6.6431  -6.6180  -6.6151  -6.6090  -6.6050  -6.6014  -6.5951  -6.5733
    -6.5617  -6.5569  -6.5420  -6.5405  -6.5307  -6.5143  -6.5094  -6.5074
    -6.5065  -6.5042  -6.5020  -6.5010  -6.5000  -6.4980  -6.4911  -6.4909
    -6.4909  -6.4909  -6.4905  -6.4901  -6.4742  -6.4579  -6.4574  -6.4336
    -6.4246  -6.4172  -6.4029  -6.4019  -6.3976  -6.3669  -6.3500  -6.3423
    -6.3298  -6.3293  -6.3277  -6.3238  -6.3217  -6.3160  -6.3004  -6.2994
    -6.2949  -6.2846  -6.2809  -6.2776  -6.2695  -6.2655  -6.2605  -6.2475
    -6.2455  -6.2448  -6.2429  -6.2408  -6.2382  -6.2146  -6.1107  -5.9706
    -5.8565  -5.7262  -5.6365  -5.5044  -5.4061  -5.2583  -5.1743  -5.1226
    -5.0753  -5.0510  -4.5620  -3.8692  -3.8471  -3.8449  -3.8433  -3.8394
    -3.8262  -3.8233  -3.8206  -3.8196  -3.8166  -3.8155  -3.8046  -3.7390
    -3.6964  -3.6957  -3.6902  -3.6846  -3.6788  -3.6747  -3.6743  -3.6701
    -3.6683  -3.6658  -3.6037  -3.5400  -3.5131  -3.5071  -3.5022  -3.4954
    -3.4898  -3.4834  -3.4760  -3.4680  -3.4661  -3.4636  -3.4618  -3.4569
    -3.4511  -3.4497  -3.4440  -3.4404  -3.4374  -3.4360  -3.4352  -3.4339
    -3.4254  -3.4204  -3.4201  -3.4137  -3.4120  -3.4053  -3.4037  -3.4021
    -3.3975  -3.3958  -3.3943  -3.3891  -3.3815  -3.3784  -3.3698  -3.3548
    -3.3456  -3.3407  -3.3390  -3.3377  -3.3371  -3.3340  -3.3295  -3.3176
    -3.3102  -3.3043  -3.2994  -3.2820  -3.2779  -3.2725  -3.2707  -3.2676
    -3.2535  -3.2162  -3.2035  -3.1961  -3.1947  -3.1890  -3.1617  -3.0767
    -3.0584  -3.0579  -3.0563  -3.0545  -3.0517  -3.0411  -3.0387  -3.0363
    -3.0171  -2.9935  -2.9815  -2.9779  -2.9715  -2.9689  -2.9677  -2.9666
    -2.9652  -2.9649  -2.9603  -2.9556  -2.9555  -2.9493  -2.9479  -2.9459
    -2.9431  -2.9388  -2.9319  -2.9284  -2.9281  -2.9264  -2.9251  -2.9243
    -2.9240  -2.9226  -2.9182  -2.9164  -2.9136  -2.8877  -2.8828  -2.8723
    -2.8675  -2.8636  -2.8612  -2.8479  -2.8408  -2.8061  -2.8001  -2.8000
    -2.7998  -2.7997  -2.7995  -2.7982  -2.7978  -2.7973  -2.7944  -2.7799
    -2.7772  -2.7605  -2.7474  -2.7457  -2.7313  -2.7261  -2.7148  -2.7122
    -2.6993  -2.6644  -2.6585  -2.6315  -2.6309  -2.6271  -2.6183  -2.6163
    -2.6138  -2.6109  -2.6043  -2.5647  -2.5562  -2.5469  -2.5271  -2.5261
    -2.5087  -2.4545  -2.4439  -2.4419  -2.4292  -2.4195  -2.3807

          k = 0.0000-0.5773 0.0000 (386352 PWs)   bands (ev):

  -103.1660 -89.0874 -87.2674 -71.5521 -71.5450 -71.5000 -71.4559 -71.4402
   -71.4384 -71.4292 -66.6352 -66.6140 -66.6117 -66.6117 -66.6114 -66.6113
   -66.6110 -66.6110 -66.6095 -66.6010 -66.6010 -66.6007 -66.6007 -66.6003
   -66.6003 -66.5988 -66.5956 -66.5912 -66.5881 -66.5859 -66.5859 -66.5859
   -66.5859 -66.5858 -66.5856 -66.5855 -66.5855 -66.5854 -66.5852 -66.5852
   -66.5852 -66.5852 -66.5815 -66.5815 -66.5812 -66.5811 -66.5808 -66.5808
   -66.5795 -66.5752 -66.5752 -66.5752 -66.5752 -66.5750 -66.5749 -66.5749
   -66.5746 -66.5745 -66.5745 -66.5745 -66.5745 -66.5708 -66.5708 -66.5704
   -66.5704 -66.5701 -66.5701 -66.5680 -66.5632 -66.5586 -66.5460 -66.5329
   -66.5319 -66.5262 -57.4483 -57.4136 -57.2067 -54.9712 -54.9326 -54.6798
   -53.2471 -53.1397 -52.7826 -40.9241 -40.9205 -40.9137 -40.9137 -40.9137
   -40.9137 -40.9136 -40.9136 -40.9136 -40.9136 -40.9134 -40.9134 -40.9132
   -40.9130 -40.9017 -40.8962 -40.8869 -40.8869 -40.8869 -40.8868 -40.8868
   -40.8865 -40.8864 -40.8818 -40.8748 -40.8748 -40.8747 -40.8747 -40.8744
   -40.8744 -40.8601 -40.8405 -40.8241 -40.8241 -40.8241 -40.8241 -40.8240
   -40.8240 -40.8240 -40.8240 -40.8237 -40.8237 -40.8237 -40.8237 -40.8188
   -40.8109 -40.8049 -40.8020 -40.7925 -40.7711 -40.7670 -40.7653 -40.7653
   -40.7653 -40.7653 -40.7651 -40.7649 -40.7598 -40.7558 -40.7558 -40.7556
   -40.7556 -40.7555 -40.7554 -40.7453 -40.7445 -40.7445 -40.7444 -40.7444
   -40.7441 -40.7441 -40.7417 -40.7364 -40.7329 -40.7311 -40.7226 -40.7155
   -40.7148 -40.7148 -40.7148 -40.7148 -40.7148 -40.7148 -40.7148 -40.7147
   -40.7146 -40.7146 -40.7144 -40.7144 -40.7126 -40.7065 -40.7061 -40.7061
   -40.7060 -40.7060 -40.7059 -40.7057 -40.6992 -40.6944 -40.6943 -40.6941
   -40.6941 -40.6940 -40.6939 -40.6938 -40.6938 -40.6938 -40.6938 -40.6937
   -40.6937 -40.6937 -40.6937 -40.6937 -40.6935 -40.6934 -40.6933 -40.6917
   -40.6898 -40.6851 -40.6851 -40.6850 -40.6850 -40.6848 -40.6848 -40.6842
   -40.6792 -40.6760 -40.6651 -40.6634 -40.6634 -40.6634 -40.6634 -40.6632
   -40.6631 -40.6631 -40.6631 -40.6631 -40.6631 -40.6630 -40.6628 -40.6613
   -40.6562 -40.6504 -40.6458 -40.6287 -40.6287 -40.6287 -40.6287 -40.6283
   -40.6283 -40.6283 -40.6283 -40.6283 -40.6283 -40.6283 -40.6282 -40.6221
   -40.6165 -40.6165 -40.6164 -40.6162 -40.6162 -40.6162 -40.6160 -40.6099
   -40.6090 -40.6036 -40.5972 -40.5972 -40.5969 -40.5968 -40.5968 -40.5967
   -40.5858 -40.5831 -40.5802 -40.5802 -40.5798 -40.5798 -40.5798 -40.5798
   -40.5752 -40.5541 -40.5495 -40.5495 -40.5493 -40.5491 -40.5491 -40.5490
   -40.5421 -40.5378 -40.5084 -20.0922 -19.8861 -19.8623 -19.8302 -19.7664
   -19.7367 -19.6563 -19.6424 -19.5328 -19.4581 -19.4249 -19.4062 -19.3364
   -19.3150 -19.2329 -19.2189 -19.1392 -18.8708 -18.8197 -18.7722 -18.7413
   -18.7369 -18.7172 -18.7123 -18.7109 -18.7010 -18.6864 -18.6580 -18.6501
   -18.6396 -18.6317 -18.6171 -18.5907 -18.5758 -18.5675 -18.5484 -18.5449
   -18.5404 -18.5249 -18.5167 -18.5072 -18.4770 -18.4718 -18.4707 -18.4623
   -18.4314 -18.4060 -18.4025 -18.3982 -18.3719 -18.3654 -18.3546 -18.3288
   -18.3149 -18.3115 -18.2878 -18.2502 -18.2430 -18.2396 -18.2276 -18.1933
   -18.1863 -18.1748 -18.1580 -18.1292 -18.1140 -18.1109 -18.1049 -18.0971
   -18.0937 -18.0906 -18.0900 -18.0811 -18.0669 -18.0653 -18.0636 -18.0593
   -18.0578 -18.0493 -18.0464 -18.0422 -18.0360 -18.0339 -18.0228 -18.0028
   -18.0023 -17.9985 -17.9944 -17.9925 -17.9902 -17.9875 -17.9825 -17.9814
   -17.9709 -17.9425 -17.9406 -17.9306 -17.9275 -17.9249 -17.9140 -17.8861
   -17.8849 -17.8793 -17.8684 -17.8450 -17.8416 -17.8385 -17.8324 -17.8293
   -17.8165 -17.8123 -17.8118 -17.8116 -17.8108 -17.8095 -17.8078 -17.7973
   -17.7967 -17.7781 -17.7774 -17.7540 -17.7532 -17.7348 -17.7337 -17.7200
   -17.7192 -17.7124 -17.7122 -12.1643 -11.9425 -11.7551 -11.7231 -11.7033
   -11.6158 -11.5453 -11.5154 -11.4960 -11.4930 -11.4884 -11.4748 -11.4720
   -11.4651 -11.4524 -11.4103 -11.3949 -11.3804 -11.3766 -11.3716 -11.3565
   -11.3311 -11.3169 -11.3130 -11.2932 -11.2766 -11.2732 -11.2666 -11.2601
   -11.2546 -11.2522 -11.2453 -11.2425 -11.2050 -11.1969 -11.1895 -11.1868
   -11.1788 -11.1653 -11.1613 -11.1598 -11.1525 -11.1401 -11.1390 -11.1276
   -11.1132 -11.0951 -11.0780 -11.0707 -11.0589 -11.0550 -11.0218 -10.9872
   -10.9829 -10.9465 -10.9434 -10.9254 -10.9116 -10.9034 -10.9002 -10.8874
   -10.8553 -10.8527 -10.8316 -10.8284 -10.8243 -10.8150 -10.8075 -10.8042
   -10.8039 -10.8023 -10.8022 -10.7955 -10.7929 -10.7884 -10.7875 -10.7852
   -10.7844 -10.7779 -10.7770 -10.7738 -10.7718 -10.7382 -10.7368 -10.7358
   -10.7356 -10.7070 -10.6268 -10.5570 -10.5376 -10.5250 -10.5201 -10.5021
   -10.4792 -10.4263 -10.3968 -10.3412 -10.3349 -10.2517 -10.2419 -10.1581
   -10.1527 -10.1293 -10.1257 -10.1065 -10.1025 -10.0863 -10.0812 -10.0498
   -10.0450 -10.0283 -10.0268 -10.0267 -10.0213 -10.0114 -10.0066  -9.9818
    -9.9711  -9.9301  -9.9246  -9.9216  -9.9114  -9.9042  -9.8922  -9.8849
    -9.8836  -9.8608  -9.8555  -9.8425  -9.8380  -9.8079  -9.7916  -9.7821
    -9.7735  -9.7618  -9.7576  -9.7336  -9.7320  -9.7086  -9.6964  -9.6800
    -9.6766  -9.6536  -9.6501  -9.6275  -9.6122  -9.6115  -9.5997  -9.5933
    -9.5657  -9.5579  -9.5556  -9.5389  -9.5295  -9.5280  -9.5213  -9.4918
    -9.4852  -9.4813  -9.4689  -9.4667  -9.4622  -9.4583  -9.4516  -9.4474
    -9.4414  -9.4271  -9.4190  -9.4011  -9.3859  -9.3533  -9.3468  -9.2942
    -9.2882  -9.2677  -9.2218  -9.2111  -9.2046  -9.2004  -9.1960  -9.1852
    -9.1661  -9.1520  -9.1485  -9.1330  -9.1276  -9.1192  -9.1045  -9.0817
    -9.0686  -9.0541  -9.0439  -9.0357  -9.0340  -9.0265  -9.0233  -8.9977
    -8.9862  -8.9757  -8.9664  -8.9509  -8.9434  -8.9408  -8.9370  -8.9217
    -8.9188  -8.8954  -8.8840  -8.8831  -8.8807  -8.8795  -8.8782  -8.8695
    -8.8652  -8.8618  -8.8599  -8.8586  -8.8517  -8.8509  -8.8463  -8.8433
    -8.8328  -8.8323  -8.8246  -8.8137  -8.8052  -8.7856  -8.7847  -8.7834
    -8.7820  -8.7776  -8.7763  -8.7580  -8.7551  -8.7532  -8.7331  -8.7258
    -8.7237  -8.7210  -8.7111  -8.6951  -8.6543  -8.6503  -8.6401  -8.6185
    -8.5937  -8.5187  -8.4997  -8.4962  -8.4704  -8.4403  -8.4257  -8.4140
    -8.3724  -8.3514  -8.3377  -8.2821  -8.2804  -8.2317  -8.1754  -8.1205
    -8.1202  -8.1157  -8.1112  -8.1101  -8.1010  -8.0997  -8.0962  -8.0620
    -8.0476  -8.0373  -7.9791  -7.9620  -7.9517  -7.9199  -7.8840  -7.8515
    -7.8428  -7.8356  -7.8349  -7.8250  -7.8161  -7.8111  -7.8077  -7.7994
    -7.7968  -7.7947  -7.7909  -7.7892  -7.7871  -7.7822  -7.7764  -7.7739
    -7.7718  -7.7692  -7.7620  -7.7613  -7.7581  -7.7575  -7.7561  -7.7547
    -7.7508  -7.7505  -7.7438  -7.7354  -7.7309  -7.7238  -7.7223  -7.7178
    -7.7146  -7.6958  -7.6901  -7.6895  -7.6888  -7.6868  -7.6616  -7.6594
    -7.6593  -7.6586  -7.6565  -7.6520  -7.6417  -7.6344  -7.6173  -7.6102
    -7.6060  -7.6014  -7.6001  -7.5971  -7.5897  -7.5859  -7.5774  -7.5765
    -7.5577  -7.5565  -7.5552  -7.5493  -7.5465  -7.5422  -7.5311  -7.4892
    -7.4600  -7.4536  -7.4516  -7.4458  -7.4166  -7.4084  -7.3920  -7.3189
    -7.2737  -7.2262  -7.1909  -7.1715  -7.1623  -7.1588  -7.1562  -7.1416
    -7.1197  -7.1094  -7.0984  -7.0960  -7.0802  -7.0718  -7.0499  -7.0365
    -7.0245  -7.0173  -7.0098  -6.9945  -6.9924  -6.9695  -6.9665  -6.9642
    -6.9308  -6.9121  -6.9072  -6.8987  -6.8856  -6.8780  -6.8639  -6.8535
    -6.8504  -6.8332  -6.8275  -6.8027  -6.7779  -6.7655  -6.7561  -6.7411
    -6.7280  -6.6898  -6.6778  -6.6628  -6.6381  -6.6211  -6.6158  -6.6065
    -6.5995  -6.5979  -6.5969  -6.5950  -6.5852  -6.5803  -6.5798  -6.5786
    -6.5754  -6.5715  -6.5714  -6.5711  -6.5704  -6.5470  -6.5251  -6.4807
    -6.4767  -6.4315  -6.4068  -6.3738  -6.3537  -6.3203  -6.3186  -6.3169
    -6.3062  -6.2977  -6.2846  -6.2730  -6.2708  -6.2694  -6.2691  -6.2658
    -6.2649  -6.2567  -6.2458  -6.2374  -6.2245  -6.2227  -6.2117  -6.1969
    -6.1942  -6.1900  -6.1895  -6.1479  -6.0726  -5.9905  -5.9831  -5.9508
    -5.9290  -5.9091  -5.8865  -5.8723  -5.8544  -5.8500  -5.8321  -5.8219
    -5.7036  -5.6814  -5.6071  -5.5877  -5.5569  -5.4635  -5.2656  -5.1386
    -5.0799  -5.0509  -4.5676  -4.0858  -4.0837  -4.0818  -4.0631  -3.9369
    -3.9235  -3.9133  -3.9125  -3.9079  -3.8642  -3.8367  -3.8338  -3.8242
    -3.8193  -3.8058  -3.8029  -3.7909  -3.7901  -3.7853  -3.7465  -3.7027
    -3.6813  -3.6793  -3.6334  -3.6079  -3.5952  -3.5918  -3.5907  -3.5894
    -3.5546  -3.5468  -3.5417  -3.5310  -3.5214  -3.5140  -3.5089  -3.5054
    -3.5016  -3.4867  -3.4759  -3.4753  -3.4684  -3.4642  -3.4628  -3.4588
    -3.4470  -3.4403  -3.4361  -3.4261  -3.4186  -3.4107  -3.4084  -3.3994
    -3.3828  -3.3578  -3.3494  -3.3411  -3.3403  -3.3376  -3.3355  -3.3341
    -3.3285  -3.3058  -3.2996  -3.2891  -3.2850  -3.2780  -3.2750  -3.2710
    -3.2694  -3.2665  -3.2640  -3.2461  -3.2427  -3.2363  -3.2292  -3.2243
    -3.2206  -3.2154  -3.2069  -3.2027  -3.2008  -3.1958  -3.1873  -3.1832
    -3.1741  -3.1659  -3.1641  -3.1594  -3.1532  -3.1531  -3.1512  -3.1402
    -3.1249  -3.0995  -3.0881  -3.0824  -3.0643  -3.0590  -3.0571  -3.0513
    -3.0403  -3.0189  -3.0166  -3.0135  -3.0132  -3.0128  -3.0108  -3.0055
    -3.0046  -3.0017  -2.9970  -2.9934  -2.9843  -2.9820  -2.9794  -2.9719
    -2.9690  -2.9677  -2.9632  -2.9613  -2.9528  -2.9513  -2.9432  -2.9390
    -2.9378  -2.9351  -2.9337  -2.9243  -2.9217  -2.9166  -2.8986  -2.8890
    -2.8810  -2.8789  -2.8768  -2.8678  -2.8664  -2.8528  -2.8375  -2.7904
    -2.7830  -2.7814  -2.7783  -2.7309  -2.7152  -2.7102  -2.6975  -2.6106
    -2.6034  -2.5808  -2.5728  -2.5561  -2.5553  -2.5439  -2.5346  -2.5296
    -2.5199  -2.5171  -2.5157  -2.5129  -2.4992  -2.4647  -2.4055  -2.3994
    -2.3803  -2.3740  -2.3708  -2.3662  -2.3595  -2.3391  -2.3347

          k =-0.5000-0.2887 0.0000 (386352 PWs)   bands (ev):

  -103.1660 -89.0874 -87.2674 -71.5521 -71.5450 -71.5000 -71.4559 -71.4402
   -71.4384 -71.4292 -66.6351 -66.6144 -66.6117 -66.6117 -66.6114 -66.6113
   -66.6110 -66.6110 -66.6096 -66.6010 -66.6010 -66.6007 -66.6007 -66.6003
   -66.6003 -66.5980 -66.5958 -66.5900 -66.5879 -66.5868 -66.5859 -66.5859
   -66.5859 -66.5859 -66.5857 -66.5856 -66.5856 -66.5855 -66.5852 -66.5852
   -66.5852 -66.5852 -66.5815 -66.5815 -66.5812 -66.5811 -66.5808 -66.5808
   -66.5800 -66.5752 -66.5752 -66.5752 -66.5752 -66.5749 -66.5749 -66.5748
   -66.5748 -66.5745 -66.5745 -66.5745 -66.5745 -66.5708 -66.5708 -66.5704
   -66.5704 -66.5701 -66.5701 -66.5680 -66.5631 -66.5586 -66.5458 -66.5331
   -66.5318 -66.5261 -57.4483 -57.4136 -57.2067 -54.9712 -54.9326 -54.6798
   -53.2471 -53.1397 -52.7826 -40.9155 -40.9137 -40.9137 -40.9137 -40.9137
   -40.9136 -40.9136 -40.9136 -40.9136 -40.9133 -40.9133 -40.9133 -40.9132
   -40.9111 -40.9088 -40.9021 -40.8984 -40.8869 -40.8869 -40.8868 -40.8868
   -40.8865 -40.8864 -40.8828 -40.8748 -40.8748 -40.8747 -40.8747 -40.8744
   -40.8744 -40.8623 -40.8381 -40.8241 -40.8241 -40.8241 -40.8241 -40.8240
   -40.8240 -40.8240 -40.8240 -40.8238 -40.8237 -40.8237 -40.8237 -40.8168
   -40.8125 -40.8002 -40.7982 -40.7878 -40.7768 -40.7653 -40.7653 -40.7653
   -40.7653 -40.7650 -40.7649 -40.7624 -40.7563 -40.7558 -40.7558 -40.7556
   -40.7556 -40.7555 -40.7554 -40.7493 -40.7445 -40.7445 -40.7444 -40.7444
   -40.7442 -40.7441 -40.7412 -40.7365 -40.7345 -40.7285 -40.7240 -40.7183
   -40.7148 -40.7148 -40.7148 -40.7148 -40.7148 -40.7148 -40.7148 -40.7148
   -40.7146 -40.7146 -40.7145 -40.7145 -40.7120 -40.7061 -40.7061 -40.7060
   -40.7060 -40.7058 -40.7058 -40.7052 -40.6968 -40.6944 -40.6943 -40.6941
   -40.6941 -40.6940 -40.6939 -40.6938 -40.6938 -40.6938 -40.6938 -40.6937
   -40.6937 -40.6937 -40.6937 -40.6936 -40.6935 -40.6934 -40.6934 -40.6932
   -40.6860 -40.6851 -40.6851 -40.6850 -40.6850 -40.6848 -40.6848 -40.6838
   -40.6813 -40.6769 -40.6649 -40.6634 -40.6634 -40.6634 -40.6634 -40.6634
   -40.6632 -40.6631 -40.6631 -40.6631 -40.6631 -40.6631 -40.6629 -40.6629
   -40.6600 -40.6514 -40.6468 -40.6287 -40.6287 -40.6287 -40.6287 -40.6283
   -40.6283 -40.6283 -40.6283 -40.6283 -40.6283 -40.6282 -40.6282 -40.6272
   -40.6233 -40.6165 -40.6165 -40.6162 -40.6162 -40.6161 -40.6161 -40.6117
   -40.5988 -40.5981 -40.5972 -40.5972 -40.5969 -40.5969 -40.5968 -40.5967
   -40.5894 -40.5866 -40.5802 -40.5802 -40.5798 -40.5798 -40.5798 -40.5798
   -40.5699 -40.5587 -40.5495 -40.5495 -40.5492 -40.5491 -40.5491 -40.5491
   -40.5345 -40.5257 -40.5218 -20.0940 -19.8841 -19.8623 -19.8274 -19.7662
   -19.7345 -19.6562 -19.6416 -19.5391 -19.4612 -19.4251 -19.4082 -19.3366
   -19.3163 -19.2326 -19.2194 -19.1322 -18.8485 -18.8355 -18.7764 -18.7484
   -18.7339 -18.7172 -18.7122 -18.7111 -18.7048 -18.6808 -18.6579 -18.6492
   -18.6420 -18.6296 -18.6162 -18.5908 -18.5746 -18.5679 -18.5475 -18.5471
   -18.5396 -18.5239 -18.5165 -18.5085 -18.4782 -18.4713 -18.4700 -18.4622
   -18.4316 -18.4060 -18.4019 -18.3987 -18.3776 -18.3721 -18.3475 -18.3286
   -18.3170 -18.3122 -18.2785 -18.2524 -18.2459 -18.2396 -18.2255 -18.1939
   -18.1850 -18.1766 -18.1559 -18.1309 -18.1143 -18.1114 -18.1053 -18.0953
   -18.0939 -18.0908 -18.0895 -18.0807 -18.0659 -18.0658 -18.0623 -18.0597
   -18.0591 -18.0505 -18.0462 -18.0424 -18.0356 -18.0330 -18.0238 -18.0036
   -18.0019 -17.9985 -17.9943 -17.9926 -17.9906 -17.9874 -17.9824 -17.9812
   -17.9713 -17.9431 -17.9405 -17.9308 -17.9277 -17.9227 -17.9141 -17.8867
   -17.8848 -17.8778 -17.8694 -17.8460 -17.8414 -17.8384 -17.8327 -17.8278
   -17.8164 -17.8123 -17.8118 -17.8115 -17.8105 -17.8098 -17.8084 -17.7975
   -17.7965 -17.7785 -17.7772 -17.7542 -17.7530 -17.7350 -17.7335 -17.7200
   -17.7191 -17.7123 -17.7122 -12.1779 -11.9260 -11.7417 -11.7121 -11.7069
   -11.6259 -11.5539 -11.5117 -11.4990 -11.4908 -11.4889 -11.4793 -11.4693
   -11.4627 -11.4441 -11.4201 -11.4006 -11.3833 -11.3717 -11.3623 -11.3540
   -11.3328 -11.3214 -11.3123 -11.2987 -11.2773 -11.2737 -11.2637 -11.2595
   -11.2548 -11.2521 -11.2461 -11.2420 -11.2061 -11.1988 -11.1904 -11.1871
   -11.1718 -11.1660 -11.1609 -11.1600 -11.1502 -11.1401 -11.1395 -11.1312
   -11.1155 -11.0973 -11.0771 -11.0645 -11.0606 -11.0553 -11.0283 -11.0041
   -10.9587 -10.9449 -10.9358 -10.9289 -10.9211 -10.9019 -10.8923 -10.8845
   -10.8727 -10.8589 -10.8301 -10.8288 -10.8241 -10.8207 -10.8088 -10.8046
   -10.8037 -10.8031 -10.8020 -10.7999 -10.7922 -10.7891 -10.7870 -10.7851
   -10.7845 -10.7771 -10.7763 -10.7741 -10.7729 -10.7379 -10.7364 -10.7361
   -10.7357 -10.6999 -10.6544 -10.5371 -10.5327 -10.5225 -10.5174 -10.4872
   -10.4660 -10.4125 -10.3866 -10.3761 -10.3571 -10.2578 -10.2472 -10.1618
   -10.1486 -10.1272 -10.1234 -10.1040 -10.1008 -10.0851 -10.0745 -10.0483
   -10.0431 -10.0297 -10.0250 -10.0230 -10.0218 -10.0124 -10.0058  -9.9853
    -9.9672  -9.9348  -9.9243  -9.9195  -9.9045  -9.9013  -9.8923  -9.8851
    -9.8816  -9.8677  -9.8563  -9.8502  -9.8346  -9.8124  -9.7948  -9.7795
    -9.7735  -9.7603  -9.7581  -9.7320  -9.7302  -9.7193  -9.6934  -9.6828
    -9.6757  -9.6524  -9.6472  -9.6218  -9.6137  -9.6097  -9.5993  -9.5923
    -9.5686  -9.5588  -9.5446  -9.5376  -9.5326  -9.5276  -9.5145  -9.4905
    -9.4848  -9.4809  -9.4675  -9.4661  -9.4613  -9.4595  -9.4525  -9.4476
    -9.4377  -9.4266  -9.4167  -9.3991  -9.3822  -9.3584  -9.3462  -9.2939
    -9.2862  -9.2566  -9.2410  -9.2153  -9.2098  -9.1987  -9.1945  -9.1869
    -9.1603  -9.1542  -9.1443  -9.1343  -9.1232  -9.1115  -9.1018  -9.0917
    -9.0826  -9.0556  -9.0427  -9.0355  -9.0340  -9.0267  -9.0232  -9.0029
    -8.9880  -8.9723  -8.9710  -8.9501  -8.9436  -8.9385  -8.9361  -8.9238
    -8.9153  -8.8937  -8.8852  -8.8839  -8.8822  -8.8792  -8.8767  -8.8703
    -8.8631  -8.8619  -8.8596  -8.8566  -8.8534  -8.8504  -8.8462  -8.8437
    -8.8327  -8.8323  -8.8294  -8.8128  -8.8019  -8.7857  -8.7847  -8.7840
    -8.7821  -8.7784  -8.7762  -8.7608  -8.7552  -8.7536  -8.7288  -8.7259
    -8.7234  -8.7207  -8.7121  -8.6932  -8.6575  -8.6474  -8.6407  -8.6274
    -8.5957  -8.5147  -8.5036  -8.4970  -8.4890  -8.4435  -8.4324  -8.4030
    -8.3570  -8.3518  -8.3292  -8.2907  -8.2746  -8.2164  -8.1771  -8.1329
    -8.1202  -8.1199  -8.1112  -8.1104  -8.0998  -8.0994  -8.0822  -8.0653
    -8.0530  -8.0398  -7.9874  -7.9613  -7.9568  -7.9005  -7.8785  -7.8529
    -7.8488  -7.8343  -7.8335  -7.8236  -7.8162  -7.8091  -7.8061  -7.8022
    -7.7963  -7.7948  -7.7907  -7.7897  -7.7867  -7.7823  -7.7756  -7.7740
    -7.7719  -7.7699  -7.7621  -7.7612  -7.7582  -7.7574  -7.7560  -7.7544
    -7.7508  -7.7504  -7.7454  -7.7349  -7.7295  -7.7235  -7.7221  -7.7183
    -7.7161  -7.6956  -7.6896  -7.6891  -7.6886  -7.6880  -7.6615  -7.6601
    -7.6594  -7.6580  -7.6562  -7.6523  -7.6415  -7.6361  -7.6180  -7.6079
    -7.6049  -7.6009  -7.6001  -7.5944  -7.5906  -7.5851  -7.5777  -7.5763
    -7.5593  -7.5565  -7.5559  -7.5495  -7.5484  -7.5400  -7.5280  -7.4859
    -7.4575  -7.4526  -7.4514  -7.4477  -7.4147  -7.4094  -7.3787  -7.3282
    -7.2794  -7.2378  -7.1951  -7.1721  -7.1639  -7.1611  -7.1568  -7.1402
    -7.1216  -7.1134  -7.1004  -7.0949  -7.0824  -7.0723  -7.0500  -7.0452
    -7.0286  -7.0178  -7.0101  -6.9981  -6.9904  -6.9702  -6.9694  -6.9606
    -6.9418  -6.9096  -6.9080  -6.8949  -6.8853  -6.8769  -6.8651  -6.8531
    -6.8514  -6.8303  -6.8195  -6.8057  -6.7768  -6.7636  -6.7449  -6.7401
    -6.7134  -6.6847  -6.6764  -6.6582  -6.6399  -6.6218  -6.6155  -6.6083
    -6.5993  -6.5976  -6.5968  -6.5953  -6.5824  -6.5801  -6.5795  -6.5787
    -6.5722  -6.5714  -6.5713  -6.5712  -6.5652  -6.5439  -6.5152  -6.4837
    -6.4803  -6.4553  -6.4084  -6.3905  -6.3407  -6.3192  -6.3187  -6.3183
    -6.3048  -6.2986  -6.2864  -6.2726  -6.2704  -6.2697  -6.2689  -6.2657
    -6.2649  -6.2544  -6.2455  -6.2371  -6.2293  -6.2203  -6.2139  -6.1967
    -6.1949  -6.1902  -6.1885  -6.1384  -6.0790  -5.9891  -5.9823  -5.9448
    -5.9277  -5.9042  -5.8885  -5.8689  -5.8615  -5.8516  -5.8319  -5.8276
    -5.7074  -5.6830  -5.6066  -5.5882  -5.5522  -5.4622  -5.2669  -5.1453
    -5.0778  -5.0490  -4.5622  -4.0854  -4.0848  -4.0767  -4.0641  -3.9348
    -3.9211  -3.9171  -3.9136  -3.9009  -3.8671  -3.8398  -3.8333  -3.8258
    -3.8180  -3.8063  -3.8018  -3.7911  -3.7898  -3.7879  -3.7494  -3.7048
    -3.6819  -3.6771  -3.6435  -3.6064  -3.5956  -3.5934  -3.5907  -3.5889
    -3.5600  -3.5484  -3.5412  -3.5303  -3.5196  -3.5151  -3.5116  -3.5058
    -3.5008  -3.4890  -3.4784  -3.4744  -3.4670  -3.4650  -3.4637  -3.4555
    -3.4520  -3.4406  -3.4320  -3.4280  -3.4193  -3.4096  -3.4073  -3.3984
    -3.3830  -3.3606  -3.3485  -3.3418  -3.3388  -3.3365  -3.3350  -3.3336
    -3.3301  -3.3004  -3.2984  -3.2917  -3.2830  -3.2778  -3.2747  -3.2717
    -3.2701  -3.2674  -3.2636  -3.2462  -3.2408  -3.2348  -3.2322  -3.2258
    -3.2211  -3.2139  -3.2050  -3.2023  -3.2008  -3.1933  -3.1895  -3.1834
    -3.1723  -3.1697  -3.1641  -3.1597  -3.1532  -3.1532  -3.1521  -3.1403
    -3.1077  -3.0972  -3.0886  -3.0852  -3.0648  -3.0593  -3.0566  -3.0507
    -3.0387  -3.0166  -3.0149  -3.0141  -3.0134  -3.0125  -3.0120  -3.0050
    -3.0028  -3.0003  -2.9992  -2.9950  -2.9873  -2.9816  -2.9808  -2.9712
    -2.9708  -2.9675  -2.9629  -2.9606  -2.9569  -2.9522  -2.9440  -2.9389
    -2.9377  -2.9345  -2.9321  -2.9236  -2.9217  -2.9142  -2.9014  -2.8899
    -2.8853  -2.8799  -2.8723  -2.8689  -2.8655  -2.8592  -2.8500  -2.7899
    -2.7825  -2.7819  -2.7773  -2.7409  -2.7180  -2.7096  -2.6931  -2.6144
    -2.6015  -2.5838  -2.5810  -2.5652  -2.5567  -2.5453  -2.5370  -2.5303
    -2.5177  -2.5166  -2.5141  -2.5027  -2.4974  -2.4601  -2.4212  -2.4092
    -2.3885  -2.3866  -2.3795  -2.3708  -2.3640  -2.3488  -2.3261

          k =-0.5000-0.8660 0.0000 (386352 PWs)   bands (ev):

  -103.1660 -89.0874 -87.2674 -71.5521 -71.5450 -71.5000 -71.4559 -71.4402
   -71.4384 -71.4292 -66.6353 -66.6138 -66.6117 -66.6117 -66.6115 -66.6112
   -66.6110 -66.6110 -66.6083 -66.6025 -66.6010 -66.6010 -66.6007 -66.6007
   -66.6003 -66.6003 -66.5940 -66.5903 -66.5881 -66.5859 -66.5859 -66.5859
   -66.5859 -66.5859 -66.5858 -66.5854 -66.5853 -66.5852 -66.5852 -66.5852
   -66.5852 -66.5852 -66.5815 -66.5815 -66.5813 -66.5810 -66.5808 -66.5808
   -66.5801 -66.5754 -66.5753 -66.5752 -66.5752 -66.5752 -66.5748 -66.5747
   -66.5745 -66.5745 -66.5745 -66.5745 -66.5745 -66.5708 -66.5708 -66.5705
   -66.5704 -66.5701 -66.5701 -66.5679 -66.5632 -66.5586 -66.5461 -66.5330
   -66.5317 -66.5262 -57.4483 -57.4136 -57.2067 -54.9712 -54.9326 -54.6798
   -53.2471 -53.1397 -52.7826 -40.9277 -40.9249 -40.9137 -40.9137 -40.9137
   -40.9136 -40.9136 -40.9136 -40.9136 -40.9136 -40.9136 -40.9133 -40.9132
   -40.9130 -40.8981 -40.8917 -40.8869 -40.8868 -40.8868 -40.8868 -40.8866
   -40.8864 -40.8781 -40.8748 -40.8748 -40.8747 -40.8747 -40.8744 -40.8744
   -40.8696 -40.8673 -40.8541 -40.8241 -40.8241 -40.8241 -40.8241 -40.8240
   -40.8240 -40.8240 -40.8240 -40.8238 -40.8237 -40.8237 -40.8237 -40.8203
   -40.8143 -40.8079 -40.7989 -40.7943 -40.7757 -40.7653 -40.7653 -40.7653
   -40.7653 -40.7651 -40.7649 -40.7641 -40.7558 -40.7558 -40.7556 -40.7556
   -40.7555 -40.7554 -40.7540 -40.7482 -40.7445 -40.7445 -40.7444 -40.7444
   -40.7442 -40.7441 -40.7432 -40.7387 -40.7284 -40.7276 -40.7239 -40.7180
   -40.7148 -40.7148 -40.7148 -40.7148 -40.7148 -40.7148 -40.7148 -40.7148
   -40.7147 -40.7147 -40.7143 -40.7142 -40.7090 -40.7061 -40.7061 -40.7060
   -40.7060 -40.7059 -40.7057 -40.7047 -40.6999 -40.6944 -40.6943 -40.6941
   -40.6941 -40.6940 -40.6940 -40.6939 -40.6938 -40.6938 -40.6938 -40.6938
   -40.6937 -40.6937 -40.6937 -40.6937 -40.6937 -40.6935 -40.6933 -40.6932
   -40.6869 -40.6851 -40.6851 -40.6850 -40.6850 -40.6848 -40.6848 -40.6841
   -40.6788 -40.6756 -40.6651 -40.6649 -40.6635 -40.6634 -40.6634 -40.6634
   -40.6634 -40.6631 -40.6631 -40.6631 -40.6631 -40.6630 -40.6628 -40.6627
   -40.6618 -40.6420 -40.6373 -40.6287 -40.6287 -40.6287 -40.6287 -40.6283
   -40.6283 -40.6283 -40.6283 -40.6283 -40.6283 -40.6282 -40.6282 -40.6237
   -40.6192 -40.6165 -40.6165 -40.6162 -40.6162 -40.6161 -40.6160 -40.6134
   -40.6044 -40.6018 -40.5972 -40.5972 -40.5971 -40.5968 -40.5968 -40.5965
   -40.5868 -40.5828 -40.5802 -40.5802 -40.5799 -40.5798 -40.5798 -40.5798
   -40.5779 -40.5601 -40.5496 -40.5495 -40.5493 -40.5491 -40.5491 -40.5490
   -40.5488 -40.5357 -40.5025 -20.0972 -19.8815 -19.8622 -19.8223 -19.7660
   -19.7302 -19.6562 -19.6401 -19.5459 -19.4688 -19.4253 -19.4115 -19.3367
   -19.3186 -19.2323 -19.2202 -19.1266 -18.8435 -18.8162 -18.7831 -18.7548
   -18.7337 -18.7171 -18.7120 -18.7111 -18.7003 -18.6945 -18.6572 -18.6480
   -18.6399 -18.6333 -18.6180 -18.5790 -18.5765 -18.5646 -18.5470 -18.5417
   -18.5404 -18.5384 -18.5155 -18.4894 -18.4796 -18.4786 -18.4708 -18.4605
   -18.4297 -18.4057 -18.4040 -18.3943 -18.3897 -18.3674 -18.3515 -18.3253
   -18.3143 -18.3111 -18.3058 -18.2558 -18.2389 -18.2307 -18.2259 -18.2017
   -18.1849 -18.1671 -18.1593 -18.1442 -18.1183 -18.1067 -18.1033 -18.0961
   -18.0942 -18.0917 -18.0895 -18.0711 -18.0677 -18.0665 -18.0644 -18.0604
   -18.0579 -18.0554 -18.0427 -18.0406 -18.0346 -18.0305 -18.0242 -18.0057
   -18.0001 -17.9961 -17.9934 -17.9933 -17.9900 -17.9869 -17.9813 -17.9803
   -17.9701 -17.9481 -17.9315 -17.9294 -17.9264 -17.9212 -17.9134 -17.8879
   -17.8812 -17.8751 -17.8702 -17.8460 -17.8426 -17.8358 -17.8335 -17.8291
   -17.8249 -17.8130 -17.8115 -17.8111 -17.8106 -17.8102 -17.8098 -17.7980
   -17.7962 -17.7790 -17.7762 -17.7547 -17.7526 -17.7356 -17.7335 -17.7203
   -17.7194 -17.7124 -17.7123 -12.1946 -11.9603 -11.7276 -11.7173 -11.6655
   -11.5950 -11.5123 -11.5099 -11.4966 -11.4926 -11.4802 -11.4755 -11.4719
   -11.4484 -11.4415 -11.4280 -11.4001 -11.3906 -11.3856 -11.3613 -11.3410
   -11.3346 -11.3297 -11.3118 -11.2984 -11.2902 -11.2856 -11.2692 -11.2562
   -11.2530 -11.2529 -11.2483 -11.2437 -11.2031 -11.2001 -11.1918 -11.1869
   -11.1736 -11.1633 -11.1626 -11.1603 -11.1480 -11.1425 -11.1392 -11.1320
   -11.1185 -11.1063 -11.0888 -11.0655 -11.0627 -11.0456 -11.0356 -10.9936
   -10.9767 -10.9506 -10.9390 -10.9306 -10.9189 -10.8969 -10.8882 -10.8778
   -10.8655 -10.8438 -10.8300 -10.8265 -10.8254 -10.8236 -10.8074 -10.8047
   -10.8041 -10.8028 -10.8028 -10.7972 -10.7941 -10.7896 -10.7889 -10.7844
   -10.7843 -10.7783 -10.7761 -10.7731 -10.7665 -10.7541 -10.7366 -10.7358
   -10.7354 -10.7344 -10.6680 -10.5500 -10.5383 -10.5275 -10.5233 -10.5125
   -10.4785 -10.4471 -10.3843 -10.3486 -10.2713 -10.2434 -10.2056 -10.1796
   -10.1551 -10.1362 -10.1158 -10.1106 -10.1011 -10.0898 -10.0736 -10.0543
   -10.0450 -10.0367 -10.0330 -10.0228 -10.0193 -10.0106 -10.0052 -10.0036
    -9.9725  -9.9408  -9.9376  -9.9192  -9.9141  -9.9093  -9.8984  -9.8925
[...]
     atom  172 type  2   force =     0.00000115   -0.00000051    0.00161397
     atom  173 type  2   force =     0.00000105   -0.00000101   -0.00236207
     atom  174 type  2   force =    -0.00000513   -0.00000107    0.00003449
     atom  175 type  1   force =     0.00000805   -0.00001310   -0.00010596
     atom  176 type  1   force =     0.00016973    0.00006070   -0.00015173
     atom  177 type  2   force =     0.00009480    0.00002181    0.00010195
     atom  178 type  2   force =     0.00000982    0.00000312    0.00005673
     atom  179 type  2   force =     0.00002446    0.00002361    0.00005414
     atom  180 type  2   force =     0.00018422   -0.00003463    0.00015196
     atom  181 type  1   force =     0.00000255   -0.00000093    0.00068494
     atom  182 type  1   force =    -0.00000937   -0.00001072    0.00000382
     atom  183 type  2   force =    -0.00000047   -0.00000199    0.00000174
     atom  184 type  2   force =     0.00000115   -0.00000043    0.00161411
     atom  185 type  2   force =     0.00000094   -0.00000093   -0.00236208
     atom  186 type  2   force =    -0.00000285   -0.00000265    0.00003528
     atom  187 type  1   force =     0.00002420   -0.00002347   -0.00012519
     atom  188 type  1   force =    -0.00012018   -0.00011776   -0.00003314
     atom  189 type  2   force =    -0.00007834   -0.00000731    0.00017622
     atom  190 type  2   force =     0.00002788   -0.00000947    0.00000839
     atom  191 type  2   force =     0.00000066   -0.00002136    0.00001663
     atom  192 type  2   force =     0.00014484    0.00029296    0.00014492
     atom  193 type  3   force =     0.00006640    0.00096548   -0.00065866
     atom  194 type  4   force =    -0.00049678   -0.00054674   -0.00075627
     atom  195 type  4   force =    -0.00068771    0.00010028    0.00045653

     Total force =     0.003164     Total SCF correction =     0.000640
     SCF correction compared to forces is large: reduce conv_thr to get better values
     Energy error            =      2.1E-05 Ry
     Gradient error          =      9.7E-04 Ry/Bohr

     bfgs converged in  36 scf cycles and  35 bfgs steps
     (criteria: energy <  1.0E-04 Ry, force <  1.0E-03 Ry/Bohr)

     End of BFGS Geometry Optimization

     Final energy             =  -34492.2431430969 Ry

     File ./outdir/pwscf.bfgs deleted, as requested
Begin final coordinates

ATOMIC_POSITIONS (angstrom)
Mo               0.0000119917        1.8193638619       -9.1672481230    0   0   0
Mo               1.5756136568        0.9097075315       -3.0554901653    0   0   0
S                0.0000188998        1.8193822938       -4.6232556019    0   0   0
S                1.5756321638        0.9096773839       -7.6014065489    0   0   0
S                1.5756326175        0.9096785128      -10.7330757790    0   0   0
S                0.0000189190        1.8193860094       -1.4877129945    0   0   0
Mo              -0.0003896612        1.8196305034        3.0589936320
Mo               1.5861964898        0.9003313303        9.1698153098
S                0.0036828227        1.8338046527        7.6276320582
S                1.5747953217        0.9098061978        4.6266884665
S                1.5752739921        0.9097305965        1.4912562339
S               -0.0009832441        1.6978838635       10.7968843634
Mo              -1.5756053507        4.5484193819       -9.1672481230    0   0   0
Mo               0.0000378379        3.6387394919       -3.0554952701    0   0   0
S               -1.5755913433        4.5484363582       -4.6232494962    0   0   0
S                0.0000148214        3.6387329039       -7.6014065489    0   0   0
S                0.0000152751        3.6387340328      -10.7330757790    0   0   0
S               -1.5755906502        4.5484413613       -1.4877305502    0   0   0
Mo              -1.5755414366        4.5482834448        3.0590299662
Mo              -0.0112802570        3.6130196350        9.2234387213
S               -1.5594358628        4.5429737024        7.6407664133
S                0.0000415875        3.6390358947        4.6272917239
S               -0.0002483764        3.6386296862        1.4909362547
S               -1.6488331203        4.5743808948       10.7768200502
Mo              -3.1512226931        7.2774749019       -9.1672481230    0   0   0
Mo              -1.5755910988        6.3678216792       -3.0555115988    0   0   0
S               -3.1512162438        7.2774954350       -4.6232578178    0   0   0
S               -1.5756025210        6.3677884239       -7.6014065489    0   0   0
S               -1.5756020673        6.3677895528      -10.7330757790    0   0   0
S               -3.1512127704        7.2774877076       -1.4877200710    0   0   0
Mo              -3.1514192399        7.2770714106        3.0588747349
Mo              -1.5949756144        6.3786405238        9.1887519845
S               -3.1446256073        7.2724581029        7.5917407386
S               -1.5754207917        6.3673472276        4.6271354533
S               -1.5758230348        6.3675072546        1.4910120830
S               -3.1773312141        7.2919762289       10.7397449192
Mo              -4.7268400355       10.0065304219       -9.1672481230    0   0   0
Mo              -3.1512405618        9.0968403586       -3.0554816746    0   0   0
S               -4.7268341792       10.0065523623       -4.6232463762    0   0   0
S               -3.1512198634        9.0968439439       -7.6014065489    0   0   0
S               -3.1512194097        9.0968450728      -10.7330757790    0   0   0
S               -4.7268370797       10.0065537885       -1.4877176751    0   0   0
Mo              -4.7273350848       10.0064510662        3.0589353018
Mo              -3.1505851469        9.0957967210        9.1569167718
S               -4.7260006338       10.0078644291        7.5893622004
S               -3.1516239322        9.0963575682        4.6262700033
S               -3.1517577699        9.0966677273        1.4910521511
S               -4.7191508653        9.9926592681       10.7312278619
Mo               3.1512517547        1.8193638619       -9.1672481230    0   0   0
Mo               4.7269020221        0.9097289540       -3.0554823951    0   0   0
S                3.1512612351        1.8193882564       -4.6232320683    0   0   0
S                4.7268719268        0.9096773839       -7.6014065489    0   0   0
S                4.7268723805        0.9096785128      -10.7330757790    0   0   0
S                3.1512592485        1.8193890201       -1.4877261251    0   0   0
Mo               3.1507426680        1.8194114358        3.0593554867
Mo               4.7326406057        0.9038826179        9.1546585922
S                3.1562049741        1.8126412264        7.5863227855
S                4.7268571711        0.9095274449        4.6262137880
S                4.7262300130        0.9095255085        1.4911885931
S                3.1711207484        1.7979847107       10.7337708972
Mo               1.5756344123        4.5484193819       -9.1672481230    0   0   0
Mo               3.1512756394        3.6387769522       -3.0554814834    0   0   0
S                1.5756504879        4.5484423799       -4.6232390542    0   0   0
S                3.1512545844        3.6387329039       -7.6014065489    0   0   0
S                3.1512550381        3.6387340328      -10.7330757790    0   0   0
S                1.5756466253        4.5484431864       -1.4877251801    0   0   0
Mo               1.5751335780        4.5485106772        3.0588658859
Mo               3.1942464533        3.6154799978        9.1681767719
S                1.5644667567        4.5582800816        7.6727837732
S                3.1503379349        3.6391188753        4.6273414895
S                3.1509404734        3.6386315525        1.4913406923
S                1.6578550712        4.4735715584       10.7681831402
Mo               0.0000170699        7.2774749019       -9.1672481230    0   0   0
Mo               1.5756764447        6.3678236689       -3.0554877708    0   0   0
S                0.0000381981        7.2774979204       -4.6232454413    0   0   0
S                1.5756372420        6.3677884239       -7.6014065489    0   0   0
S                1.5756376957        6.3677895528      -10.7330757790    0   0   0
S                0.0000328088        7.2774946042       -1.4877307940    0   0   0
Mo              -0.0001294289        7.2769352718        3.0589553154
Mo               1.5876563592        6.3862091730        9.2252994306
S                0.0157600060        7.2646823838        7.6445878638
S                1.5750627994        6.3673004752        4.6272647673
S                1.5751924955        6.3675567722        1.4906893046
S               -0.0841709436        7.3498833794       10.7954817929
Mo              -1.5756002725       10.0065304219       -9.1672481230    0   0   0
Mo               0.0000873425        9.0968676911       -3.0554912329    0   0   0
S               -1.5755883952       10.0065504530       -4.6232240150    0   0   0
S                0.0000198996        9.0968439439       -7.6014065489    0   0   0
S                0.0000203533        9.0968450728      -10.7330757790    0   0   0
S               -1.5755859047       10.0065492576       -1.4877362381    0   0   0
Mo              -1.5759731853       10.0061469635        3.0589950650
Mo              -0.0020429139        9.1151314981        9.1673904950
S               -1.5722486929       10.0032410140        7.5857936524
S               -0.0002694824        9.0959788404        4.6269059277
S               -0.0004324213        9.0965440509        1.4911658839
S               -1.5836544180       10.0157458074       10.7307120613
Mo               6.3024915177        1.8193638619       -9.1672481230    0   0   0
Mo               7.8781001445        0.9096521684       -3.0554919963    0   0   0
S                6.3025008696        1.8193826232       -4.6232480596    0   0   0
S                7.8781116898        0.9096773839       -7.6014065489    0   0   0
S                7.8781121435        0.9096785128      -10.7330757790    0   0   0
S                6.3025042007        1.8193849068       -1.4877147524    0   0   0
Mo               6.3022443479        1.8192150575        3.0585857705
Mo               7.8852901779        0.9069974639        9.1623331636
S                6.3126162954        1.8143860015        7.5880353867
S                7.8778875436        0.9095332649        4.6262754099
S                7.8779339514        0.9095237667        1.4910497858
S                6.3092327889        1.8134543219       10.7259389483
Mo               4.7268741753        4.5484193819       -9.1672481230    0   0   0
Mo               6.3024679138        3.6387501714       -3.0554895197    0   0   0
S                4.7268748770        4.5484386753       -4.6232519432    0   0   0
S                6.3024943474        3.6387329039       -7.6014065489    0   0   0
S                6.3024948011        3.6387340328      -10.7330757790    0   0   0
S                4.7268770533        4.5484432419       -1.4877137856    0   0   0
Mo               4.7263446038        4.5483629311        3.0593181238
Mo               6.3118324366        3.6346000833        9.1582823639
S                4.7385031843        4.5481907496        7.5893210412
S                6.3023617716        3.6384144857        4.6262146401
S                6.3019580073        3.6387753784        1.4910464560
S                4.7538954760        4.5413974656       10.7351354965
Mo               3.1512568329        7.2774749019       -9.1672481230    0   0   0
Mo               4.7268384135        6.3678043337       -3.0554959052    0   0   0
S                3.1512606125        7.2774972547       -4.6232589675    0   0   0
S                4.7268770050        6.3677884239       -7.6014065489    0   0   0
S                4.7268774587        6.3677895528      -10.7330757790    0   0   0
S                3.1512629079        7.2774963749       -1.4877081835    0   0   0
Mo               3.1503301289        7.2771273433        3.0588642828
Mo               4.7408712322        6.3622527470        9.1714193266
S                3.1335609128        7.2624282458        7.6358531080
S                4.7258262211        6.3679284262        4.6267701054
S                4.7262472469        6.3675556932        1.4912040782
S                3.2698026993        7.3432947253       10.8242753803
Mo               1.5756394905       10.0065304219       -9.1672481230    0   0   0
Mo               3.1512330605        9.0968514907       -3.0554878870    0   0   0
S                1.5756499830       10.0065443759       -4.6232632674    0   0   0
S                3.1512596626        9.0968439439       -7.6014065489    0   0   0
S                3.1512601163        9.0968450728      -10.7330757790    0   0   0
S                1.5756503041       10.0065459699       -1.4877044377    0   0   0
Mo               1.5751554020       10.0062460041        3.0591232503
Mo               3.1598489651        9.1019230513        9.1705623117
S                1.5831210311       10.0027121699        7.5945754469
S                3.1504464842        9.0961233111        4.6269534625
S                3.1507219854        9.0967665734        1.4912579883
S                1.5795403738       10.0109301767       10.7345574188
Mo               9.4537312807        1.8193638619       -9.1672481230    0   0   0
Mo              11.0293863460        0.9096952246       -3.0554894007    0   0   0
S                9.4537395970        1.8193770750       -4.6232328036    0   0   0
S               11.0293514528        0.9096773839       -7.6014065489    0   0   0
S               11.0293519066        0.9096785128      -10.7330757790    0   0   0
S                9.4537393632        1.8193794783       -1.4877366147    0   0   0
Mo               9.4535280402        1.8194757777        3.0591180510
Mo              11.0292558698        0.8971634745        9.1682459450
S                9.4613397073        1.8183256503        7.5943859725
S               11.0291821891        0.9099751341        4.6270008323
S               11.0289225585        0.9096145810        1.4913008139
S                9.4546836991        1.8116168414       10.7367025654
Mo               7.8781139383        4.5484193819       -9.1672481230    0   0   0
Mo               9.4537539161        3.6387607911       -3.0554933032    0   0   0
S                7.8781175448        4.5484378232       -4.6232366318    0   0   0
S                9.4537341104        3.6387329039       -7.6014065489    0   0   0
S                9.4537345641        3.6387340328      -10.7330757790    0   0   0
S                7.8781194018        4.5484411585       -1.4877377057    0   0   0
Mo               7.8779856209        4.5481943816        3.0588307084
Mo               9.4432475853        3.6318114754        9.1724114033
S                7.8861145432        4.5433220612        7.5904616933
S                9.4540163444        3.6389448149        4.6268567446
S                9.4536509263        3.6387164607        1.4910490096
S                7.8693486526        4.5493275963       10.7336271030
Mo               6.3024965959        7.2774749019       -9.1672481230    0   0   0
Mo               7.8781361655        6.3678242352       -3.0555014130    0   0   0
S                6.3024973331        7.2774953556       -4.6232392528    0   0   0
S                7.8781167680        6.3677884239       -7.6014065489    0   0   0
S                7.8781172217        6.3677895528      -10.7330757790    0   0   0
S                6.3024989866        7.2774929744       -1.4877349119    0   0   0
Mo               6.3019201517        7.2772822292        3.0589680975
Mo               7.8798358035        6.3663760128        9.1579526008
S                6.3013833367        7.2741740647        7.5901895101
S                7.8778382922        6.3674081663        4.6263178290
S                7.8776153515        6.3675813935        1.4910044991
S                6.3190332291        7.2779445824       10.7317241945
Mo               4.7268792535       10.0065304219       -9.1672481230    0   0   0
Mo               6.3025111524        9.0968738021       -3.0554915260    0   0   0
S                4.7268840634       10.0065452125       -4.6232380477    0   0   0
S                6.3024994256        9.0968439439       -7.6014065489    0   0   0
S                6.3024998793        9.0968450728      -10.7330757790    0   0   0
S                4.7268847312       10.0065459141       -1.4877283294    0   0   0
Mo               4.7262323971       10.0064812795        3.0593288285
Mo               6.3052660945        9.0946243711        9.1595423921
S                4.7271586137       10.0032730666        7.5898896936
S                6.3019852212        9.0966581625        4.6263583042
S                6.3018145403        9.0968574866        1.4912534468
S                4.7350174791       10.0004919313       10.7376300753
Pt               1.5732352629        6.3081847367       12.0673976647
Pd               0.0602411210        3.6332214075       12.1629967509
Pd               0.4857804964        5.2680863549       14.1213096214
End final coordinates



     Writing all to output data dir ./outdir/pwscf.save/ :
     XML data file, charge density, pseudopotentials, collected wavefunctions
 
     init_run     :    178.68s CPU    182.29s WALL (       1 calls)
     electrons    :  65514.26s CPU  66290.51s WALL (       6 calls)
     update_pot   :      8.44s CPU      8.74s WALL (       5 calls)
     forces       :    790.41s CPU    804.35s WALL (       6 calls)
     force_dftd3  :      4.15s CPU      4.33s WALL (       6 calls)

     Called by init_run:
     wfcinit      :    154.29s CPU    156.26s WALL (       1 calls)
     potinit      :      1.39s CPU      1.55s WALL (       1 calls)
     hinit0       :     13.29s CPU     13.47s WALL (       1 calls)

     Called by electrons:
     c_bands      :  59242.60s CPU  59797.11s WALL (      87 calls)
     sum_band     :   5609.56s CPU   5722.73s WALL (      87 calls)
     v_of_rho     :     31.63s CPU     35.72s WALL (      88 calls)
     newd         :    558.15s CPU    662.76s WALL (      88 calls)
     PAW_pot      :     80.52s CPU     81.39s WALL (      93 calls)
     mix_rho      :      8.84s CPU     10.24s WALL (      87 calls)
     energy_dftd3 :      2.40s CPU      2.42s WALL (       6 calls)

     Called by c_bands:
     init_us_2    :    186.67s CPU    187.71s WALL (     744 calls)
     init_us_2:cp :    186.67s CPU    187.71s WALL (     744 calls)
     cegterg      :  58412.37s CPU  58958.35s WALL (     383 calls)

     Called by *egterg:
     cdiaghg      :   3451.47s CPU   3572.49s WALL (    5614 calls)
     h_psi        :  28945.71s CPU  29125.85s WALL (    5678 calls)
     s_psi        :   6878.04s CPU   6921.56s WALL (    5678 calls)
     g_psi        :     54.06s CPU     54.25s WALL (    5291 calls)

     Called by h_psi:
     h_psi:calbec :   6634.63s CPU   6657.65s WALL (    5678 calls)
     vloc_psi     :  15279.58s CPU  15356.94s WALL (    5678 calls)
     add_vuspsi   :   6914.44s CPU   6958.98s WALL (    5678 calls)

     General routines
     calbec       :   8934.22s CPU   8964.80s WALL (    6142 calls)
     fft          :     22.78s CPU     26.10s WALL (    1208 calls)
     ffts         :      1.54s CPU      1.67s WALL (     175 calls)
     fftw         :  11310.66s CPU  11367.80s WALL ( 2948608 calls)
     interpolate  :      2.72s CPU      3.00s WALL (      88 calls)
 
     Parallel routines
 
     PWSCF        :     18h31m CPU     18h46m WALL

 
   This run was terminated on:  19:13:33   3May2024            

=------------------------------------------------------------------------------=
   JOB DONE.
=------------------------------------------------------------------------------=
