
     Program PWSCF v.7.2 starts on  7Mar2024 at 22:40:38 

     This program is part of the open-source Quantum ESPRESSO suite
     for quantum simulation of materials; please cite
         "P. Giannozzi et al., J. Phys.:Condens. Matter 21 395502 (2009);
         "P. Giannozzi et al., J. Phys.:Condens. Matter 29 465901 (2017);
         "P. Giannozzi et al., J. Chem. Phys. 152 154105 (2020);
          URL http://www.quantum-espresso.org", 
     in publications or presentations arising from this work. More details at
     http://www.quantum-espresso.org/quote

     Parallel version (MPI), running on    48 processors

     MPI processes distributed on     1 nodes
     975763 MiB available memory on the printing compute node when the environment starts
 
     Waiting for input...
     Reading input from standard input
Warning: card &CELL ignored
Warning: card / ignored

     Current dimensions of program PWSCF are:
     Max number of different atomic species (ntypx) = 10
     Max number of k-points (npk) =  40000
     Max angular momentum in pseudopotentials (lmaxx) =  4
     file O.pbe-n-kjpaw_psl.1.0.0.UPF: wavefunction(s)  2S 2P renormalized
     file N.pbe-n-kjpaw_psl.1.0.0.UPF: wavefunction(s)  2S renormalized
     file C.pbe-n-kjpaw_psl.1.0.0.UPF: wavefunction(s)  2S 2P renormalized
     file H.pbe-kjpaw_psl.1.0.0.UPF: wavefunction(s)  1S renormalized
 
     K-points division:     npool     =       2
     R & G space division:  proc/nbgrp/npool/nimage =      24
     Subspace diagonalization in iterative solution of the eigenvalue problem:
     one sub-group per band group will be used
     ELPA distributed-memory algorithm (size of sub-group:  3*  3 procs)

 
     Parallelization info
     --------------------
     sticks:   dense  smooth     PW     G-vecs:    dense   smooth      PW
     Min         729     262     75                54627    11794    1811
     Max         730     263     76                54629    11796    1814
     Sum       17499    6293   1815              1311071   283067   43503
 
     Using Slab Decomposition
 


     bravais-lattice index     =            0
     lattice parameter (alat)  =       8.9516  a.u.
     unit-cell volume          =    9703.8439 (a.u.)^3
     number of atoms/cell      =          144
     number of atomic types    =            4
     number of electrons       =       440.00
     number of Kohn-Sham states=          264
     kinetic-energy cutoff     =      36.0000  Ry
     charge density cutoff     =     400.0000  Ry
     scf convergence threshold =      1.0E-06
     mixing beta               =       0.2000
     number of iterations used =            8  plain     mixing
     energy convergence thresh.=      1.0E-04
     force convergence thresh. =      1.0E-03
     Exchange-correlation= SLA  PW   PBX  PBC
                           (   1   4   3   4   0   0   0)
     nstep                     =         9999


     celldm(1)=   8.951633  celldm(2)=   0.000000  celldm(3)=   0.000000
     celldm(4)=   0.000000  celldm(5)=   0.000000  celldm(6)=   0.000000

     crystal axes: (cart. coord. in units of alat)
               a(1) = (   1.000000   0.000000   0.000000 )  
               a(2) = (   0.000000   6.850327   0.000000 )  
               a(3) = (  -0.357816   0.000000   1.974812 )  

     reciprocal axes: (cart. coord. in units 2 pi/alat)
               b(1) = (  1.000000  0.000000  0.181190 )  
               b(2) = (  0.000000  0.145978  0.000000 )  
               b(3) = (  0.000000  0.000000  0.506377 )  


     PseudoPot. # 1 for O  read from file:
     ./pseudo/O.pbe-n-kjpaw_psl.1.0.0.UPF
     MD5 check sum: 54880130194cacfd11baed2e72b13d2a
     Pseudo is Projector augmented-wave + core cor, Zval =  6.0
     Generated using 'atomic' code by A. Dal Corso  v.7.2
     Shape of augmentation charge: PSQ
     Using radial grid of 1095 points,  4 beta functions with: 
                l(1) =   0
                l(2) =   0
                l(3) =   1
                l(4) =   1
     Q(r) pseudized with 0 coefficients 


     PseudoPot. # 2 for N  read from file:
     ./pseudo/N.pbe-n-kjpaw_psl.1.0.0.UPF
     MD5 check sum: 6654930a71f78718b13e91073ae2a058
     Pseudo is Projector augmented-wave + core cor, Zval =  5.0
     Generated using 'atomic' code by A. Dal Corso  v.7.2
     Shape of augmentation charge: PSQ
     Using radial grid of 1085 points,  4 beta functions with: 
                l(1) =   0
                l(2) =   0
                l(3) =   1
                l(4) =   1
     Q(r) pseudized with 0 coefficients 


     PseudoPot. # 3 for C  read from file:
     ./pseudo/C.pbe-n-kjpaw_psl.1.0.0.UPF
     MD5 check sum: 6b0792899573946bb42fe395835041da
     Pseudo is Projector augmented-wave + core cor, Zval =  4.0
     Generated using 'atomic' code by A. Dal Corso  v.7.2
     Shape of augmentation charge: PSQ
     Using radial grid of 1073 points,  4 beta functions with: 
                l(1) =   0
                l(2) =   0
                l(3) =   1
                l(4) =   1
     Q(r) pseudized with 0 coefficients 


     PseudoPot. # 4 for H  read from file:
     ./pseudo/H.pbe-kjpaw_psl.1.0.0.UPF
     MD5 check sum: b3cb3c48ee3b58cc53e4d592112d0ca6
     Pseudo is Projector augmented-wave, Zval =  1.0
     Generated using 'atomic' code by A. Dal Corso  v.7.2
     Shape of augmentation charge: PSQ
     Using radial grid of  929 points,  2 beta functions with: 
                l(1) =   0
                l(2) =   0
     Q(r) pseudized with 0 coefficients 


     atomic species   valence    mass     pseudopotential
        O              6.00    15.99900     O ( 1.00)
        N              5.00    14.00700     N ( 1.00)
        C              4.00    12.01100     C ( 1.00)
        H              1.00     1.00800     H ( 1.00)

     No symmetry found



   Cartesian axes

     site n.     atom                  positions (alat units)
         1           O   tau(   1) = (   0.2855836   3.8240582   1.0956256  )
         2           O   tau(   2) = (   0.1776922   0.3988946   1.8665922  )
         3           O   tau(   3) = (   0.3566003   3.0262691   0.8791862  )
         4           O   tau(   4) = (   0.4644917   6.4514327   0.1082197  )
         5           O   tau(   5) = (   0.4213361   4.4777164   1.7797005  )
         6           O   tau(   6) = (   0.0419397   1.0525528   1.1825173  )
         7           O   tau(   7) = (   0.2208478   2.3726108   0.1951114  )
         8           O   tau(   8) = (   0.6002442   5.7977744   0.7922945  )
         9           N   tau(   9) = (   0.3417786   4.1444480   1.4455623  )
        10           N   tau(  10) = (   0.1214972   0.7192844   1.5166555  )
        11           N   tau(  11) = (   0.3004053   2.7058792   0.5292496  )
        12           N   tau(  12) = (   0.5206867   6.1310429   0.4581564  )
        13           C   tau(  13) = (  -0.0006578   3.3363149   1.7200611  )
        14           C   tau(  14) = (   0.4639337   6.7614785   1.2421567  )
        15           C   tau(  15) = (   0.6428417   3.5140123   0.2547507  )
        16           C   tau(  16) = (   0.1782502   0.0888487   0.7326552  )
        17           C   tau(  17) = (  -0.0572204   3.6060807   1.8407221  )
        18           C   tau(  18) = (   0.5204962   0.1809171   1.1214957  )
        19           C   tau(  19) = (   0.6994043   3.2442465   0.1340897  )
        20           C   tau(  20) = (   0.1216877   6.6694101   0.8533162  )
        21           C   tau(  21) = (   0.4394889   3.7002727   0.1165139  )
        22           C   tau(  22) = (   0.3816031   0.2751091   0.8708920  )
        23           C   tau(  23) = (   0.2026951   3.1500545   1.8582980  )
        24           C   tau(  24) = (   0.2605808   6.5752181   1.1039198  )
        25           C   tau(  25) = (   0.3788834   3.9710662   0.2164394  )
        26           C   tau(  26) = (   0.4422086   0.5459026   0.7709666  )
        27           C   tau(  27) = (   0.2633006   2.8792610   1.7583725  )
        28           C   tau(  28) = (   0.1999753   6.3044246   1.2038453  )
        29           C   tau(  29) = (   0.1867717   4.1452015   0.0829421  )
        30           C   tau(  30) = (   0.6343202   0.7200379   0.9044638  )
        31           C   tau(  31) = (   0.4554122   2.7051257   1.8918698  )
        32           C   tau(  32) = (   0.0078637   6.1302893   1.0703480  )
        33           C   tau(  33) = (  -0.3140211   4.0569693   1.8219614  )
        34           C   tau(  34) = (   0.7772970   0.6318057   1.1402564  )
        35           C   tau(  35) = (   0.9562050   2.7933579   0.1528504  )
        36           C   tau(  36) = (  -0.1351131   6.2185215   0.8345555  )
        37           C   tau(  37) = (  -0.2564247   3.7874774   1.7066324  )
        38           C   tau(  38) = (   0.7197005   0.3623138   1.2555854  )
        39           C   tau(  39) = (   0.8986086   3.0628498   0.2681795  )
        40           C   tau(  40) = (  -0.0775166   6.4880134   0.7192265  )
        41           C   tau(  41) = (   0.6062317   3.6992452   1.4574112  )
        42           C   tau(  42) = (  -0.1429559   0.2740816   1.5048066  )
        43           C   tau(  43) = (   0.0359522   3.1510820   0.5174007  )
        44           C   tau(  44) = (   0.7851398   6.5762456   0.4700052  )
        45           C   tau(  45) = (   0.6661135   3.4395493   1.3432670  )
        46           C   tau(  46) = (  -0.2028376   0.0143857   1.6189508  )
        47           C   tau(  47) = (  -0.0239296   3.4107779   0.6315448  )
        48           C   tau(  48) = (   0.8450215   6.8359415   0.3558611  )
        49           C   tau(  49) = (  -0.1391803   3.2618518   1.4718273  )
        50           C   tau(  50) = (   0.6024562   6.6870154   1.4903905  )
        51           C   tau(  51) = (   0.7813642   3.5884754   0.5029846  )
        52           C   tau(  52) = (   0.0397277   0.1633118   0.4844214  )
        53           C   tau(  53) = (   0.4005871   3.8861906   1.3158171  )
        54           C   tau(  54) = (   0.0626887   0.4610270   1.6464007  )
        55           C   tau(  55) = (   0.2415968   2.9641366   0.6589947  )
        56           C   tau(  56) = (   0.5794952   6.3893002   0.3284112  )
        57           C   tau(  57) = (   0.4766388   4.2465863   1.6880692  )
        58           C   tau(  58) = (  -0.0133629   0.8214227   1.2741486  )
        59           C   tau(  59) = (   0.1655451   2.6037409   0.2867427  )
        60           C   tau(  60) = (   0.6555469   6.0289045   0.7006633  )
        61           C   tau(  61) = (   0.1362340   4.3328320   1.3039683  )
        62           C   tau(  62) = (   0.3270418   0.9076684   1.6582495  )
        63           C   tau(  63) = (   0.5059499   2.5174953   0.6708436  )
        64           C   tau(  64) = (   0.3151421   5.9426589   0.3165623  )
        65           C   tau(  65) = (   0.2783286   4.5177908   1.0893062  )
        66           C   tau(  66) = (   0.1849472   1.0926272   1.8729116  )
        67           C   tau(  67) = (   0.3638553   2.3325364   0.8855056  )
        68           C   tau(  68) = (   0.4572367   5.7577000   0.1019003  )
        69           C   tau(  69) = (   0.0642302   4.6808286   0.9171026  )
        70           C   tau(  70) = (   0.7568617   1.2556650   0.0703033  )
        71           C   tau(  71) = (   0.5779537   2.1694986   1.0577092  )
        72           C   tau(  72) = (  -0.1146778   5.5946622   1.9045086  )
        73           C   tau(  73) = (  -0.0598264   4.5630030   0.6850622  )
        74           C   tau(  74) = (   0.8809184   1.1378393   0.3023437  )
        75           C   tau(  75) = (   0.7020103   2.2873243   1.2897496  )
        76           C   tau(  76) = (  -0.2387344   5.7124879   1.6724682  )
        77           C   tau(  77) = (   0.7597851   4.7123401   0.5254974  )
        78           C   tau(  78) = (   0.0613068   1.2871765   0.4619085  )
        79           C   tau(  79) = (  -0.1176012   2.1379871   1.4493144  )
        80           C   tau(  80) = (   0.5808771   5.5631507   1.5129034  )
        81           C   tau(  81) = (   0.6865102   4.9822430   0.5987630  )
        82           C   tau(  82) = (   0.1345818   1.5570794   0.3886430  )
        83           C   tau(  83) = (  -0.0443262   1.8680842   1.3760489  )
        84           C   tau(  84) = (   0.5076021   5.2932478   1.5861689  )
        85           C   tau(  85) = (   0.7981447   5.0993836   0.8325807  )
        86           C   tau(  86) = (   0.0229472   1.6742200   0.1548253  )
        87           C   tau(  87) = (  -0.1559608   1.7509436   1.1422312  )
        88           C   tau(  88) = (   0.6192367   5.1761072   1.8199866  )
        89           C   tau(  89) = (  -0.0169099   4.9493614   0.9929354  )
        90           C   tau(  90) = (   0.4801858   1.5241978   1.9692824  )
        91           C   tau(  91) = (   0.6590938   1.9009658   0.9818765  )
        92           C   tau(  92) = (   0.1619981   5.3261294   0.0055295  )
        93           H   tau(  93) = (   0.4725131   4.0368978   0.3807437  )
        94           H   tau(  94) = (   0.3485789   0.6117342   0.6066622  )
        95           H   tau(  95) = (   0.1696709   2.8134294   1.5940681  )
        96           H   tau(  96) = (   0.2936050   6.2385930   1.3681497  )
        97           H   tau(  97) = (   0.1527683   4.3287218   0.1558127  )
        98           H   tau(  98) = (   0.6683236   0.9035582   0.8315933  )
        99           H   tau(  99) = (   0.4894156   2.5216054   1.8189992  )
       100           H   tau( 100) = (  -0.0261397   5.9467691   1.1432186  )
       101           H   tau( 101) = (   0.5738636   3.3806365   1.1752105  )
       102           H   tau( 102) = (  -0.1105878   6.8058001   1.7870073  )
       103           H   tau( 103) = (   0.0683203   3.4696907   0.7996013  )
       104           H   tau( 104) = (   0.7527717   0.0445271   0.1878046  )
       105           H   tau( 105) = (  -0.0993089   3.0840173   1.3880953  )
       106           H   tau( 106) = (   0.5625848   6.5091809   1.5741225  )
       107           H   tau( 107) = (   0.7414928   3.7663099   0.5867166  )
       108           H   tau( 108) = (   0.0795991   0.3411463   0.4006893  )
       109           H   tau( 109) = (  -0.0020917   4.2204866   1.2119420  )
       110           H   tau( 110) = (   0.4653676   0.7953230   1.7502758  )
       111           H   tau( 111) = (   0.6442756   2.6298406   0.7628698  )
       112           H   tau( 112) = (   0.1768163   6.0550042   0.2245361  )
       113           H   tau( 113) = (   0.0476943   4.4486025   1.4416127  )
       114           H   tau( 114) = (   0.4155816   1.0234389   1.5206051  )
       115           H   tau( 115) = (   0.5944897   2.4017247   0.5331992  )
       116           H   tau( 116) = (   0.2266023   5.8268883   0.4542067  )
       117           H   tau( 117) = (   0.3981893   4.6472620   1.1838997  )
       118           H   tau( 118) = (   0.0650866   1.2220984   1.7783181  )
       119           H   tau( 119) = (   0.2439947   2.2030652   0.7909122  )
       120           H   tau( 120) = (   0.5770973   5.6282288   0.1964938  )
       121           H   tau( 121) = (   0.3874564   4.4027053   0.9660780  )
       122           H   tau( 122) = (   0.4336356   0.9775417   0.0213280  )
       123           H   tau( 123) = (   0.2547275   2.4476219   1.0087339  )
       124           H   tau( 124) = (   0.2085483   5.8727855   1.9534839  )
       125           H   tau( 125) = (  -0.0177883   4.3725639   0.6362844  )
       126           H   tau( 126) = (   0.8388803   0.9474003   0.3511216  )
       127           H   tau( 127) = (   0.6599723   2.4777634   1.3385275  )
       128           H   tau( 128) = (  -0.1966964   5.9029270   1.6236903  )
       129           H   tau( 129) = (   0.6814701   4.6301362   0.3600082  )
       130           H   tau( 130) = (   0.1396218   1.2049726   0.6273977  )
       131           H   tau( 131) = (  -0.0392862   2.2201910   1.6148037  )
       132           H   tau( 132) = (   0.5025621   5.6453547   1.3474141  )
       133           H   tau( 133) = (   0.5585772   5.0870530   0.4858037  )
       134           H   tau( 134) = (   0.2625147   1.6618894   0.5016022  )
       135           H   tau( 135) = (   0.0836067   1.7632742   1.4890081  )
       136           H   tau( 136) = (   0.3796692   5.1884378   1.4732097  )
       137           H   tau( 137) = (   0.7478837   5.2863975   0.8859006  )
       138           H   tau( 138) = (   0.0732083   1.8612339   0.1015053  )
       139           H   tau( 139) = (  -0.1056998   1.5639297   1.0889113  )
       140           H   tau( 140) = (   0.5689757   4.9890933   1.8733065  )
       141           H   tau( 141) = (   0.0593262   5.0315653   1.1594120  )
       142           H   tau( 142) = (   0.4039497   1.6064017   1.8028058  )
       143           H   tau( 143) = (   0.5828577   1.8187619   0.8153998  )
       144           H   tau( 144) = (   0.2382342   5.2439255   0.1720061  )

     --------------------------------------------
     DFT-D3 Dispersion Correction (3-body terms):
     --------------------------------------------
       Reference C6 values for interpolation: 

         atom   Coordination number   C6
         H          0.912             6.05
         H          0.000            15.18
         C          0.000            98.23
         C          0.987            86.49
         C          1.998            58.72
         C          2.999            51.56
         C          3.984            36.41
         N          0.000            50.54
         N          0.994            44.25
         N          2.014            39.35
         N          2.990            31.16
         O          0.000            31.01
         O          0.993            25.63
         O          1.989            20.74

       Values used:

         atom   Coordination number  R0_AB[au]  C6      C8
         O          1.083            2.345     25.48    514.27
         O          1.083            2.345     25.48    514.27
         O          1.083            2.345     25.48    514.27
         O          1.083            2.345     25.48    514.27
         O          1.081            2.345     25.49    514.34
         O          1.081            2.345     25.49    514.34
         O          1.081            2.345     25.49    514.34
         O          1.081            2.345     25.49    514.34
         N          3.193            2.478     31.20    688.26
         N          3.193            2.478     31.20    688.26
         N          3.193            2.478     31.20    688.26
         N          3.193            2.478     31.20    688.26
         C          3.259            2.750     49.28   1425.12
         C          3.259            2.750     49.28   1425.12
         C          3.259            2.750     49.28   1425.12
         C          3.259            2.750     49.28   1425.12
         C          3.334            2.750     47.87   1384.36
         C          3.334            2.750     47.87   1384.36
         C          3.334            2.750     47.87   1384.36
         C          3.334            2.750     47.87   1384.36
         C          3.261            2.750     49.25   1424.26
         C          3.261            2.750     49.25   1424.26
         C          3.261            2.750     49.25   1424.26
         C          3.261            2.750     49.25   1424.26
         C          3.199            2.750     50.06   1447.89
         C          3.199            2.750     50.06   1447.89
         C          3.199            2.750     50.06   1447.89
         C          3.199            2.750     50.06   1447.89
         C          3.200            2.750     50.06   1447.76
         C          3.200            2.750     50.06   1447.76
         C          3.200            2.750     50.06   1447.76
         C          3.200            2.750     50.06   1447.76
         C          3.264            2.750     49.20   1422.92
         C          3.264            2.750     49.20   1422.92
         C          3.264            2.750     49.20   1422.92
         C          3.264            2.750     49.20   1422.92
         C          3.333            2.750     47.88   1384.81
         C          3.333            2.750     47.88   1384.81
         C          3.333            2.750     47.88   1384.81
         C          3.333            2.750     47.88   1384.81
         C          3.263            2.750     49.22   1423.41
         C          3.263            2.750     49.22   1423.41
         C          3.263            2.750     49.22   1423.41
         C          3.263            2.750     49.22   1423.41
         C          3.199            2.750     50.07   1448.15
         C          3.199            2.750     50.07   1448.15
         C          3.199            2.750     50.07   1448.15
         C          3.199            2.750     50.07   1448.15
         C          3.201            2.750     50.05   1447.53
         C          3.201            2.750     50.05   1447.53
         C          3.201            2.750     50.05   1447.53
         C          3.201            2.750     50.05   1447.53
         C          3.195            2.750     50.11   1449.18
         C          3.195            2.750     50.11   1449.18
         C          3.195            2.750     50.11   1449.18
         C          3.195            2.750     50.11   1449.18
         C          3.191            2.750     50.15   1450.44
         C          3.191            2.750     50.15   1450.44
         C          3.191            2.750     50.15   1450.44
         C          3.191            2.750     50.15   1450.44
         C          4.170            2.750     36.48   1054.97
         C          4.170            2.750     36.48   1054.97
         C          4.170            2.750     36.48   1054.97
         C          4.170            2.750     36.48   1054.97
         C          4.133            2.750     36.50   1055.58
         C          4.133            2.750     36.50   1055.58
         C          4.133            2.750     36.50   1055.58
         C          4.133            2.750     36.50   1055.58
         C          3.247            2.750     49.45   1430.32
         C          3.247            2.750     49.45   1430.32
         C          3.247            2.750     49.45   1430.32
         C          3.247            2.750     49.45   1430.32
         C          3.241            2.750     49.54   1432.77
         C          3.241            2.750     49.54   1432.77
         C          3.241            2.750     49.54   1432.77
         C          3.241            2.750     49.54   1432.77
         C          3.213            2.750     49.91   1443.38
         C          3.213            2.750     49.91   1443.38
         C          3.213            2.750     49.91   1443.38
         C          3.213            2.750     49.91   1443.38
         C          3.211            2.750     49.93   1443.95
         C          3.211            2.750     49.93   1443.95
         C          3.211            2.750     49.93   1443.95
         C          3.211            2.750     49.93   1443.95
         C          3.200            2.750     50.06   1447.84
         C          3.200            2.750     50.06   1447.84
         C          3.200            2.750     50.06   1447.84
         C          3.200            2.750     50.06   1447.84
         C          3.244            2.750     49.49   1431.48
         C          3.244            2.750     49.49   1431.48
         C          3.244            2.750     49.49   1431.48
         C          3.244            2.750     49.49   1431.48
         H          1.022            2.062      6.16     74.50
         H          1.022            2.062      6.16     74.50
         H          1.022            2.062      6.16     74.50
         H          1.022            2.062      6.16     74.50
         H          1.022            2.062      6.16     74.49
         H          1.022            2.062      6.16     74.49
         H          1.022            2.062      6.16     74.49
         H          1.022            2.062      6.16     74.49
         H          1.022            2.062      6.16     74.49
         H          1.022            2.062      6.16     74.49
         H          1.022            2.062      6.16     74.49
         H          1.022            2.062      6.16     74.49
         H          1.021            2.062      6.16     74.50
         H          1.021            2.062      6.16     74.50
         H          1.021            2.062      6.16     74.50
         H          1.021            2.062      6.16     74.50
         H          1.022            2.062      6.16     74.49
         H          1.022            2.062      6.16     74.49
         H          1.022            2.062      6.16     74.49
         H          1.022            2.062      6.16     74.49
         H          1.021            2.062      6.16     74.50
         H          1.021            2.062      6.16     74.50
         H          1.021            2.062      6.16     74.50
         H          1.021            2.062      6.16     74.50
         H          1.023            2.062      6.16     74.49
         H          1.023            2.062      6.16     74.49
         H          1.023            2.062      6.16     74.49
         H          1.023            2.062      6.16     74.49
         H          1.023            2.062      6.16     74.49
         H          1.023            2.062      6.16     74.49
         H          1.023            2.062      6.16     74.49
         H          1.023            2.062      6.16     74.49
         H          1.024            2.062      6.16     74.48
         H          1.024            2.062      6.16     74.48
         H          1.024            2.062      6.16     74.48
         H          1.024            2.062      6.16     74.48
         H          1.023            2.062      6.16     74.49
         H          1.023            2.062      6.16     74.49
         H          1.023            2.062      6.16     74.49
         H          1.023            2.062      6.16     74.49
         H          1.022            2.062      6.16     74.49
         H          1.022            2.062      6.16     74.49
         H          1.022            2.062      6.16     74.49
         H          1.022            2.062      6.16     74.49
         H          1.022            2.062      6.16     74.49
         H          1.022            2.062      6.16     74.49
         H          1.022            2.062      6.16     74.49
         H          1.022            2.062      6.16     74.49
         H          1.022            2.062      6.16     74.49
         H          1.022            2.062      6.16     74.49
         H          1.022            2.062      6.16     74.49
         H          1.022            2.062      6.16     74.49

         Molecular C6 ( Ry / a.u.^6 ) =    555833.78


     number of k points=     8  Gaussian smearing, width (Ry)=  0.0100
                       cart. coord. in units 2pi/alat
        k(    1) = (   0.0000000   0.0000000   0.0000000), wk =   0.2500000
        k(    2) = (   0.0000000   0.0000000  -0.2531887), wk =   0.2500000
        k(    3) = (   0.0000000  -0.0729892   0.0000000), wk =   0.2500000
        k(    4) = (   0.0000000  -0.0729892  -0.2531887), wk =   0.2500000
        k(    5) = (  -0.5000000   0.0000000  -0.0905950), wk =   0.2500000
        k(    6) = (  -0.5000000   0.0000000  -0.3437837), wk =   0.2500000
        k(    7) = (  -0.5000000  -0.0729892  -0.0905950), wk =   0.2500000
        k(    8) = (  -0.5000000  -0.0729892  -0.3437837), wk =   0.2500000

     Dense  grid:  1311071 G-vectors     FFT dimensions: (  60, 400, 120)

     Smooth grid:   283067 G-vectors     FFT dimensions: (  36, 240,  72)

     Estimated max dynamical RAM per process >     203.64 MB

     Estimated total dynamical RAM >       9.23 GB

     Check: negative core charge=   -0.000005

     Initial potential from superposition of free atoms

     starting charge     439.9961, renormalised to     440.0000
     Starting wfcs are  420 randomized atomic wfcs
     Checking if some PAW data can be deallocated... 

     total cpu time spent up to now is        7.2 secs

     Self-consistent Calculation

     iteration #  1     ecut=    36.00 Ry     beta= 0.20
     Davidson diagonalization with overlap
     ethr =  1.00E-02,  avg # of iterations =  2.2

     total cpu time spent up to now is       15.4 secs

     total energy              =   -1983.92750898 Ry
     estimated scf accuracy    <      19.06919855 Ry

     iteration #  2     ecut=    36.00 Ry     beta= 0.20
     Davidson diagonalization with overlap
     ethr =  4.33E-03,  avg # of iterations =  1.5

     total cpu time spent up to now is       20.7 secs

     total energy              =   -1979.82108712 Ry
     estimated scf accuracy    <       8.97770252 Ry

     iteration #  3     ecut=    36.00 Ry     beta= 0.20
     Davidson diagonalization with overlap
     ethr =  2.04E-03,  avg # of iterations =  6.1

     total cpu time spent up to now is       28.8 secs

     total energy              =   -1981.08848430 Ry
     estimated scf accuracy    <       0.82605305 Ry

     iteration #  4     ecut=    36.00 Ry     beta= 0.20
     Davidson diagonalization with overlap
     ethr =  1.88E-04,  avg # of iterations = 11.4

     total cpu time spent up to now is       36.8 secs

     total energy              =   -1981.05246398 Ry
     estimated scf accuracy    <       0.31128098 Ry

     iteration #  5     ecut=    36.00 Ry     beta= 0.20
     Davidson diagonalization with overlap
     ethr =  7.07E-05,  avg # of iterations =  4.2

     total cpu time spent up to now is       44.5 secs

     total energy              =   -1981.09238981 Ry
     estimated scf accuracy    <       0.03651458 Ry

     iteration #  6     ecut=    36.00 Ry     beta= 0.20
     Davidson diagonalization with overlap
     ethr =  8.30E-06,  avg # of iterations = 12.5

     total cpu time spent up to now is       53.6 secs

     total energy              =   -1981.09487599 Ry
     estimated scf accuracy    <       0.01447179 Ry

     iteration #  7     ecut=    36.00 Ry     beta= 0.20
     Davidson diagonalization with overlap
     ethr =  3.29E-06,  avg # of iterations =  4.6

     total cpu time spent up to now is       60.3 secs

     total energy              =   -1981.09655744 Ry
     estimated scf accuracy    <       0.00294741 Ry

     iteration #  8     ecut=    36.00 Ry     beta= 0.20
     Davidson diagonalization with overlap
     ethr =  6.70E-07,  avg # of iterations =  4.0

     total cpu time spent up to now is       66.3 secs

     total energy              =   -1981.09674939 Ry
     estimated scf accuracy    <       0.00071399 Ry

     iteration #  9     ecut=    36.00 Ry     beta= 0.20
     Davidson diagonalization with overlap
     ethr =  1.62E-07,  avg # of iterations =  2.2

     total cpu time spent up to now is       72.2 secs

     total energy              =   -1981.09688357 Ry
     estimated scf accuracy    <       0.00020390 Ry

     iteration # 10     ecut=    36.00 Ry     beta= 0.20
     Davidson diagonalization with overlap
     ethr =  4.63E-08,  avg # of iterations =  4.0

     total cpu time spent up to now is       78.7 secs

     total energy              =   -1981.09693657 Ry
     estimated scf accuracy    <       0.00007960 Ry

     iteration # 11     ecut=    36.00 Ry     beta= 0.20
     Davidson diagonalization with overlap
     ethr =  1.81E-08,  avg # of iterations =  4.0

     total cpu time spent up to now is       85.7 secs

     total energy              =   -1981.09697897 Ry
     estimated scf accuracy    <       0.00002487 Ry

     iteration # 12     ecut=    36.00 Ry     beta= 0.20
     Davidson diagonalization with overlap
     ethr =  5.65E-09,  avg # of iterations =  2.0

     total cpu time spent up to now is       91.1 secs

     total energy              =   -1981.09699945 Ry
     estimated scf accuracy    <       0.00000247 Ry

     iteration # 13     ecut=    36.00 Ry     beta= 0.20
     Davidson diagonalization with overlap
     ethr =  5.62E-10,  avg # of iterations =  5.0

     total cpu time spent up to now is       99.1 secs

     End of self-consistent calculation

          k = 0.0000 0.0000 0.0000 ( 35455 PWs)   bands (ev):

   -20.4427 -20.4427 -20.4404 -20.4403 -19.9785 -19.9785 -19.9751 -19.9751
   -17.1950 -17.1949 -17.1862 -17.1861 -16.5258 -16.5258 -15.8434 -15.8433
   -15.1248 -15.1248 -14.9873 -14.9737 -14.9631 -14.9488 -14.5615 -14.5614
   -14.4626 -14.4616 -13.6132 -13.6111 -13.3678 -13.3650 -12.9817 -12.9815
   -12.9246 -12.9234 -12.7987 -12.7970 -12.5272 -12.5272 -12.0709 -12.0689
   -12.0657 -12.0583 -11.7975 -11.7905 -11.7653 -11.7461 -11.6190 -11.5946
   -10.7813 -10.7799 -10.4642 -10.4521 -10.0914 -10.0895 -10.0481 -10.0480
   -10.0350 -10.0224  -9.6453  -9.6447  -9.4977  -9.4932  -9.2295  -9.2294
    -9.0560  -9.0556  -8.5769  -8.5739  -8.5330  -8.5291  -8.4919  -8.4899
    -8.0844  -8.0749  -8.0374  -8.0147  -7.9874  -7.9758  -7.4569  -7.4564
    -7.3985  -7.3967  -7.1290  -7.1244  -6.7330  -6.6884  -6.6803  -6.6347
    -6.6243  -6.4445  -6.4416  -6.3588  -6.2635  -6.2579  -5.7467  -5.7359
    -5.7251  -5.7249  -5.5287  -5.4927  -5.4217  -5.3923  -5.2731  -5.2211
    -5.1405  -5.1010  -5.0681  -5.0510  -5.0439  -5.0342  -4.9971  -4.9905
    -4.7287  -4.7197  -4.6651  -4.6483  -4.6135  -4.5472  -4.5075  -4.4129
    -4.3528  -4.2847  -4.2537  -4.2484  -4.1529  -4.1393  -4.1052  -4.0847
    -4.0757  -4.0747  -3.9889  -3.9868  -3.8850  -3.8639  -3.8609  -3.8531
    -3.7803  -3.7790  -3.7581  -3.7055  -3.7040  -3.6518  -3.6195  -3.6183
    -3.5048  -3.4892  -3.4840  -3.4773  -3.4439  -3.4285  -3.4224  -3.3963
    -3.3436  -3.3426  -3.3117  -3.2761  -3.2046  -3.1309  -3.0955  -3.0309
    -2.9828  -2.9192  -2.5766  -2.5674  -2.4727  -2.4696  -2.3986  -2.3936
    -2.3691  -2.3626  -2.2709  -2.2488  -2.2354  -2.1484  -2.1480  -2.0922
    -2.0210  -2.0189  -2.0050  -2.0027  -1.7060  -1.7034  -1.4798  -1.4737
    -1.3493  -1.3318  -1.2912  -1.2899  -1.2632  -1.2625  -0.8164  -0.8156
    -0.7089  -0.7067  -0.3544  -0.3321  -0.3318  -0.3290  -0.2915  -0.2685
    -0.1624  -0.1618  -0.1448  -0.1441  -0.1214  -0.1184   0.3126   0.3149
     0.3664   0.3679   0.4330   0.4443   0.4829   0.4949   0.5845   0.5851
     0.6231   0.6263   0.8091   0.8107   2.6596   2.6598   3.9569   3.9578
     4.0992   4.0999   4.2753   4.2777   4.8403   4.8415   5.2288   5.2292
     5.4218   5.4519   5.5377   5.5650   5.6683   5.6754   5.8583   5.8821
     5.9678   5.9701   6.1605   6.1785   6.4291   6.4921   6.5993   6.7841
     7.0035   7.0947   7.0949   7.1328   7.1573   7.2748   7.4999   7.6031
     7.7385   7.7730   8.0235   8.0493   8.1937   8.2481   8.2618   8.3437

          k = 0.0000 0.0000-0.2532 ( 35444 PWs)   bands (ev):

   -20.4425 -20.4425 -20.4405 -20.4405 -19.9786 -19.9786 -19.9751 -19.9750
   -17.1953 -17.1953 -17.1870 -17.1870 -16.5230 -16.5230 -15.8478 -15.8478
   -15.1286 -15.1286 -14.9751 -14.9751 -14.9589 -14.9589 -14.5532 -14.5532
   -14.4597 -14.4597 -13.6167 -13.6167 -13.3646 -13.3646 -12.9807 -12.9807
   -12.9129 -12.9129 -12.7980 -12.7980 -12.5471 -12.5471 -12.0673 -12.0673
   -12.0631 -12.0630 -11.7958 -11.7958 -11.7537 -11.7537 -11.6054 -11.6054
   -10.8369 -10.8369 -10.4548 -10.4548 -10.0661 -10.0661 -10.0256 -10.0256
    -9.9999  -9.9999  -9.6205  -9.6205  -9.5002  -9.5002  -9.2509  -9.2509
    -9.0535  -9.0535  -8.5542  -8.5542  -8.5515  -8.5515  -8.5049  -8.5049
    -8.0629  -8.0629  -8.0447  -8.0447  -7.9837  -7.9837  -7.4689  -7.4689
    -7.3903  -7.3903  -7.1090  -7.1090  -6.6923  -6.6923  -6.6100  -6.6100
    -6.5444  -6.5444  -6.4783  -6.4783  -6.2823  -6.2823  -5.7652  -5.7652
    -5.7482  -5.7482  -5.4713  -5.4713  -5.4077  -5.4077  -5.1698  -5.1698
    -5.1340  -5.1340  -5.0664  -5.0664  -5.0427  -5.0427  -5.0116  -5.0116
    -4.7549  -4.7549  -4.7017  -4.7017  -4.6171  -4.6171  -4.4148  -4.4148
    -4.3082  -4.3082  -4.2963  -4.2963  -4.1343  -4.1343  -4.1019  -4.1019
    -3.9877  -3.9877  -3.9476  -3.9476  -3.8735  -3.8735  -3.8411  -3.8410
    -3.7646  -3.7646  -3.7255  -3.7255  -3.6688  -3.6688  -3.6257  -3.6257
    -3.5857  -3.5857  -3.4724  -3.4724  -3.4519  -3.4519  -3.4052  -3.4052
    -3.3430  -3.3430  -3.2608  -3.2608  -3.1379  -3.1379  -3.0755  -3.0755
    -2.9282  -2.9282  -2.5400  -2.5400  -2.4611  -2.4611  -2.4042  -2.4042
    -2.3651  -2.3651  -2.2460  -2.2460  -2.2032  -2.2032  -2.1428  -2.1428
    -2.0721  -2.0721  -2.0602  -2.0602  -1.7385  -1.7385  -1.4303  -1.4303
    -1.4225  -1.4225  -1.2657  -1.2657  -1.2570  -1.2570  -0.7468  -0.7467
    -0.6834  -0.6834  -0.3360  -0.3359  -0.3132  -0.3132  -0.2476  -0.2476
    -0.1986  -0.1986  -0.1746  -0.1746  -0.1149  -0.1149   0.3183   0.3184
     0.3670   0.3670   0.4440   0.4440   0.4514   0.4514   0.6229   0.6229
     0.6258   0.6258   0.8163   0.8163   2.7163   2.7163   3.9074   3.9074
     4.0835   4.0835   4.2504   4.2504   4.8540   4.8540   5.0576   5.0576
     5.4531   5.4531   5.6113   5.6113   5.6260   5.6260   5.9389   5.9389
     6.0070   6.0070   6.0285   6.0285   6.7772   6.7772   6.8157   6.8157
     6.9364   6.9364   7.0660   7.0661   7.2070   7.2070   7.3017   7.3017
     7.4569   7.4570   7.8508   7.8508   8.0682   8.0682   8.2459   8.2460

          k = 0.0000-0.0730 0.0000 ( 35446 PWs)   bands (ev):

   -20.4427 -20.4427 -20.4404 -20.4404 -19.9786 -19.9785 -19.9751 -19.9750
   -17.1950 -17.1950 -17.1861 -17.1861 -16.5258 -16.5258 -15.8433 -15.8433
   -15.1248 -15.1248 -14.9824 -14.9823 -14.9541 -14.9541 -14.5614 -14.5614
   -14.4621 -14.4621 -13.6122 -13.6122 -13.3664 -13.3664 -12.9816 -12.9816
   -12.9240 -12.9240 -12.7979 -12.7979 -12.5272 -12.5272 -12.0703 -12.0702
   -12.0618 -12.0617 -11.7931 -11.7931 -11.7575 -11.7575 -11.6058 -11.6058
   -10.7806 -10.7806 -10.4581 -10.4581 -10.0906 -10.0906 -10.0480 -10.0480
   -10.0286 -10.0286  -9.6450  -9.6450  -9.4954  -9.4954  -9.2295  -9.2295
    -9.0558  -9.0558  -8.5754  -8.5754  -8.5310  -8.5310  -8.4908  -8.4908
    -8.0804  -8.0803  -8.0265  -8.0264  -7.9804  -7.9804  -7.4567  -7.4567
    -7.3976  -7.3976  -7.1267  -7.1267  -6.7047  -6.7047  -6.6839  -6.6839
    -6.5332  -6.5332  -6.3810  -6.3809  -6.2605  -6.2605  -5.7374  -5.7373
    -5.7294  -5.7294  -5.5117  -5.5117  -5.4070  -5.4070  -5.2472  -5.2472
    -5.1216  -5.1216  -5.0586  -5.0586  -5.0382  -5.0382  -4.9936  -4.9936
    -4.7241  -4.7240  -4.6595  -4.6595  -4.5807  -4.5807  -4.4659  -4.4659
    -4.3132  -4.3131  -4.2476  -4.2476  -4.1473  -4.1472  -4.0994  -4.0994
    -4.0694  -4.0693  -3.9878  -3.9878  -3.8731  -3.8731  -3.8581  -3.8581
    -3.7831  -3.7830  -3.7339  -3.7339  -3.6802  -3.6802  -3.6102  -3.6101
    -3.4970  -3.4970  -3.4824  -3.4824  -3.4338  -3.4338  -3.4116  -3.4116
    -3.3436  -3.3436  -3.3018  -3.3018  -3.1520  -3.1520  -3.0802  -3.0802
    -2.9406  -2.9406  -2.5722  -2.5722  -2.4708  -2.4708  -2.3964  -2.3964
    -2.3654  -2.3654  -2.2659  -2.2658  -2.1985  -2.1985  -2.1076  -2.1076
    -2.0199  -2.0199  -2.0039  -2.0039  -1.7044  -1.7044  -1.4770  -1.4769
    -1.3407  -1.3406  -1.2906  -1.2905  -1.2630  -1.2629  -0.8160  -0.8160
    -0.7077  -0.7077  -0.3440  -0.3439  -0.3318  -0.3318  -0.2779  -0.2778
    -0.1625  -0.1624  -0.1441  -0.1441  -0.1199  -0.1199   0.3140   0.3141
     0.3674   0.3674   0.4381   0.4382   0.4894   0.4895   0.5848   0.5849
     0.6246   0.6247   0.8101   0.8101   2.6597   2.6597   3.9576   3.9576
     4.0997   4.0997   4.2766   4.2766   4.8409   4.8410   5.2293   5.2293
     5.4349   5.4349   5.5534   5.5535   5.6718   5.6719   5.8699   5.8699
     5.9691   5.9691   6.1698   6.1699   6.4521   6.4521   6.6854   6.6854
     7.0947   7.0947   7.1068   7.1068   7.1790   7.1790   7.5631   7.5631
     7.7601   7.7602   8.0365   8.0365   8.2154   8.2156   8.2885   8.2886

          k = 0.0000-0.0730-0.2532 ( 35436 PWs)   bands (ev):

   -20.4425 -20.4425 -20.4405 -20.4405 -19.9786 -19.9786 -19.9751 -19.9750
   -17.1953 -17.1952 -17.1870 -17.1870 -16.5230 -16.5230 -15.8478 -15.8478
   -15.1286 -15.1286 -14.9751 -14.9751 -14.9589 -14.9589 -14.5532 -14.5532
   -14.4597 -14.4597 -13.6167 -13.6167 -13.3646 -13.3646 -12.9807 -12.9806
   -12.9129 -12.9129 -12.7980 -12.7980 -12.5471 -12.5471 -12.0674 -12.0674
   -12.0629 -12.0629 -11.7958 -11.7958 -11.7536 -11.7536 -11.6054 -11.6054
   -10.8369 -10.8369 -10.4548 -10.4548 -10.0662 -10.0662 -10.0257 -10.0257
   -10.0000 -10.0000  -9.6204  -9.6204  -9.5003  -9.5003  -9.2509  -9.2509
    -9.0534  -9.0534  -8.5556  -8.5556  -8.5499  -8.5499  -8.5052  -8.5052
    -8.0627  -8.0627  -8.0447  -8.0447  -7.9837  -7.9837  -7.4689  -7.4689
    -7.3903  -7.3903  -7.1090  -7.1090  -6.6915  -6.6915  -6.6128  -6.6128
    -6.5415  -6.5415  -6.4793  -6.4793  -6.2823  -6.2823  -5.7576  -5.7576
    -5.7559  -5.7559  -5.4709  -5.4709  -5.4073  -5.4072  -5.1614  -5.1613
    -5.1455  -5.1455  -5.0652  -5.0652  -5.0420  -5.0420  -5.0117  -5.0117
    -4.7499  -4.7499  -4.7013  -4.7013  -4.6241  -4.6241  -4.4079  -4.4079
    -4.3153  -4.3152  -4.2958  -4.2958  -4.1201  -4.1201  -4.1131  -4.1131
    -3.9882  -3.9882  -3.9442  -3.9442  -3.8694  -3.8694  -3.8582  -3.8582
    -3.7489  -3.7489  -3.7120  -3.7120  -3.6968  -3.6968  -3.6084  -3.6084
    -3.5941  -3.5941  -3.4732  -3.4732  -3.4510  -3.4510  -3.4051  -3.4051
    -3.3427  -3.3427  -3.2600  -3.2600  -3.1403  -3.1403  -3.0740  -3.0740
    -2.9283  -2.9282  -2.5399  -2.5399  -2.4611  -2.4611  -2.4039  -2.4039
    -2.3651  -2.3651  -2.2461  -2.2461  -2.2032  -2.2032  -2.1428  -2.1428
    -2.0717  -2.0717  -2.0605  -2.0605  -1.7385  -1.7385  -1.4308  -1.4308
    -1.4217  -1.4217  -1.2698  -1.2698  -1.2532  -1.2532  -0.7469  -0.7469
    -0.6834  -0.6834  -0.3359  -0.3359  -0.3135  -0.3135  -0.2475  -0.2475
    -0.1987  -0.1987  -0.1749  -0.1749  -0.1149  -0.1149   0.3184   0.3185
     0.3680   0.3680   0.4430   0.4430   0.4522   0.4522   0.6228   0.6228
     0.6259   0.6259   0.8164   0.8164   2.7161   2.7161   3.9071   3.9071
     4.0834   4.0834   4.2505   4.2505   4.8541   4.8541   5.0577   5.0577
     5.4531   5.4531   5.6086   5.6086   5.6285   5.6285   5.9388   5.9388
     6.0072   6.0072   6.0283   6.0283   6.7783   6.7783   6.8138   6.8138
     6.9414   6.9414   7.0547   7.0547   7.2173   7.2173   7.3005   7.3005
     7.4591   7.4591   7.8210   7.8210   8.1395   8.1395   8.2170   8.2171

          k =-0.5000 0.0000-0.0906 ( 35280 PWs)   bands (ev):

   -20.4293 -20.4293 -20.4274 -20.4272 -19.9731 -19.9730 -19.9698 -19.9697
   -17.1630 -17.1629 -17.1603 -17.1603 -16.4114 -16.4114 -15.8884 -15.8884
   -15.0282 -15.0282 -14.9152 -14.9114 -14.8924 -14.8872 -14.5980 -14.5955
   -14.5553 -14.5552 -13.7029 -13.6938 -13.4048 -13.3912 -13.0773 -13.0773
   -12.8769 -12.8673 -12.8572 -12.8557 -12.5799 -12.5799 -12.0445 -12.0408
   -12.0292 -12.0249 -11.8630 -11.8623 -11.8329 -11.8154 -11.6516 -11.6351
   -10.7745 -10.7739 -10.5034 -10.5019 -10.0963 -10.0961 -10.0949 -10.0905
   -10.0604 -10.0604  -9.6373  -9.6356  -9.5128  -9.5080  -9.2426  -9.2397
    -9.0942  -9.0939  -8.6072  -8.5992  -8.5828  -8.5760  -8.4471  -8.4468
    -8.0576  -8.0538  -8.0321  -8.0273  -8.0029  -8.0026  -7.5128  -7.5124
    -7.3847  -7.3829  -7.1116  -7.1077  -6.6863  -6.6787  -6.6742  -6.6316
    -6.5385  -6.5319  -6.4768  -6.4340  -6.2815  -6.2799  -5.7475  -5.7413
    -5.7316  -5.7272  -5.7259  -5.7105  -5.4855  -5.4812  -5.4325  -5.4159
    -5.4017  -5.3713  -5.1716  -5.1441  -5.0430  -5.0413  -5.0233  -4.9895
    -4.7945  -4.7402  -4.7335  -4.6881  -4.6663  -4.6510  -4.4960  -4.4790
    -4.4787  -4.4381  -4.3298  -4.2959  -4.2330  -4.1901  -4.1575  -4.1295
    -4.1033  -4.0988  -4.0961  -4.0489  -3.8970  -3.8752  -3.8545  -3.8295
    -3.7984  -3.7715  -3.7294  -3.7283  -3.7195  -3.7055  -3.6953  -3.6430
    -3.6312  -3.6171  -3.6034  -3.5925  -3.4693  -3.4678  -3.3740  -3.3653
    -3.3485  -3.3422  -3.3118  -3.2333  -3.1444  -3.0905  -2.9525  -2.9234
    -2.8833  -2.8701  -2.7980  -2.7805  -2.5641  -2.5571  -2.4401  -2.4363
    -2.4356  -2.4281  -2.1920  -2.1610  -2.1301  -2.1067  -2.0332  -2.0257
    -1.7087  -1.7070  -1.6721  -1.6539  -1.4947  -1.4599  -1.4247  -1.3449
    -1.3188  -1.2920  -1.2813  -1.2599  -1.2550  -1.2283  -0.8382  -0.8342
    -0.4848  -0.4727  -0.2091  -0.2017  -0.1989  -0.1837  -0.1307  -0.1230
    -0.0729  -0.0597  -0.0445  -0.0395   0.1994   0.2007   0.2824   0.3077
     0.3100   0.3401   0.3600   0.3690   0.3783   0.3932   0.9917   0.9941
     1.0675   1.0705   1.2869   1.2875   2.4707   2.4715   3.7050   3.7068
     4.0598   4.0612   4.7122   4.7122   5.0229   5.0343   5.1517   5.1529
     5.2170   5.2247   5.5174   5.5483   5.8811   5.8891   6.0241   6.0357
     6.2216   6.2347   6.2898   6.2913   6.7984   6.7999   7.6029   7.6482
     7.6544   7.7044   7.7383   7.7416   7.9637   7.9837   8.1705   8.1861
     8.2159   8.2474   8.3868   8.4391   8.4474   8.4968   8.5418   8.5847

          k =-0.5000 0.0000-0.3438 ( 35354 PWs)   bands (ev):

   -20.4293 -20.4293 -20.4274 -20.4274 -19.9731 -19.9730 -19.9699 -19.9698
   -17.1619 -17.1619 -17.1612 -17.1612 -16.4129 -16.4129 -15.8841 -15.8841
   -15.0194 -15.0194 -14.9120 -14.9120 -14.8915 -14.8915 -14.6022 -14.6021
   -14.5734 -14.5734 -13.7004 -13.7004 -13.3980 -13.3980 -13.0641 -13.0640
   -12.8691 -12.8691 -12.8688 -12.8688 -12.5527 -12.5527 -12.0357 -12.0357
   -12.0321 -12.0321 -11.8596 -11.8596 -11.8270 -11.8270 -11.6476 -11.6476
   -10.7891 -10.7891 -10.5038 -10.5038 -10.1198 -10.1198 -10.0991 -10.0990
   -10.0175 -10.0175  -9.6349  -9.6348  -9.5060  -9.5060  -9.2878  -9.2878
    -9.0911  -9.0911  -8.5979  -8.5979  -8.5956  -8.5956  -8.4484  -8.4484
    -8.0431  -8.0431  -8.0400  -8.0400  -7.9982  -7.9982  -7.4734  -7.4734
    -7.3941  -7.3941  -7.1046  -7.1046  -6.7165  -6.7165  -6.6484  -6.6484
    -6.5110  -6.5110  -6.4219  -6.4219  -6.3004  -6.3004  -5.7870  -5.7870
    -5.7149  -5.7149  -5.6916  -5.6916  -5.4615  -5.4615  -5.4318  -5.4318
    -5.3718  -5.3718  -5.1069  -5.1069  -5.0586  -5.0586  -5.0363  -5.0362
    -4.7426  -4.7426  -4.7250  -4.7250  -4.6591  -4.6591  -4.4812  -4.4812
    -4.3977  -4.3977  -4.3631  -4.3631  -4.2934  -4.2933  -4.1513  -4.1513
    -4.1051  -4.1051  -4.0120  -4.0120  -3.9317  -3.9317  -3.8745  -3.8745
    -3.7925  -3.7925  -3.7310  -3.7310  -3.7057  -3.7057  -3.6644  -3.6644
    -3.6297  -3.6297  -3.6035  -3.6035  -3.5545  -3.5545  -3.3795  -3.3795
    -3.3430  -3.3430  -3.2610  -3.2609  -3.0915  -3.0915  -2.9206  -2.9206
    -2.8864  -2.8864  -2.7739  -2.7739  -2.5442  -2.5442  -2.4123  -2.4123
    -2.3460  -2.3460  -2.1673  -2.1673  -2.1405  -2.1405  -2.0666  -2.0665
    -1.7464  -1.7464  -1.6372  -1.6372  -1.4330  -1.4330  -1.4086  -1.4086
    -1.3254  -1.3254  -1.2694  -1.2694  -1.2484  -1.2484  -0.6923  -0.6923
    -0.5207  -0.5207  -0.2420  -0.2420  -0.1623  -0.1622  -0.1216  -0.1216
    -0.0910  -0.0910  -0.0489  -0.0489   0.1468   0.1468   0.2900   0.2900
     0.3190   0.3190   0.3573   0.3573   0.3862   0.3862   1.0376   1.0376
     1.0393   1.0393   1.2938   1.2938   2.3337   2.3337   3.7543   3.7543
     4.1666   4.1666   4.7486   4.7486   5.0227   5.0227   5.1495   5.1495
     5.2697   5.2697   5.6984   5.6984   5.7129   5.7129   6.1430   6.1430
     6.1519   6.1519   6.2384   6.2384   6.6987   6.6987   7.5751   7.5751
     7.6107   7.6107   7.6851   7.6852   8.0447   8.0447   8.0812   8.0813
     8.3369   8.3370   8.3807   8.3808   8.5212   8.5215   8.5471   8.5473

          k =-0.5000-0.0730-0.0906 ( 35280 PWs)   bands (ev):

   -20.4293 -20.4293 -20.4273 -20.4273 -19.9731 -19.9730 -19.9698 -19.9697
   -17.1629 -17.1629 -17.1603 -17.1603 -16.4114 -16.4114 -15.8884 -15.8884
   -15.0282 -15.0282 -14.9135 -14.9135 -14.8896 -14.8896 -14.5967 -14.5967
   -14.5552 -14.5552 -13.6985 -13.6985 -13.3979 -13.3979 -13.0773 -13.0773
   -12.8723 -12.8723 -12.8562 -12.8562 -12.5799 -12.5799 -12.0429 -12.0428
   -12.0268 -12.0267 -11.8626 -11.8626 -11.8246 -11.8246 -11.6430 -11.6430
   -10.7742 -10.7742 -10.5026 -10.5026 -10.0964 -10.0963 -10.0926 -10.0926
   -10.0603 -10.0603  -9.6364  -9.6364  -9.5104  -9.5104  -9.2412  -9.2412
    -9.0941  -9.0941  -8.6037  -8.6036  -8.5789  -8.5788  -8.4470  -8.4470
    -8.0560  -8.0559  -8.0295  -8.0294  -8.0028  -8.0028  -7.5126  -7.5126
    -7.3839  -7.3839  -7.1096  -7.1096  -6.6845  -6.6845  -6.6538  -6.6538
    -6.5325  -6.5325  -6.4553  -6.4553  -6.2806  -6.2806  -5.7391  -5.7391
    -5.7355  -5.7355  -5.7174  -5.7174  -5.4842  -5.4842  -5.4234  -5.4234
    -5.3866  -5.3866  -5.1581  -5.1581  -5.0342  -5.0342  -5.0173  -5.0173
    -4.7617  -4.7617  -4.7103  -4.7103  -4.6623  -4.6622  -4.4977  -4.4977
    -4.4448  -4.4448  -4.3293  -4.3292  -4.1897  -4.1897  -4.1272  -4.1272
    -4.1137  -4.1137  -4.0887  -4.0887  -3.8889  -3.8889  -3.8360  -3.8359
    -3.7794  -3.7794  -3.7274  -3.7273  -3.7198  -3.7198  -3.6689  -3.6689
    -3.6205  -3.6205  -3.6021  -3.6021  -3.4696  -3.4696  -3.3640  -3.3640
    -3.3330  -3.3330  -3.2991  -3.2990  -3.1019  -3.1019  -2.9469  -2.9469
    -2.8717  -2.8717  -2.7893  -2.7893  -2.5606  -2.5606  -2.4381  -2.4380
    -2.4320  -2.4319  -2.1795  -2.1795  -2.1153  -2.1152  -2.0293  -2.0293
    -1.7078  -1.7078  -1.6631  -1.6631  -1.4827  -1.4826  -1.3858  -1.3857
    -1.3024  -1.3024  -1.2683  -1.2682  -1.2407  -1.2406  -0.8362  -0.8362
    -0.4785  -0.4785  -0.2070  -0.2070  -0.1901  -0.1901  -0.1267  -0.1267
    -0.0670  -0.0670  -0.0412  -0.0412   0.2001   0.2001   0.2893   0.2893
     0.3309   0.3309   0.3621   0.3621   0.3879   0.3880   0.9928   0.9928
     1.0690   1.0691   1.2874   1.2874   2.4711   2.4711   3.7060   3.7060
     4.0606   4.0606   4.7121   4.7121   5.0286   5.0286   5.1524   5.1524
     5.2205   5.2205   5.5330   5.5331   5.8851   5.8852   6.0298   6.0299
     6.2285   6.2285   6.2905   6.2906   6.7992   6.7992   7.6171   7.6172
     7.6864   7.6864   7.7420   7.7420   7.9703   7.9704   8.1942   8.1943
     8.2193   8.2194   8.3939   8.3939   8.4916   8.4917   8.5593   8.5598

          k =-0.5000-0.0730-0.3438 ( 35372 PWs)   bands (ev):

   -20.4293 -20.4293 -20.4274 -20.4274 -19.9731 -19.9731 -19.9699 -19.9699
   -17.1619 -17.1619 -17.1612 -17.1612 -16.4129 -16.4129 -15.8841 -15.8841
   -15.0194 -15.0194 -14.9120 -14.9120 -14.8915 -14.8915 -14.6022 -14.6022
   -14.5734 -14.5734 -13.7004 -13.7004 -13.3980 -13.3980 -13.0641 -13.0641
   -12.8690 -12.8690 -12.8690 -12.8690 -12.5527 -12.5527 -12.0358 -12.0357
   -12.0320 -12.0320 -11.8597 -11.8597 -11.8269 -11.8269 -11.6476 -11.6476
   -10.7891 -10.7891 -10.5038 -10.5038 -10.1199 -10.1199 -10.0991 -10.0991
   -10.0175 -10.0175  -9.6348  -9.6348  -9.5060  -9.5060  -9.2878  -9.2878
    -9.0911  -9.0911  -8.5985  -8.5985  -8.5949  -8.5949  -8.4484  -8.4484
    -8.0432  -8.0432  -8.0401  -8.0401  -7.9982  -7.9982  -7.4733  -7.4733
    -7.3942  -7.3942  -7.1045  -7.1045  -6.7157  -6.7157  -6.6501  -6.6501
    -6.5095  -6.5095  -6.4226  -6.4226  -6.3006  -6.3006  -5.7867  -5.7867
    -5.7157  -5.7157  -5.6915  -5.6915  -5.4601  -5.4601  -5.4330  -5.4330
    -5.3721  -5.3721  -5.1039  -5.1038  -5.0510  -5.0510  -5.0481  -5.0481
    -4.7417  -4.7417  -4.7101  -4.7100  -4.6801  -4.6801  -4.4678  -4.4678
    -4.3853  -4.3853  -4.3819  -4.3819  -4.2981  -4.2981  -4.1395  -4.1395
    -4.1125  -4.1125  -4.0119  -4.0119  -3.9279  -3.9278  -3.8871  -3.8870
    -3.7731  -3.7731  -3.7462  -3.7462  -3.6914  -3.6914  -3.6755  -3.6755
    -3.6375  -3.6375  -3.5935  -3.5935  -3.5555  -3.5555  -3.3811  -3.3810
    -3.3431  -3.3431  -3.2600  -3.2600  -3.0921  -3.0921  -2.9193  -2.9193
    -2.8875  -2.8875  -2.7739  -2.7739  -2.5442  -2.5442  -2.4120  -2.4120
    -2.3465  -2.3465  -2.1670  -2.1670  -2.1409  -2.1409  -2.0668  -2.0668
    -1.7464  -1.7464  -1.6371  -1.6371  -1.4329  -1.4329  -1.4088  -1.4088
    -1.3258  -1.3258  -1.2687  -1.2687  -1.2493  -1.2492  -0.6924  -0.6924
    -0.5208  -0.5208  -0.2420  -0.2420  -0.1628  -0.1628  -0.1212  -0.1211
    -0.0914  -0.0914  -0.0488  -0.0488   0.1470   0.1470   0.2896   0.2897
     0.3190   0.3190   0.3570   0.3570   0.3860   0.3860   1.0375   1.0375
     1.0394   1.0394   1.2938   1.2938   2.3338   2.3338   3.7542   3.7542
     4.1670   4.1670   4.7486   4.7486   5.0228   5.0228   5.1496   5.1496
     5.2697   5.2697   5.6970   5.6970   5.7142   5.7142   6.1426   6.1426
     6.1524   6.1524   6.2383   6.2383   6.6987   6.6987   7.5727   7.5727
     7.6153   7.6153   7.6826   7.6826   8.0512   8.0512   8.0742   8.0742
     8.3526   8.3527   8.3644   8.3644   8.5255   8.5257   8.5429   8.5431

     the Fermi energy is     1.8183 ev

!    total energy              =   -1981.09703317 Ry
     total all-electron energy =     -7798.194903 Ry
     estimated scf accuracy    <       0.00000075 Ry
     smearing contrib. (-TS)   =      -0.00000000 Ry
     internal energy E=F+TS    =   -1981.09703316 Ry

     The total energy is F=E-TS. E is the sum of the following terms:
     one-electron contribution =   -1489.34609760 Ry
     hartree contribution      =     911.26770185 Ry
     xc contribution           =    -496.91838448 Ry
     ewald contribution        =    -303.02715398 Ry
     DFT-D3 Dispersion         =      -0.82692742 Ry
     one-center paw contrib.   =    -602.24617153 Ry

     convergence has been achieved in  13 iterations

     Forces acting on atoms (cartesian axes, Ry/au):

     atom    1 type  1   force =    -0.03355615   -0.01882885   -0.06442360
     atom    2 type  1   force =     0.03355727   -0.01883162    0.06442378
     atom    3 type  1   force =     0.03355912    0.01883112    0.06442449
     atom    4 type  1   force =    -0.03355173    0.01882664   -0.06441359
     atom    5 type  1   force =    -0.01873655    0.07880942    0.03138444
     atom    6 type  1   force =     0.01873816    0.07882551   -0.03139156
     atom    7 type  1   force =     0.01873924   -0.07882235   -0.03139115
     atom    8 type  1   force =    -0.01873551   -0.07880720    0.03138428
     atom    9 type  2   force =    -0.00727074    0.00449385    0.00132544
     atom   10 type  2   force =     0.00727096    0.00449556   -0.00132779
     atom   11 type  2   force =     0.00727112   -0.00449603   -0.00132756
     atom   12 type  2   force =    -0.00727132   -0.00449516    0.00132725
     atom   13 type  3   force =     0.00466496    0.00511200    0.00760165
     atom   14 type  3   force =    -0.00466518    0.00511019   -0.00760061
     atom   15 type  3   force =    -0.00466535   -0.00511104   -0.00760109
     atom   16 type  3   force =     0.00466489   -0.00511179    0.00760147
     atom   17 type  3   force =     0.00418926   -0.00013391    0.00581592
     atom   18 type  3   force =    -0.00418881   -0.00013258   -0.00581601
     atom   19 type  3   force =    -0.00418906    0.00013276   -0.00581608
     atom   20 type  3   force =     0.00418981    0.00013436    0.00581602
     atom   21 type  3   force =    -0.00253671   -0.00382561   -0.00821263
     atom   22 type  3   force =     0.00253572   -0.00382568    0.00821169
     atom   23 type  3   force =     0.00253578    0.00382601    0.00821196
     atom   24 type  3   force =    -0.00253655    0.00382506   -0.00821221
     atom   25 type  3   force =    -0.10577570   -0.11036647   -0.20796060
     atom   26 type  3   force =     0.10577588   -0.11036473    0.20795985
     atom   27 type  3   force =     0.10577562    0.11036509    0.20795981
     atom   28 type  3   force =    -0.10577603    0.11036662   -0.20796104
     atom   29 type  3   force =     0.04125354   -0.22365381   -0.08483631
     atom   30 type  3   force =    -0.04125490   -0.22365447    0.08483536
     atom   31 type  3   force =    -0.04125461    0.22365436    0.08483541
     atom   32 type  3   force =     0.04125384    0.22365326   -0.08483563
     atom   33 type  3   force =    -0.00983730   -0.01357328   -0.02754218
     atom   34 type  3   force =     0.00983784   -0.01357246    0.02754287
     atom   35 type  3   force =     0.00983734    0.01357294    0.02754214
     atom   36 type  3   force =    -0.00983727    0.01357301   -0.02754233
     atom   37 type  3   force =    -0.00159981    0.00472870    0.00368260
     atom   38 type  3   force =     0.00160089    0.00472900   -0.00368113
     atom   39 type  3   force =     0.00160039   -0.00472892   -0.00368199
     atom   40 type  3   force =    -0.00160035   -0.00472804    0.00368124
     atom   41 type  3   force =    -0.00478878    0.02189612    0.01004692
     atom   42 type  3   force =     0.00478972    0.02189795   -0.01004671
     atom   43 type  3   force =     0.00478942   -0.02189773   -0.01004684
     atom   44 type  3   force =    -0.00478835   -0.02189575    0.01004676
     atom   45 type  3   force =     0.12112141    0.06658779    0.20859416
     atom   46 type  3   force =    -0.12112302    0.06658816   -0.20859620
     atom   47 type  3   force =    -0.12112248   -0.06658802   -0.20859541
     atom   48 type  3   force =     0.12112127   -0.06658889    0.20859466
     atom   49 type  3   force =    -0.04326032    0.22164828    0.11653839
     atom   50 type  3   force =     0.04326114    0.22164796   -0.11653669
     atom   51 type  3   force =     0.04326041   -0.22164768   -0.11653739
     atom   52 type  3   force =    -0.04326087   -0.22164900    0.11653820
     atom   53 type  3   force =     0.02794907    0.01176247    0.04820789
     atom   54 type  3   force =    -0.02795262    0.01175836   -0.04820748
     atom   55 type  3   force =    -0.02795110   -0.01175773   -0.04820659
     atom   56 type  3   force =     0.02795035   -0.01176145    0.04820795
     atom   57 type  3   force =     0.01907585   -0.06827230   -0.02250969
     atom   58 type  3   force =    -0.01907776   -0.06827516    0.02251003
     atom   59 type  3   force =    -0.01907693    0.06827437    0.02250913
     atom   60 type  3   force =     0.01907530    0.06827294   -0.02251144
     atom   61 type  3   force =     0.28536547   -0.02048458   -0.04375700
     atom   62 type  3   force =    -0.28536529   -0.02048408    0.04375677
     atom   63 type  3   force =    -0.28536499    0.02048385    0.04375748
     atom   64 type  3   force =     0.28536661    0.02048525   -0.04375631
     atom   65 type  3   force =    -0.29389431   -0.00057637    0.00847466
     atom   66 type  3   force =     0.29389318   -0.00057668   -0.00847437
     atom   67 type  3   force =     0.29389329    0.00057659   -0.00847436
     atom   68 type  3   force =    -0.29389400    0.00057645    0.00847449
     atom   69 type  3   force =     0.02755474   -0.01024311    0.04617333
     atom   70 type  3   force =    -0.02755495   -0.01024325   -0.04617299
     atom   71 type  3   force =    -0.02755503    0.01024314   -0.04617297
     atom   72 type  3   force =     0.02755460    0.01024327    0.04617316
     atom   73 type  3   force =    -0.01412938    0.16793305    0.06810889
     atom   74 type  3   force =     0.01412929    0.16793280   -0.06810844
     atom   75 type  3   force =     0.01412936   -0.16793287   -0.06810851
     atom   76 type  3   force =    -0.01412932   -0.16793314    0.06810900
     atom   77 type  3   force =     0.04524359    0.10932074    0.14516588
     atom   78 type  3   force =    -0.04524392    0.10932051   -0.14516571
     atom   79 type  3   force =    -0.04524377   -0.10932077   -0.14516573
     atom   80 type  3   force =     0.04524360   -0.10932085    0.14516595
     atom   81 type  3   force =     0.12840859   -0.12436696    0.09007557
     atom   82 type  3   force =    -0.12840877   -0.12436674   -0.09007541
     atom   83 type  3   force =    -0.12840877    0.12436648   -0.09007538
     atom   84 type  3   force =     0.12840859    0.12436669    0.09007570
     atom   85 type  3   force =     0.05451605   -0.17646616   -0.03330170
     atom   86 type  3   force =    -0.05451635   -0.17646608    0.03330179
     atom   87 type  3   force =    -0.05451637    0.17646587    0.03330173
     atom   88 type  3   force =     0.05451592    0.17646616   -0.03330203
     atom   89 type  3   force =    -0.05708893   -0.10719656   -0.16384351
     atom   90 type  3   force =     0.05708895   -0.10719590    0.16384342
     atom   91 type  3   force =     0.05708895    0.10719574    0.16384345
     atom   92 type  3   force =    -0.05708886    0.10719641   -0.16384347
     atom   93 type  4   force =     0.13069372    0.09605641    0.23110273
     atom   94 type  4   force =    -0.13069344    0.09605603   -0.23110184
     atom   95 type  4   force =    -0.13069377   -0.09605628   -0.23110237
     atom   96 type  4   force =     0.13069349   -0.09605633    0.23110245
     atom   97 type  4   force =    -0.04913270    0.25878903    0.10131351
     atom   98 type  4   force =     0.04913262    0.25878943   -0.10131365
     atom   99 type  4   force =     0.04913259   -0.25878970   -0.10131375
     atom  100 type  4   force =    -0.04913265   -0.25878863    0.10131341
     atom  101 type  4   force =    -0.12936644   -0.08245883   -0.23428567
     atom  102 type  4   force =     0.12936670   -0.08245908    0.23428626
     atom  103 type  4   force =     0.12936683    0.08245906    0.23428669
     atom  104 type  4   force =    -0.12936631    0.08245830   -0.23428497
     atom  105 type  4   force =     0.05209763   -0.24497687   -0.11972058
     atom  106 type  4   force =    -0.05209729   -0.24497499    0.11971993
     atom  107 type  4   force =    -0.05209764    0.24497585    0.11972030
     atom  108 type  4   force =     0.05209747    0.24497655   -0.11972053
     atom  109 type  4   force =    -0.18896945   -0.17003153   -0.12614622
     atom  110 type  4   force =     0.18896976   -0.17003228    0.12614678
     atom  111 type  4   force =     0.18896968    0.17003207    0.12614683
     atom  112 type  4   force =    -0.18896927    0.17003187   -0.12614631
     atom  113 type  4   force =    -0.11890173    0.15905409    0.20476723
     atom  114 type  4   force =     0.11890187    0.15905453   -0.20476789
     atom  115 type  4   force =     0.11890192   -0.15905481   -0.20476796
     atom  116 type  4   force =    -0.11890145   -0.15905402    0.20476763
     atom  117 type  4   force =     0.17633947    0.18774796    0.13565733
     atom  118 type  4   force =    -0.17634018    0.18774851   -0.13565753
     atom  119 type  4   force =    -0.17634025   -0.18774860   -0.13565758
     atom  120 type  4   force =     0.17633947   -0.18774813    0.13565728
     atom  121 type  4   force =     0.15283669   -0.16010955   -0.17419884
     atom  122 type  4   force =    -0.15283717   -0.16010998    0.17419919
     atom  123 type  4   force =    -0.15283715    0.16010988    0.17419925
     atom  124 type  4   force =     0.15283660    0.16010951   -0.17419884
     atom  125 type  4   force =     0.06317657   -0.26079239   -0.06935394
     atom  126 type  4   force =    -0.06317692   -0.26079310    0.06935414
     atom  127 type  4   force =    -0.06317692    0.26079307    0.06935416
     atom  128 type  4   force =     0.06317657    0.26079231   -0.06935389
     atom  129 type  4   force =    -0.11030184   -0.11443007   -0.23083748
     atom  130 type  4   force =     0.11030187   -0.11443047    0.23083823
     atom  131 type  4   force =     0.11030189    0.11443036    0.23083827
     atom  132 type  4   force =    -0.11030184    0.11443006   -0.23083750
     atom  133 type  4   force =    -0.18082503    0.14565313   -0.16114652
     atom  134 type  4   force =     0.18082529    0.14565359    0.16114708
     atom  135 type  4   force =     0.18082525   -0.14565365    0.16114707
     atom  136 type  4   force =    -0.18082483   -0.14565307   -0.16114630
     atom  137 type  4   force =    -0.06970759    0.25730472    0.07435192
     atom  138 type  4   force =     0.06970750    0.25730534   -0.07435200
     atom  139 type  4   force =     0.06970749   -0.25730545   -0.07435202
     atom  140 type  4   force =    -0.06970758   -0.25730468    0.07435188
     atom  141 type  4   force =     0.10823085    0.11592211    0.22989103
     atom  142 type  4   force =    -0.10823136    0.11592252   -0.22989157
     atom  143 type  4   force =    -0.10823136   -0.11592257   -0.22989159
     atom  144 type  4   force =     0.10823091   -0.11592228    0.22989115
     The non-local contrib.  to forces
     atom    1 type  1   force =     1.12519666    0.66492165    2.21013302
     atom    2 type  1   force =    -1.12519123    0.66492350   -2.21013675
     atom    3 type  1   force =    -1.12518960   -0.66492295   -2.21013704
     atom    4 type  1   force =     1.12519750   -0.66492529    2.21014398
     atom    5 type  1   force =     0.54030978   -2.36368396   -0.96435359
     atom    6 type  1   force =    -0.54030963   -2.36366584    0.96434953
     atom    7 type  1   force =    -0.54030710    2.36367228    0.96434821
     atom    8 type  1   force =     0.54030919    2.36368261   -0.96435564
     atom    9 type  2   force =     0.11235927   -0.02920664   -0.00409368
     atom   10 type  2   force =    -0.11236116   -0.02920021    0.00408953
     atom   11 type  2   force =    -0.11235998    0.02920324    0.00409055
     atom   12 type  2   force =     0.11236147    0.02920489   -0.00409324
     atom   13 type  3   force =     0.05861533    0.00759404    0.08425378
     atom   14 type  3   force =    -0.05861233    0.00759554   -0.08425128
     atom   15 type  3   force =    -0.05861329   -0.00759651   -0.08425278
     atom   16 type  3   force =     0.05861549   -0.00759260    0.08425219
     atom   17 type  3   force =    -0.00830843    0.01191962   -0.00007210
     atom   18 type  3   force =     0.00831033    0.01192572    0.00007213
     atom   19 type  3   force =     0.00830996   -0.01192497    0.00007174
     atom   20 type  3   force =    -0.00830836   -0.01191937   -0.00007208
     atom   21 type  3   force =     0.03110778   -0.07849379   -0.02425997
     atom   22 type  3   force =    -0.03110679   -0.07848889    0.02425775
     atom   23 type  3   force =    -0.03110707    0.07849018    0.02425863
     atom   24 type  3   force =     0.03110794    0.07849281   -0.02425910
     atom   25 type  3   force =    -0.09383733   -0.12471764   -0.19899162
     atom   26 type  3   force =     0.09383832   -0.12471416    0.19899006
     atom   27 type  3   force =     0.09383743    0.12471544    0.19899001
     atom   28 type  3   force =    -0.09383782    0.12471693   -0.19899158
     atom   29 type  3   force =     0.04083517   -0.25584786   -0.10058494
     atom   30 type  3   force =    -0.04083517   -0.25584518    0.10058390
     atom   31 type  3   force =    -0.04083546    0.25584588    0.10058361
     atom   32 type  3   force =     0.04083592    0.25584764   -0.10058406
     atom   33 type  3   force =    -0.06934259   -0.00861708   -0.10502785
     atom   34 type  3   force =     0.06934436   -0.00861423    0.10502967
     atom   35 type  3   force =     0.06934259    0.00861606    0.10502837
     atom   36 type  3   force =    -0.06934348    0.00861599   -0.10502910
     atom   37 type  3   force =     0.00552240    0.00156107    0.00837224
     atom   38 type  3   force =    -0.00551981    0.00156507   -0.00837052
     atom   39 type  3   force =    -0.00552104   -0.00156363   -0.00837171
     atom   40 type  3   force =     0.00552155   -0.00156014    0.00836964
     atom   41 type  3   force =    -0.05169755    0.12516257    0.02223623
     atom   42 type  3   force =     0.05169812    0.12516542   -0.02223681
     atom   43 type  3   force =     0.05169814   -0.12516512   -0.02223780
     atom   44 type  3   force =    -0.05169581   -0.12516011    0.02223583
     atom   45 type  3   force =     0.14832730    0.09572229    0.27232080
     atom   46 type  3   force =    -0.14832778    0.09572584   -0.27232303
     atom   47 type  3   force =    -0.14832663   -0.09572439   -0.27232107
     atom   48 type  3   force =     0.14832778   -0.09572400    0.27232252
     atom   49 type  3   force =    -0.02860049    0.21377642    0.13739999
     atom   50 type  3   force =     0.02860332    0.21377832   -0.13739763
     atom   51 type  3   force =     0.02860198   -0.21377747   -0.13739910
     atom   52 type  3   force =    -0.02860149   -0.21377708    0.13739853
     atom   53 type  3   force =    -0.09281345    0.23888999    0.06320376
     atom   54 type  3   force =     0.09280946    0.23889289   -0.06321001
     atom   55 type  3   force =     0.09280977   -0.23889147   -0.06320641
     atom   56 type  3   force =    -0.09280507   -0.23889398    0.06321647
     atom   57 type  3   force =    -0.14201641   -0.05442787   -0.21792345
     atom   58 type  3   force =     0.14201951   -0.05442376    0.21792319
     atom   59 type  3   force =     0.14201695    0.05442677    0.21792401
     atom   60 type  3   force =    -0.14201847    0.05442832   -0.21792868
     atom   61 type  3   force =     0.57096904   -0.26061170    0.12433063
     atom   62 type  3   force =    -0.57096908   -0.26061029   -0.12433182
     atom   63 type  3   force =    -0.57096832    0.26061041   -0.12433096
     atom   64 type  3   force =     0.57097194    0.26061417    0.12433303
     atom   65 type  3   force =    -0.37006780   -0.03351663    0.04090219
     atom   66 type  3   force =     0.37006751   -0.03351616   -0.04090240
     atom   67 type  3   force =     0.37006713    0.03351611   -0.04090237
     atom   68 type  3   force =    -0.37006856    0.03351712    0.04090294
     atom   69 type  3   force =     0.08265772   -0.07278125    0.09372191
     atom   70 type  3   force =    -0.08265794   -0.07278069   -0.09372216
     atom   71 type  3   force =    -0.08265792    0.07278023   -0.09372193
     atom   72 type  3   force =     0.08265814    0.07278181    0.09372241
     atom   73 type  3   force =    -0.00161845    0.09376470    0.05513076
     atom   74 type  3   force =     0.00161891    0.09376574   -0.05513089
     atom   75 type  3   force =     0.00161909   -0.09376566   -0.05513060
     atom   76 type  3   force =    -0.00161837   -0.09376486    0.05513115
     atom   77 type  3   force =     0.04273481    0.07883071    0.11767917
     atom   78 type  3   force =    -0.04273480    0.07883097   -0.11767850
     atom   79 type  3   force =    -0.04273469   -0.07883139   -0.11767866
     atom   80 type  3   force =     0.04273500   -0.07883174    0.11767950
     atom   81 type  3   force =     0.10257558   -0.11213493    0.05824577
     atom   82 type  3   force =    -0.10257551   -0.11213443   -0.05824587
     atom   83 type  3   force =    -0.10257513    0.11213414   -0.05824593
     atom   84 type  3   force =     0.10257551    0.11213430    0.05824587
     atom   85 type  3   force =     0.06585576   -0.16768635   -0.02163864
     atom   86 type  3   force =    -0.06585538   -0.16768547    0.02163847
     atom   87 type  3   force =    -0.06585510    0.16768496    0.02163819
     atom   88 type  3   force =     0.06585530    0.16768587   -0.02163908
     atom   89 type  3   force =    -0.03882463   -0.09851753   -0.12122853
     atom   90 type  3   force =     0.03882452   -0.09851649    0.12122821
     atom   91 type  3   force =     0.03882491    0.09851615    0.12122819
     atom   92 type  3   force =    -0.03882442    0.09851762   -0.12122888
     atom   93 type  4   force =    -0.05436098   -0.03891747   -0.09615970
     atom   94 type  4   force =     0.05436065   -0.03891726    0.09615908
     atom   95 type  4   force =     0.05436065    0.03891727    0.09615910
     atom   96 type  4   force =    -0.05436102    0.03891750   -0.09615976
     atom   97 type  4   force =     0.02046588   -0.10916450   -0.04227006
     atom   98 type  4   force =    -0.02046569   -0.10916361    0.04226971
     atom   99 type  4   force =    -0.02046571    0.10916368    0.04226973
     atom  100 type  4   force =     0.02046589    0.10916453   -0.04227006
     atom  101 type  4   force =     0.05572909    0.03525048    0.10040850
     atom  102 type  4   force =    -0.05572913    0.03525046   -0.10040862
     atom  103 type  4   force =    -0.05572908   -0.03525043   -0.10040853
     atom  104 type  4   force =     0.05572909   -0.03525051    0.10040854
     atom  105 type  4   force =    -0.02303363    0.10323456    0.04973615
     atom  106 type  4   force =     0.02303374    0.10323490   -0.04973630
     atom  107 type  4   force =     0.02303371   -0.10323481   -0.04973628
     atom  108 type  4   force =    -0.02303364   -0.10323458    0.04973615
     atom  109 type  4   force =     0.08144778    0.06407673    0.05489107
     atom  110 type  4   force =    -0.08144729    0.06407632   -0.05489072
     atom  111 type  4   force =    -0.08144731   -0.06407633   -0.05489072
     atom  112 type  4   force =     0.08144782   -0.06407673    0.05489109
     atom  113 type  4   force =     0.05269458   -0.06938112   -0.07972478
     atom  114 type  4   force =    -0.05269418   -0.06938058    0.07972414
     atom  115 type  4   force =    -0.05269421    0.06938062    0.07972418
     atom  116 type  4   force =     0.05269461    0.06938114   -0.07972474
     atom  117 type  4   force =    -0.06971240   -0.07481575   -0.05359789
     atom  118 type  4   force =     0.06971188   -0.07481519    0.05359750
     atom  119 type  4   force =     0.06971190    0.07481521    0.05359751
     atom  120 type  4   force =    -0.06971242    0.07481575   -0.05359790
     atom  121 type  4   force =    -0.06272592    0.06413206    0.07009356
     atom  122 type  4   force =     0.06272552    0.06413162   -0.07009311
     atom  123 type  4   force =     0.06272553   -0.06413163   -0.07009311
     atom  124 type  4   force =    -0.06272595   -0.06413207    0.07009359
     atom  125 type  4   force =    -0.02323874    0.10765793    0.02720622
     atom  126 type  4   force =     0.02323860    0.10765725   -0.02720607
     atom  127 type  4   force =     0.02323861   -0.10765727   -0.02720607
     atom  128 type  4   force =    -0.02323876   -0.10765801    0.02720625
     atom  129 type  4   force =     0.04470672    0.04668379    0.09607466
     atom  130 type  4   force =    -0.04470638    0.04668342   -0.09607393
     atom  131 type  4   force =    -0.04470639   -0.04668343   -0.09607396
     atom  132 type  4   force =     0.04470675   -0.04668381    0.09607472
     atom  133 type  4   force =     0.07398723   -0.06094533    0.06493112
     atom  134 type  4   force =    -0.07398664   -0.06094484   -0.06493060
     atom  135 type  4   force =    -0.07398663    0.06094483   -0.06493059
     atom  136 type  4   force =     0.07398722    0.06094532    0.06493112
     atom  137 type  4   force =     0.02931774   -0.10883361   -0.03039286
     atom  138 type  4   force =    -0.02931750   -0.10883270    0.03039260
     atom  139 type  4   force =    -0.02931749    0.10883267    0.03039259
     atom  140 type  4   force =     0.02931774    0.10883358   -0.03039285
     atom  141 type  4   force =    -0.04298919   -0.04740536   -0.09551040
     atom  142 type  4   force =     0.04298886   -0.04740497    0.09550965
     atom  143 type  4   force =     0.04298886    0.04740498    0.09550966
     atom  144 type  4   force =    -0.04298919    0.04740536   -0.09551041
     The ionic contribution  to forces
     atom    1 type  1   force =    -4.66153380   -0.33366138  -13.89133576
     atom    2 type  1   force =     4.66153380   -0.33366138   13.89133577
     atom    3 type  1   force =     4.66153380    0.33366138   13.89133576
     atom    4 type  1   force =    -4.66153380    0.33366138  -13.89133577
     atom    5 type  1   force =    -2.12745424   19.31417863    6.48936248
     atom    6 type  1   force =     2.12745424   19.31417863   -6.48936248
     atom    7 type  1   force =     2.12745424  -19.31417863   -6.48936248
     atom    8 type  1   force =    -2.12745424  -19.31417863    6.48936248
     atom    9 type  2   force =    -1.01319969    5.69653830   -1.58637661
     atom   10 type  2   force =     1.01319969    5.69653830    1.58637661
     atom   11 type  2   force =     1.01319969   -5.69653830    1.58637661
     atom   12 type  2   force =    -1.01319969   -5.69653830   -1.58637661
     atom   13 type  3   force =     0.33750552   -2.87567404   -2.18387704
     atom   14 type  3   force =    -0.33750552   -2.87567404    2.18387704
     atom   15 type  3   force =    -0.33750552    2.87567404    2.18387704
     atom   16 type  3   force =     0.33750552    2.87567404   -2.18387704
     atom   17 type  3   force =     0.13116007    0.80719614    0.09940176
     atom   18 type  3   force =    -0.13116007    0.80719614   -0.09940176
     atom   19 type  3   force =    -0.13116007   -0.80719614   -0.09940176
     atom   20 type  3   force =     0.13116007   -0.80719614    0.09940176
     atom   21 type  3   force =     0.46674630    2.93828957    2.91736243
     atom   22 type  3   force =    -0.46674630    2.93828957   -2.91736243
     atom   23 type  3   force =    -0.46674630   -2.93828957   -2.91736243
     atom   24 type  3   force =     0.46674630   -2.93828957    2.91736243
     atom   25 type  3   force =     1.12333975    6.20358635    5.54453994
     atom   26 type  3   force =    -1.12333975    6.20358635   -5.54453994
     atom   27 type  3   force =    -1.12333975   -6.20358635   -5.54453994
     atom   28 type  3   force =     1.12333975   -6.20358635    5.54453994
     atom   29 type  3   force =     0.11979020    8.14731456    4.43646759
     atom   30 type  3   force =    -0.11979020    8.14731456   -4.43646759
     atom   31 type  3   force =    -0.11979020   -8.14731456   -4.43646759
     atom   32 type  3   force =     0.11979020   -8.14731456    4.43646759
     atom   33 type  3   force =    -0.07382953    5.31257660    1.62068531
     atom   34 type  3   force =     0.07382953    5.31257660   -1.62068531
     atom   35 type  3   force =     0.07382953   -5.31257660   -1.62068531
     atom   36 type  3   force =    -0.07382953   -5.31257660    1.62068531
     atom   37 type  3   force =     0.06912568    2.05980641   -0.29584065
     atom   38 type  3   force =    -0.06912568    2.05980641    0.29584065
     atom   39 type  3   force =    -0.06912568   -2.05980641    0.29584065
     atom   40 type  3   force =     0.06912568   -2.05980641   -0.29584065
     atom   41 type  3   force =    -0.12039341    0.49170429   -2.84975182
     atom   42 type  3   force =     0.12039341    0.49170429    2.84975182
     atom   43 type  3   force =     0.12039341   -0.49170429    2.84975182
     atom   44 type  3   force =    -0.12039341   -0.49170429   -2.84975182
     atom   45 type  3   force =    -0.79686121   -3.26233952   -4.93470906
     atom   46 type  3   force =     0.79686122   -3.26233952    4.93470906
     atom   47 type  3   force =     0.79686121    3.26233952    4.93470906
     atom   48 type  3   force =    -0.79686121    3.26233952   -4.93470906
     atom   49 type  3   force =     0.26206232   -5.64290570   -4.31140907
     atom   50 type  3   force =    -0.26206232   -5.64290570    4.31140907
     atom   51 type  3   force =    -0.26206232    5.64290570    4.31140907
     atom   52 type  3   force =     0.26206232    5.64290570   -4.31140907
     atom   53 type  3   force =     1.97991075    1.19993996   -0.87291454
     atom   54 type  3   force =    -1.97991075    1.19993996    0.87291454
     atom   55 type  3   force =    -1.97991075   -1.19993996    0.87291454
     atom   56 type  3   force =     1.97991075   -1.19993996   -0.87291454
     atom   57 type  3   force =     1.74600805    3.41909588    1.09927495
[...]
     atom   50 type  3   force =     0.00009447   -0.00068833    0.00013515
     atom   51 type  3   force =     0.00009447    0.00068830    0.00013512
     atom   52 type  3   force =    -0.00009446    0.00068834   -0.00013514
     atom   53 type  3   force =    -0.00078812   -0.00022909    0.00002487
     atom   54 type  3   force =     0.00078775   -0.00022875   -0.00002563
     atom   55 type  3   force =     0.00078813    0.00022924   -0.00002474
     atom   56 type  3   force =    -0.00078777    0.00022873    0.00002563
     atom   57 type  3   force =    -0.00056950    0.00001975    0.00018645
     atom   58 type  3   force =     0.00056934    0.00001892   -0.00018601
     atom   59 type  3   force =     0.00056963   -0.00002008   -0.00018655
     atom   60 type  3   force =    -0.00056930   -0.00001886    0.00018599
     atom   61 type  3   force =    -0.00069201   -0.00025678    0.00023858
     atom   62 type  3   force =     0.00069190   -0.00025689   -0.00023867
     atom   63 type  3   force =     0.00069204    0.00025675   -0.00023856
     atom   64 type  3   force =    -0.00069190    0.00025689    0.00023867
     atom   65 type  3   force =     0.00059237   -0.00007041    0.00003247
     atom   66 type  3   force =    -0.00059238   -0.00007041   -0.00003248
     atom   67 type  3   force =    -0.00059237    0.00007041   -0.00003247
     atom   68 type  3   force =     0.00059237    0.00007041    0.00003248
     atom   69 type  3   force =     0.00051476   -0.00030581    0.00021878
     atom   70 type  3   force =    -0.00051477   -0.00030582   -0.00021879
     atom   71 type  3   force =    -0.00051477    0.00030582   -0.00021878
     atom   72 type  3   force =     0.00051477    0.00030582    0.00021879
     atom   73 type  3   force =     0.00019403   -0.00084667   -0.00015288
     atom   74 type  3   force =    -0.00019404   -0.00084668    0.00015287
     atom   75 type  3   force =    -0.00019403    0.00084668    0.00015288
     atom   76 type  3   force =     0.00019403    0.00084667   -0.00015287
     atom   77 type  3   force =    -0.00038515   -0.00049971   -0.00038350
     atom   78 type  3   force =     0.00038516   -0.00049973    0.00038352
     atom   79 type  3   force =     0.00038516    0.00049971    0.00038350
     atom   80 type  3   force =    -0.00038515    0.00049972   -0.00038351
     atom   81 type  3   force =    -0.00070525    0.00016466   -0.00035533
     atom   82 type  3   force =     0.00070526    0.00016466    0.00035531
     atom   83 type  3   force =     0.00070526   -0.00016466    0.00035533
     atom   84 type  3   force =    -0.00070525   -0.00016466   -0.00035531
     atom   85 type  3   force =    -0.00038055    0.00031951    0.00033160
     atom   86 type  3   force =     0.00038055    0.00031949   -0.00033161
     atom   87 type  3   force =     0.00038055   -0.00031951   -0.00033160
     atom   88 type  3   force =    -0.00038055   -0.00031949    0.00033160
     atom   89 type  3   force =     0.00029477    0.00001491    0.00070847
     atom   90 type  3   force =    -0.00029477    0.00001493   -0.00070847
     atom   91 type  3   force =    -0.00029477   -0.00001492   -0.00070846
     atom   92 type  3   force =     0.00029476   -0.00001492    0.00070847
     atom   93 type  4   force =     0.00016397    0.00002877   -0.00002475
     atom   94 type  4   force =    -0.00016398    0.00002878    0.00002473
     atom   95 type  4   force =    -0.00016397   -0.00002877    0.00002475
     atom   96 type  4   force =     0.00016398   -0.00002878   -0.00002474
     atom   97 type  4   force =    -0.00003858    0.00005056    0.00003484
     atom   98 type  4   force =     0.00003857    0.00005051   -0.00003481
     atom   99 type  4   force =     0.00003859   -0.00005057   -0.00003484
     atom  100 type  4   force =    -0.00003857   -0.00005052    0.00003482
     atom  101 type  4   force =    -0.00015327    0.00000781   -0.00014261
     atom  102 type  4   force =     0.00015324    0.00000782    0.00014255
     atom  103 type  4   force =     0.00015325   -0.00000782    0.00014257
     atom  104 type  4   force =    -0.00015326   -0.00000781   -0.00014259
     atom  105 type  4   force =     0.00001545   -0.00007844    0.00006262
     atom  106 type  4   force =    -0.00001545   -0.00007846   -0.00006261
     atom  107 type  4   force =    -0.00001545    0.00007845   -0.00006262
     atom  108 type  4   force =     0.00001545    0.00007845    0.00006261
     atom  109 type  4   force =    -0.00032972   -0.00013602    0.00024267
     atom  110 type  4   force =     0.00032972   -0.00013601   -0.00024268
     atom  111 type  4   force =     0.00032972    0.00013602   -0.00024267
     atom  112 type  4   force =    -0.00032972    0.00013601    0.00024268
     atom  113 type  4   force =    -0.00023391   -0.00025575    0.00002485
     atom  114 type  4   force =     0.00023391   -0.00025575   -0.00002484
     atom  115 type  4   force =     0.00023390    0.00025575   -0.00002485
     atom  116 type  4   force =    -0.00023391    0.00025575    0.00002484
     atom  117 type  4   force =     0.00031491    0.00001529   -0.00008737
     atom  118 type  4   force =    -0.00031491    0.00001529    0.00008737
     atom  119 type  4   force =    -0.00031491   -0.00001529    0.00008737
     atom  120 type  4   force =     0.00031491   -0.00001529   -0.00008737
     atom  121 type  4   force =     0.00025931    0.00005111   -0.00003673
     atom  122 type  4   force =    -0.00025931    0.00005112    0.00003673
     atom  123 type  4   force =    -0.00025931   -0.00005111    0.00003673
     atom  124 type  4   force =     0.00025931   -0.00005112   -0.00003673
     atom  125 type  4   force =     0.00006924   -0.00019777   -0.00001277
     atom  126 type  4   force =    -0.00006924   -0.00019777    0.00001277
     atom  127 type  4   force =    -0.00006924    0.00019776    0.00001277
     atom  128 type  4   force =     0.00006924    0.00019777   -0.00001277
     atom  129 type  4   force =    -0.00008342   -0.00023706   -0.00007197
     atom  130 type  4   force =     0.00008341   -0.00023707    0.00007198
     atom  131 type  4   force =     0.00008342    0.00023706    0.00007196
     atom  132 type  4   force =    -0.00008341    0.00023707   -0.00007198
     atom  133 type  4   force =    -0.00014477    0.00007315   -0.00007863
     atom  134 type  4   force =     0.00014477    0.00007315    0.00007862
     atom  135 type  4   force =     0.00014477   -0.00007315    0.00007863
     atom  136 type  4   force =    -0.00014477   -0.00007315   -0.00007862
     atom  137 type  4   force =    -0.00010175    0.00008540    0.00013085
     atom  138 type  4   force =     0.00010174    0.00008537   -0.00013086
     atom  139 type  4   force =     0.00010175   -0.00008540   -0.00013085
     atom  140 type  4   force =    -0.00010174   -0.00008538    0.00013086
     atom  141 type  4   force =     0.00004821   -0.00003366    0.00016669
     atom  142 type  4   force =    -0.00004821   -0.00003366   -0.00016669
     atom  143 type  4   force =    -0.00004822    0.00003366   -0.00016669
     atom  144 type  4   force =     0.00004821    0.00003367    0.00016669

     Total force =     0.007391     Total SCF correction =     0.000086
     Energy error            =      5.8E-05 Ry
     Gradient error          =      9.4E-04 Ry/Bohr

     bfgs converged in  28 scf cycles and  26 bfgs steps
     (criteria: energy <  1.0E-04 Ry, force <  1.0E-03 Ry/Bohr)

     End of BFGS Geometry Optimization

     Final energy             =   -1982.9210787819 Ry

     File /scratch/calc/outdir/pwscf.bfgs deleted, as requested
Begin final coordinates

ATOMIC_POSITIONS (angstrom)
O             1.3442931114       18.1246248025        5.1528177320
O             0.8502009216        1.8996546828        8.8791105603
O             1.6977254180       14.3253672059        4.2018296674
O             2.1918187226       30.5503530266        0.4755542768
O             1.9678951724       21.2282724995        8.4563356619
O             0.2266136170        5.0031673207        5.5757384748
O             1.0741547329       11.2216295359        0.8983184554
O             2.8154257181       27.4468486177        3.7789368125
N             1.6014069200       19.6296968630        6.8581706287
N             0.5931193162        3.4046906905        7.1738474270
N             1.4406202916       12.8202907028        2.4965113255
N             2.4489076559       29.0453157614        2.1808364108
C             0.0003116511       15.8045523670        8.1439033181
C             2.1942253335       32.0295554512        5.8881237132
C             3.0417155637       16.6454437226        1.2107843162
C             0.8478020173        0.4204508049        3.4665632102
C            -0.2678757182       17.0870992737        8.7160046735
C             2.4624176799        0.8621114227        5.3160221774
C             3.3099002809       15.3628916878        0.6386760835
C             0.5796072140       31.5878968784        4.0386592975
C             2.0846370638       17.5319040224        0.5504611916
C             1.8048741368        1.3069137677        4.1268768206
C             0.9573896916       14.9180847682        8.8042215240
C             1.2371523969       31.1430973993        5.2278057287
C             1.8054658029       18.8157405386        1.0354665840
C             2.0840516469        2.5907486946        3.6418806209
C             1.2365600314       13.6342515572        8.3192173280
C             0.9579757433       29.8592598475        5.7128042231
C             0.8882290440       19.6535982441        0.4017611831
C             3.0012775485        3.4286198268        4.2755646514
C             2.1537992805       12.7963950638        8.9529263490
C             0.0407492848       29.0213914869        5.0791196187
C            -1.4849921361       19.2269260436        8.6222062388
C             3.6795332359        3.0019140786        5.4098366818
C             4.5270225183       13.2230565239        0.7324765090
C            -0.6375057238       29.4480936017        3.9448526586
C            -1.2133090165       17.9496434806        8.0769533523
C             3.4078404682        1.7246428947        5.9550679621
C             4.2553364227       14.5003503928        1.2777329517
C            -0.3658155248       30.7253621305        3.3996168966
C             2.8709933778       17.5330589471        6.8903828162
C            -0.6764592834        1.3080835905        7.1416199092
C             0.1710293582       14.9169298975        2.4642905199
C             3.7184841045       31.1419283937        2.2130552459
C             3.1563194471       16.2877193984        6.3437562608
C            -0.9617794853        0.0627083898        7.6882826196
C            -0.1142897033       16.1622800707        3.0109343899
C             4.0038078257       32.3872928349        1.6664068727
C            -0.6574104920       15.4430745259        6.9627581259
C             2.8519496735       31.6680870738        7.0692642178
C             3.6994337345       17.0069173821        2.3919204074
C             0.1900736834        0.7819201591        2.2854163121
C             1.8956955983       18.4148232481        6.2227856795
C             0.2989027908        2.1897999433        7.8093468082
C             1.1463496312       14.0351789146        3.1319246851
C             2.7431321535       30.2601989227        1.5453528333
C             2.2487126789       20.1131104432        8.0044124193
C            -0.0541399992        3.8882460767        6.0275632091
C             0.7932825818       12.3369837650        1.3503043379
C             3.0961643136       28.5617307818        3.3271246366
C             0.6295208235       20.5152580319        6.2009447407
C             1.5650238338        4.2902682232        7.8310814977
C             2.4125037366       11.9347423584        3.1537444501
C             1.4770020793       28.1597346375        1.5236050766
C             1.3159009866       21.4129139918        5.1634813298
C             0.8786324738        5.1879171226        8.8685453552
C             1.7261228236       11.0370826806        4.1912045776
C             2.1633913096       27.2620862344        0.4861398909
C             0.3137296739       22.1876855441        4.3516832019
C             3.5757820489        5.9626882847        0.3256607417
C             2.7282926275       10.2623104759        5.0030022794
C            -0.5337592610       26.4873159415        9.0290240159
C            -0.2603811304       21.6099676266        3.2117589045
C             4.1498917194        5.3849699251        1.4655838464
C             3.3024039179       10.8400322673        6.1429265855
C            -1.1078687555       27.0650322416        7.8891016041
C             3.5664286429       22.3203712227        2.4274541735
C             0.3230834218        6.0953739092        2.2498883201
C            -0.5244044713       10.1296258883        6.9272295087
C             2.7189409216       26.3546302330        7.1047958680
C             3.2126769459       23.6224632645        2.7887791750
C             0.6768338141        7.3974648338        1.8885627960
C            -0.1706528418        8.8275367967        6.5659051567
C             2.3651897327       25.0525372726        7.4661211793
C             3.7540709696       24.2016274653        3.9364528584
C             0.1354398141        7.9766291888        0.7408924723
C            -0.7120475810        8.2483709166        5.4182321090
C             2.9065831535       24.4733730426        8.6137932547
C            -0.0724868152       23.4825942098        4.7111182405
C             2.2670206933        7.2575972726        9.3209076771
C             3.1145087657        8.9674044966        4.6435676092
C             0.7750017434       25.1924058814        0.0337782220
H             2.3102594223       19.1859085390        1.9263967152
H             1.5792536493        2.9609170826        2.7509429134
H             0.7317669071       13.2640838435        7.4282861726
H             1.4627722415       29.4890910775        6.6037392164
H             0.6919915948       20.6550782960        0.7831635970
H             3.1975188587        4.4300817330        3.8941811561
H             2.3500337077       11.7949138909        8.5715205260
H            -0.1554948209       28.0199249437        5.4605044323
H             2.6427863625       15.9651991798        5.4379543679
H            -0.4482505356       32.1902071912        8.5940626907
H             0.3992369364       16.4847956206        3.9167221459
H             3.4902738361        0.2597988001        0.7606148038
H            -0.4524529808       14.4832648886        6.4915878809
H             2.6469901316       30.7082707545        7.5404373407
H             3.4944771785       17.9667302441        2.8630946340
H             0.3950336258        1.7417346884        1.8142449692
H            -0.1131480619       19.8724053954        5.7161006779
H             2.3076846257        3.6474109210        8.3159229613
H             3.1551730011       12.5775883036        3.6385828865
H             0.7343426984       28.8025956615        1.0387616122
H             0.1527421263       21.1171758195        6.9815411629
H             2.0417930008        4.8921824565        7.0504839907
H             2.8892846176       11.3328162377        2.3731424969
H             1.0002318936       27.5578236554        2.3042001456
H             2.0075914898       22.0947458013        5.6764492184
H             0.1869443392        5.8697476612        8.3555779909
H             1.0344308552       10.3552524097        3.6782369587
H             2.8550785905       26.5802548572        0.9991076804
H             1.9136879966       20.7778228985        4.4955686389
H             1.9758238734        4.5528239769        0.1817724288
H             1.1283356027       11.6721762435        4.8591144213
H             1.0661998260       27.8971783978        9.1729112628
H             0.0289370752       20.5928239257        2.9362915480
H             3.8605741657        4.3678265652        1.7410514110
H             3.0130866913       11.8571733571        6.4183930425
H            -0.8185504506       28.0821774541        7.6136332397
H             3.1532526173       21.8701348826        1.5236250153
H             0.7362589298        5.6451369365        3.1537175913
H            -0.1112280119       10.5798636159        7.8310580472
H             2.3057655377       26.8048656501        6.2009658185
H             2.5060214315       24.1860337399        2.1827214391
H             1.3834904767        7.9610352642        2.4946212092
H             0.5360034552        8.2639652721        7.1719619916
H             1.6585340206       24.4889670070        6.8600627680
H             3.4742198992       25.2166840585        4.2181305265
H             0.4152905810        8.9916850868        0.4592127608
H            -0.4321963977        7.2333156613        5.1365540159
H             2.6267328097       23.4583166462        8.8954724961
H             0.3512425726       23.9425386125        5.6038617836
H             1.8432923959        7.7175410298        8.4281667280
H             2.6907796208        8.5074595107        3.7508239582
H             1.1987297204       24.7324623322        0.9265195665
End final coordinates



     Writing all to output data dir /scratch/calc/outdir/pwscf.save/
 
     init_run     :      4.74s CPU      5.25s WALL (       1 calls)
     electrons    :   1436.35s CPU   1672.89s WALL (      28 calls)
     update_pot   :     53.01s CPU     55.11s WALL (      27 calls)
     forces       :    103.93s CPU    137.26s WALL (      28 calls)
     force_dftd3  :     29.71s CPU     50.65s WALL (      28 calls)

     Called by init_run:
     wfcinit      :      2.20s CPU      2.38s WALL (       1 calls)
     potinit      :      0.70s CPU      0.75s WALL (       1 calls)
     hinit0       :      1.19s CPU      1.24s WALL (       1 calls)

     Called by electrons:
     c_bands      :   1184.90s CPU   1351.91s WALL (     257 calls)
     sum_band     :    179.78s CPU    217.72s WALL (     257 calls)
     v_of_rho     :     17.87s CPU     21.87s WALL (     268 calls)
     newd         :     20.61s CPU     31.50s WALL (     268 calls)
     PAW_pot      :     20.40s CPU     21.40s WALL (     295 calls)
     mix_rho      :      2.02s CPU      2.49s WALL (     257 calls)
     energy_dftd3 :     15.17s CPU     30.30s WALL (      28 calls)

     Called by c_bands:
     init_us_2    :     15.07s CPU     15.30s WALL (    2280 calls)
     init_us_2:cp :     15.06s CPU     15.29s WALL (    2280 calls)
     cegterg      :   1105.32s CPU   1225.81s WALL (    1029 calls)

     Called by *egterg:
     cdiaghg      :    113.14s CPU    147.37s WALL (    3999 calls)
     h_psi        :    554.00s CPU    596.82s WALL (    4180 calls)
     s_psi        :    112.47s CPU    113.23s WALL (    4180 calls)
     g_psi        :      2.10s CPU      2.18s WALL (    3147 calls)

     Called by h_psi:
     h_psi:calbec :    108.29s CPU    112.71s WALL (    4180 calls)
     vloc_psi     :    328.91s CPU    366.40s WALL (    4180 calls)
     add_vuspsi   :    112.31s CPU    113.11s WALL (    4180 calls)

     General routines
     calbec       :    177.68s CPU    188.09s WALL (    5764 calls)
     fft          :     13.71s CPU     20.55s WALL (    3780 calls)
     ffts         :      0.44s CPU      0.63s WALL (     525 calls)
     fftw         :    286.62s CPU    327.22s WALL ( 1587144 calls)
     interpolate  :      1.16s CPU      1.64s WALL (     268 calls)
 
     Parallel routines
 
     PWSCF        :  26m53.25s CPU  31m33.27s WALL

 
   This run was terminated on:  23:12:11   7Mar2024            

=------------------------------------------------------------------------------=
   JOB DONE.
=------------------------------------------------------------------------------=
