ITEM: TIMESTEP
0
ITEM: NUMBER OF ATOMS
357
ITEM: BOX BOUNDS xy xz yz pp pp ff
-7.3724492699999997e+00 2.4574830899999998e+01 -7.3724492699999997e+00
0.0000000000000000e+00 2.0701456793999998e+01 0.0000000000000000e+00
0.0000000000000000e+00 3.6159325252999999e+01 0.0000000000000000e+00
ITEM: ATOMS id type element x y z ix iy iz
1 5 Si 0.00622726 5.39871 5.84924 0 0 0
2 5 Si 1.38346 1.27811 6.48741 0 0 0
3 5 Si 3.89733 2.51221 5 0 0 0
4 4 O 0.858352 4.68694 7.13486 0 0 0
5 4 O -1.14378 6.50859 6.46205 0 0 0
6 4 O 2.94457 1.78139 6.226 0 0 0
7 4 O -0.952567 4.11933 5.15665 0 0 0
8 4 O 0.442021 1.86105 5.21008 0 0 0
9 4 O 0.870684 1.7965 7.98348 0 0 0
10 5 Si 0.108347 1.0673 9.29214 0 0 0
11 5 Si -0.932944 3.88682 9.96119 0 0 0
12 5 Si 1.53387 5.10158 8.5903 0 0 0
13 4 O 1.25995 0.548871 10.3652 0 0 0
14 4 O 4.0475 2.23179 9.99057 0 0 0
15 4 O 0.616427 4.50304 9.86346 0 0 0
16 4 O 1.55993 6.7512 8.75528 0 0 0
17 4 O 3.0434 4.40433 8.67773 0 0 0
18 4 O 3.39493 4.54421 11.3942 0 0 0
20 5 Si -1.07443 8.17899 6.48741 0 0 0
21 5 Si 1.43985 9.41269 5 0 0 0
24 4 O 0.48677 8.68222 6.22631 0 0 0
26 4 O -2.01546 8.76153 5.21008 0 0 0
27 4 O -1.58752 8.69681 7.98347 0 0 0
28 5 Si -2.34944 7.96739 9.29251 0 0 0
31 4 O -1.19709 7.44814 10.364 0 0 0
32 4 O 1.58973 9.13228 9.98983 0 0 0
55 5 Si 4.92164 5.3998 5.84881 0 0 0
56 5 Si 6.29867 1.27862 6.48761 0 0 0
57 5 Si 8.8123 2.51221 5 0 0 0
58 4 O 5.77436 4.68857 7.13341 0 0 0
59 4 O 3.77178 6.50872 6.46115 0 0 0
60 4 O 7.85968 1.78234 6.2264 0 0 0
61 4 O 3.9624 4.11933 5.15665 0 0 0
62 4 O 5.35699 1.86105 5.21008 0 0 0
63 4 O 5.78483 1.79682 7.98346 0 0 0
64 5 Si 5.02283 1.06715 9.29213 0 0 0
65 5 Si 3.98204 3.88696 9.96118 0 0 0
66 5 Si 6.44906 5.10138 8.58986 0 0 0
67 4 O 6.17476 0.548476 10.3642 0 0 0
68 4 O 8.9627 2.23168 9.98953 0 0 0
69 4 O 5.53151 4.50162 9.86252 0 0 0
70 4 O 6.4755 6.75064 8.75727 0 0 0
71 4 O 7.95899 4.40475 8.67802 0 0 0
72 4 O 8.30915 4.54312 11.3937 0 0 0
74 5 Si 3.84116 8.17897 6.4874 0 0 0
75 5 Si 6.35482 9.41269 5 0 0 0
78 4 O 5.40192 8.68265 6.2263 0 0 0
80 4 O 2.8995 8.76153 5.21008 0 0 0
81 4 O 3.32757 8.69718 7.98326 0 0 0
82 5 Si 2.56495 7.96765 9.29157 0 0 0
85 4 O 3.71742 7.44801 10.3633 0 0 0
86 4 O 6.5055 9.13243 9.98953 0 0 0
109 5 Si 9.8366 5.39916 5.84913 0 0 0
110 5 Si 11.2129 1.27822 6.48797 0 0 0
113 4 O 8.68707 6.50833 6.46242 0 0 0
115 4 O 8.87737 4.11933 5.15665 0 0 0
116 4 O 10.272 1.86105 5.21008 0 0 0
117 4 O 10.6991 1.7961 7.98356 0 0 0
118 5 Si 9.93775 1.06695 9.29289 0 0 0
119 5 Si 8.8973 3.88685 9.96147 0 0 0
121 4 O 11.0905 0.548691 10.3647 0 0 0
123 4 O 10.4464 4.50259 9.86373 0 0 0
128 5 Si 8.75579 8.17886 6.48773 0 0 0
134 4 O 7.81447 8.76153 5.21008 0 0 0
135 4 O 8.24249 8.69677 7.98368 0 0 0
136 5 Si 7.48025 7.96744 9.29255 0 0 0
139 4 O 8.63292 7.44897 10.3645 0 0 0
234 4 O -1.52147 4.54409 11.3937 1 0 0
272 2 H 2.46779 4.31228 11.5991 0 0 0
273 2 H -1.36069 6.63353 10.8837 0 0 0
278 2 H 7.38169 4.31262 11.5974 0 0 0
279 2 H 3.55329 6.63381 10.8841 0 0 0
285 2 H 8.47008 6.63393 10.8828 0 0 0
301 1 C 6.9348 3.80562 14.568 0 0 0
302 1 C 6.09472 4.39084 15.7345 0 0 0
303 1 C 6.76721 4.34003 17.1424 0 0 0
304 1 C 7.70473 5.52458 17.5194 0 0 0
305 1 C 8.96205 5.70579 16.6231 0 0 0
310 2 H 6.34153 3.79243 13.6214 0 0 0
311 2 H 7.24258 2.7532 14.7867 0 0 0
312 2 H 7.86413 4.3898 14.3714 0 0 0
313 2 H 5.80163 5.44516 15.4959 0 0 0
314 2 H 5.13412 3.81962 15.7858 0 0 0
315 2 H 5.95879 4.30746 17.9146 0 0 0
316 2 H 7.32352 3.37294 17.2509 0 0 0
317 2 H 7.11962 6.47469 17.5151 0 0 0
319 2 H 8.66462 6.09494 15.62 0 0 0
320 2 H 9.43164 4.70687 16.4555 0 0 0
328 4 O 8.42183 8.49642 16.8723 0 0 0
318 2 H 8.03679 5.36926 18.5785 0 0 0
19 5 Si -2.45133 12.2998 5.84837 0 0 0
22 4 O -1.59813 11.5887 7.13367 0 0 0
23 4 O -3.60089 13.4094 6.46218 0 0 0
25 4 O -3.41005 11.0198 5.15665 0 0 0
29 5 Si -3.38971 10.7876 9.96123 0 0 0
30 5 Si -0.92316 12.0018 8.59021 0 0 0
33 4 O -1.84036 11.4025 9.86277 0 0 0
34 4 O -0.897893 13.6514 8.7566 0 0 0
35 4 O 0.586401 11.3048 8.67714 0 0 0
36 4 O 0.938456 11.4444 11.3935 0 0 0
37 5 Si -4.90833 19.2005 5.84786 0 0 0
38 5 Si -3.53169 15.0798 6.48776 0 0 0
39 5 Si -1.01763 16.3132 5 0 0 0
40 4 O -4.05457 18.4899 7.13316 0 0 0
41 4 O -6.05829 20.3093 6.46125 0 0 0
42 4 O -1.97072 15.5828 6.22614 0 0 0
43 4 O -5.86753 17.9203 5.15665 0 0 0
44 4 O -4.47294 15.662 5.21008 0 0 0
45 4 O -4.04527 15.5976 7.98349 0 0 0
46 5 Si -4.80722 14.8679 9.29252 0 0 0
47 5 Si -5.84679 17.6884 9.96068 0 0 0
48 5 Si -3.38015 18.9025 8.58982 0 0 0
49 4 O -3.65443 14.349 10.364 0 0 0
50 4 O -0.867282 16.0326 9.99043 0 0 0
51 4 O -4.29754 18.3025 9.86237 0 0 0
52 4 O -3.35408 20.5521 8.75656 0 0 0
53 4 O -1.8709 18.2053 8.67713 0 0 0
54 4 O -1.51777 18.3454 11.3935 0 0 0
73 5 Si 2.46397 12.3001 5.84797 0 0 0
76 4 O 3.31828 11.5895 7.13296 0 0 0
77 4 O 1.31394 13.4094 6.46173 0 0 0
79 4 O 1.50492 11.0198 5.15665 0 0 0
83 5 Si 1.52498 10.7875 9.96049 0 0 0
84 5 Si 3.99234 12.0015 8.59018 0 0 0
87 4 O 3.07454 11.401 9.86173 0 0 0
88 4 O 4.01872 13.651 8.75862 0 0 0
89 4 O 5.50193 11.3048 8.67728 0 0 0
90 4 O 5.85433 11.4445 11.3934 0 0 0
91 5 Si 0.00694918 19.201 5.84707 0 0 0
92 5 Si 1.38342 15.0795 6.48729 0 0 0
93 5 Si 3.89733 16.3132 5 0 0 0
94 4 O 0.861677 18.4905 7.1319 0 0 0
95 4 O -1.14296 20.3094 6.46134 0 0 0
96 4 O 2.94449 15.5833 6.22677 0 0 0
97 4 O -0.952567 17.9203 5.15665 0 0 0
98 4 O 0.442021 15.662 5.21008 0 0 0
99 4 O 0.87001 15.5973 7.98323 0 0 0
100 5 Si 0.107459 14.868 9.29174 0 0 0
101 5 Si -0.932015 17.6877 9.96069 0 0 0
102 5 Si 1.53526 18.902 8.58949 0 0 0
103 4 O 1.26076 14.3485 10.3627 0 0 0
104 4 O 4.04813 16.0326 9.98984 0 0 0
105 4 O 0.61733 18.3012 9.86141 0 0 0
106 4 O 1.561 20.5513 8.75865 0 0 0
107 4 O 3.04481 18.2049 8.67733 0 0 0
108 4 O 3.39513 18.3445 11.3938 0 0 0
127 5 Si 7.37866 12.3006 5.84735 0 0 0
131 4 O 6.22896 13.4093 6.46112 0 0 0
133 4 O 6.41988 11.0198 5.15665 0 0 0
137 5 Si 6.44089 10.7875 9.96079 0 0 0
141 4 O 7.98945 11.4025 9.86156 0 0 0
145 5 Si 4.92133 19.2002 5.84878 0 0 0
146 5 Si 6.29826 15.0794 6.48799 0 0 0
149 4 O 3.77141 20.3095 6.46133 0 0 0
151 4 O 3.9624 17.9203 5.15665 0 0 0
152 4 O 5.35699 15.662 5.21008 0 0 0
153 4 O 5.78455 15.5969 7.98355 0 0 0
154 5 Si 5.02347 14.8677 9.29329 0 0 0
155 5 Si 3.9831 17.6875 9.96117 0 0 0
157 4 O 6.17591 14.35 10.3651 0 0 0
159 4 O 5.53201 18.3032 9.8634 0 0 0
252 4 O -3.97757 11.444 11.394 1 0 0
270 4 O -6.4338 18.3453 11.3933 1 0 0
271 2 H -6.27489 20.4349 10.8827 0 -1 0
274 2 H 0.0114738 11.2129 11.599 0 0 0
275 2 H -3.81741 13.5343 10.8835 0 0 0
276 2 H -2.4443 18.1136 11.5997 0 0 0
277 2 H -1.36002 20.4349 10.8831 0 -1 0
280 2 H 4.92726 11.2135 11.5985 0 0 0
281 2 H 1.09721 13.535 10.8835 0 0 0
282 2 H 2.46833 18.1128 11.5982 0 0 0
283 2 H 3.55569 20.4351 10.8827 0 -1 0
287 2 H 6.01437 13.5335 10.8827 0 0 0
335 1 C 6.35905 13.9721 19.1509 0 0 0
336 1 C 5.93029 15.2871 19.8464 0 0 0
350 2 H 5.69184 13.7708 18.2752 0 0 0
351 2 H 6.22198 13.1195 19.8581 0 0 0
352 2 H 4.87463 15.2104 20.1998 0 0 0
353 2 H 5.98678 16.1703 19.1677 0 0 0
354 2 H 6.57098 15.502 20.7359 0 0 0
355 4 O 8.09882 11.5541 19.1222 0 0 0
111 5 Si 13.7273 2.51221 5 0 0 0
112 4 O 10.6894 4.68788 7.13438 0 0 0
114 4 O 12.7743 1.78154 6.22629 0 0 0
120 5 Si 11.3641 5.10176 8.59055 0 0 0
122 4 O 13.8776 2.23195 9.99051 0 0 0
124 4 O 11.3905 6.7513 8.7556 0 0 0
125 4 O 12.8743 4.40484 8.67788 0 0 0
126 4 O 13.2237 4.54352 11.3941 0 0 0
129 5 Si 11.2698 9.41269 5 0 0 0
132 4 O 10.317 8.68229 6.2264 0 0 0
140 4 O 11.4201 9.13291 9.98979 0 0 0
163 5 Si 14.7513 5.39871 5.84878 0 0 0
164 5 Si 16.1283 1.27851 6.48752 0 0 0
165 5 Si 18.6422 2.51221 5 0 0 0
166 4 O 15.6031 4.68765 7.13501 0 0 0
167 4 O 13.601 6.5086 6.46098 0 0 0
168 4 O 17.6894 1.78187 6.22632 0 0 0
169 4 O 13.7923 4.11933 5.15665 0 0 0
170 4 O 15.1869 1.86105 5.21008 0 0 0
171 4 O 15.6147 1.79635 7.98323 0 0 0
172 5 Si 14.8525 1.06698 9.29196 0 0 0
173 5 Si 13.8123 3.88715 9.96143 0 0 0
174 5 Si 16.2787 5.10172 8.59072 0 0 0
175 4 O 16.0051 0.546953 10.363 0 0 0
176 4 O 18.7929 2.2321 9.98969 0 0 0
177 4 O 15.3614 4.50234 9.86343 0 0 0
178 4 O 16.3038 6.75143 8.75585 0 0 0
179 4 O 17.7884 4.40497 8.67838 0 0 0
180 4 O 18.1381 4.54373 11.3945 0 0 0
182 5 Si 13.6707 8.17899 6.48732 0 0 0
183 5 Si 16.1847 9.41269 5 0 0 0
186 4 O 15.232 8.68168 6.22531 0 0 0
188 4 O 12.7294 8.76153 5.21008 0 0 0
189 4 O 13.1577 8.69727 7.98351 0 0 0
190 5 Si 12.395 7.96824 9.292 0 0 0
193 4 O 13.5469 7.44804 10.3641 0 0 0
194 4 O 16.3348 9.13247 9.99042 0 0 0
217 5 Si 19.6662 5.39926 5.84946 0 0 0
218 5 Si 21.0433 1.27862 6.48757 0 0 0
219 5 Si 23.5572 2.51221 5 0 0 0
220 4 O 20.5182 4.68744 7.13522 0 0 0
221 4 O 18.5169 6.50884 6.46116 0 0 0
222 4 O 22.6045 1.78242 6.22653 0 0 0
223 4 O 18.7073 4.11933 5.15665 0 0 0
224 4 O 20.1019 1.86105 5.21008 0 0 0
225 4 O 20.5296 1.79651 7.98319 0 0 0
226 5 Si 19.7675 1.06698 9.29243 0 0 0
227 5 Si 18.7266 3.88706 9.96154 0 0 0
228 5 Si 21.1938 5.10146 8.59111 0 0 0
229 4 O 20.9204 0.547795 10.3634 0 0 0
230 4 O 23.7073 2.2319 9.98954 0 0 0
231 4 O 20.276 4.50181 9.86319 0 0 0
232 4 O 21.22 6.75119 8.7573 0 0 0
233 4 O 22.7035 4.40464 8.67757 0 0 0
236 5 Si 18.5857 8.17881 6.48717 0 0 0
237 5 Si 21.0997 9.41269 5 0 0 0
240 4 O 20.1467 8.68252 6.22655 0 0 0
242 4 O 17.6444 8.76153 5.21008 0 0 0
243 4 O 18.0724 8.69715 7.98349 0 0 0
244 5 Si 17.3099 7.96747 9.29208 0 0 0
247 4 O 18.4629 7.44684 10.3624 0 0 0
248 4 O 21.2502 9.13225 9.99037 0 0 0
284 2 H 12.2964 4.31179 11.598 0 0 0
290 2 H 17.2106 4.31282 11.5976 0 0 0
291 2 H 13.3826 6.63406 10.8841 0 0 0
296 2 H 22.1257 4.31306 11.597 0 0 0
297 2 H 18.297 6.63391 10.8851 0 0 0
306 1 C 10.0453 6.65153 17.2157 0 0 0
307 1 C 11.3959 6.65095 16.4165 0 0 0
308 1 C 12.1368 5.29183 16.4151 0 0 0
309 1 C 9.56902 8.11116 17.3528 0 0 0
322 2 H 11.1952 6.97527 15.3644 0 0 0
323 2 H 12.0549 7.42948 16.8692 0 0 0
324 2 H 13.1048 5.38062 15.8673 0 0 0
325 2 H 11.55 4.48368 15.9183 0 0 0
326 2 H 12.3654 4.95417 17.455 0 0 0
327 4 O 10.3348 8.9736 17.9528 0 0 0
357 3 Mg 8.83281 10.3178 17.6839 0 0 0
321 2 H 10.2841 6.32953 18.2628 0 0 0
130 4 O 8.23309 11.5899 7.13242 0 0 0
138 5 Si 8.90744 12.0025 8.58903 0 0 0
142 4 O 8.9328 13.6522 8.75521 0 0 0
143 4 O 10.4162 11.3045 8.67659 0 0 0
144 4 O 10.7665 11.4443 11.393 0 0 0
147 5 Si 8.8123 16.3132 5 0 0 0
148 4 O 5.77541 18.4897 7.13395 0 0 0
150 4 O 7.85932 15.583 6.22657 0 0 0
156 5 Si 6.44903 18.9028 8.59048 0 0 0
158 4 O 8.96263 16.0332 9.98989 0 0 0
160 4 O 6.47435 20.5524 8.75618 0 0 0
161 4 O 7.95902 18.206 8.67795 0 0 0
162 4 O 8.31045 18.3449 11.3943 0 0 0
181 5 Si 12.2938 12.3002 5.84841 0 0 0
184 4 O 13.1463 11.5899 7.13412 0 0 0
185 4 O 11.1436 13.4094 6.46197 0 0 0
187 4 O 11.3348 11.0198 5.15665 0 0 0
191 5 Si 11.3547 10.7881 9.96091 0 0 0
192 5 Si 13.822 12.0022 8.59018 0 0 0
195 4 O 12.9038 11.4033 9.86272 0 0 0
196 4 O 13.8482 13.6516 8.75608 0 0 0
197 4 O 15.3314 11.3051 8.6782 0 0 0
198 4 O 15.6835 11.4448 11.3934 0 0 0
199 5 Si 9.83637 19.2007 5.84833 0 0 0
200 5 Si 11.2136 15.0796 6.48748 0 0 0
201 5 Si 13.7273 16.3132 5 0 0 0
202 4 O 10.6895 18.4902 7.13352 0 0 0
203 4 O 8.68599 20.3099 6.46143 0 0 0
204 4 O 12.7745 15.583 6.22641 0 0 0
205 4 O 8.87737 17.9203 5.15665 0 0 0
206 4 O 10.272 15.662 5.21008 0 0 0
207 4 O 10.7003 15.5978 7.98372 0 0 0
208 5 Si 9.93785 14.8685 9.29191 0 0 0
209 5 Si 8.89786 17.6885 9.96108 0 0 0
210 5 Si 11.3645 18.903 8.58998 0 0 0
211 4 O 11.0901 14.3487 10.3631 0 0 0
212 4 O 13.878 16.0331 9.99044 0 0 0
213 4 O 10.4472 18.3025 9.86215 0 0 0
214 4 O 11.3902 20.5523 8.75723 0 0 0
215 4 O 12.8737 18.2054 8.67801 0 0 0
216 4 O 13.2253 18.3447 11.3938 0 0 0
235 5 Si 17.2095 12.3004 5.84793 0 0 0
238 4 O 18.0625 11.5898 7.13367 0 0 0
239 4 O 16.0589 13.4092 6.46124 0 0 0
241 4 O 16.2498 11.0198 5.15665 0 0 0
245 5 Si 16.2705 10.788 9.96085 0 0 0
246 5 Si 18.7373 12.002 8.58975 0 0 0
249 4 O 17.8196 11.4025 9.86237 0 0 0
250 4 O 18.7626 13.6513 8.75785 0 0 0
251 4 O 20.2468 11.3051 8.67771 0 0 0
253 5 Si 14.7516 19.2008 5.84829 0 0 0
254 5 Si 16.1281 15.0794 6.48753 0 0 0
255 5 Si 18.6422 16.3132 5 0 0 0
256 4 O 15.605 18.4901 7.13321 0 0 0
257 4 O 13.6019 20.3097 6.46192 0 0 0
258 4 O 17.6894 15.583 6.22632 0 0 0
259 4 O 13.7923 17.9203 5.15665 0 0 0
260 4 O 15.1869 15.662 5.21008 0 0 0
261 4 O 15.6151 15.5977 7.98368 0 0 0
262 5 Si 14.8528 14.8684 9.29201 0 0 0
263 5 Si 13.813 17.6881 9.96124 0 0 0
264 5 Si 16.2796 18.9027 8.5899 0 0 0
265 4 O 16.0051 14.349 10.364 0 0 0
266 4 O 18.7928 16.0329 9.99024 0 0 0
267 4 O 15.3621 18.3026 9.86264 0 0 0
268 4 O 16.3063 20.5519 8.75693 0 0 0
269 4 O 17.7892 18.2055 8.67726 0 0 0
286 2 H 9.839 11.2135 11.5963 0 0 0
288 2 H 7.38359 18.1126 11.5994 0 0 0
289 2 H 8.46807 20.4346 10.8842 0 -1 0
292 2 H 14.7563 11.2125 11.599 0 0 0
293 2 H 10.9263 13.5347 10.8841 0 0 0
294 2 H 12.2984 18.1132 11.5988 0 0 0
295 2 H 13.3846 20.4348 10.883 0 -1 0
298 2 H 19.6702 11.2122 11.5984 0 0 0
299 2 H 15.8415 13.5348 10.8833 0 0 0
300 2 H 17.2136 18.1138 11.5978 0 0 0
329 1 C 8.07523 17.2048 14.9068 0 0 0
330 1 C 9.47567 16.541 14.9846 0 0 0
331 1 C 10.083 16.4111 16.417 0 0 0
332 1 C 9.68596 15.1505 17.2399 0 0 0
333 1 C 8.17384 15.0051 17.5703 0 0 0
338 2 H 7.76315 17.3455 13.8435 0 0 0
339 2 H 8.0843 18.2126 15.3907 0 0 0
340 2 H 7.28408 16.6014 15.4095 0 0 0
341 2 H 9.44273 15.5325 14.4982 0 0 0
342 2 H 10.1786 17.1488 14.3617 0 0 0
343 2 H 11.1976 16.4006 16.3244 0 0 0
344 2 H 9.84071 17.334 17.0056 0 0 0
345 2 H 10.0255 14.2347 16.6998 0 0 0
347 2 H 7.6039 14.7387 16.6483 0 0 0
348 2 H 7.78443 15.993 17.9157 0 0 0
356 4 O 8.58618 12.2333 17.037 0 0 0
334 1 C 7.85228 13.9522 18.6687 0 0 0
337 1 C 8.20096 12.5107 18.2484 0 0 0
346 2 H 10.2635 15.1772 18.1998 0 0 0
349 2 H 8.48999 14.1498 19.5692 0 0 0
ITEM: TIMESTEP
100000
ITEM: NUMBER OF ATOMS
357
ITEM: BOX BOUNDS xy xz yz pp pp ff
-7.3724492699999997e+00 2.4574830899999998e+01 -7.3724492699999997e+00
0.0000000000000000e+00 2.0701456793999998e+01 0.0000000000000000e+00
0.0000000000000000e+00 3.6159325252999999e+01 0.0000000000000000e+00
ITEM: ATOMS id type element x y z ix iy iz
1 5 Si 0.00622726 5.39871 5.84924 0 0 0
2 5 Si 1.38346 1.27811 6.48741 0 0 0
3 5 Si 3.89733 2.51221 5 0 0 0
4 4 O 0.858352 4.68694 7.13486 0 0 0
5 4 O -1.14378 6.50859 6.46205 0 0 0
6 4 O 2.94457 1.78139 6.226 0 0 0
7 4 O -0.952567 4.11933 5.15665 0 0 0
8 4 O 0.442021 1.86105 5.21008 0 0 0
9 4 O 0.870684 1.7965 7.98348 0 0 0
10 5 Si 0.108347 1.0673 9.29214 0 0 0
11 5 Si -0.932944 3.88682 9.96119 0 0 0
12 5 Si 1.53387 5.10158 8.5903 0 0 0
13 4 O 1.25995 0.548871 10.3652 0 0 0
14 4 O 4.0475 2.23179 9.99057 0 0 0
15 4 O 0.616427 4.50304 9.86346 0 0 0
16 4 O 1.55993 6.7512 8.75528 0 0 0
17 4 O 3.0434 4.40433 8.67773 0 0 0
18 4 O 3.39493 4.54421 11.3942 0 0 0
20 5 Si -1.07443 8.17899 6.48741 0 0 0
21 5 Si 1.43985 9.41269 5 0 0 0
24 4 O 0.48677 8.68222 6.22631 0 0 0
26 4 O -2.01546 8.76153 5.21008 0 0 0
27 4 O -1.58752 8.69681 7.98347 0 0 0
28 5 Si -2.34944 7.96739 9.29251 0 0 0
31 4 O -1.19709 7.44814 10.364 0 0 0
32 4 O 1.58973 9.13228 9.98983 0 0 0
55 5 Si 4.92164 5.3998 5.84881 0 0 0
56 5 Si 6.29867 1.27862 6.48761 0 0 0
57 5 Si 8.8123 2.51221 5 0 0 0
58 4 O 5.77436 4.68857 7.13341 0 0 0
59 4 O 3.77178 6.50872 6.46115 0 0 0
60 4 O 7.85968 1.78234 6.2264 0 0 0
61 4 O 3.9624 4.11933 5.15665 0 0 0
62 4 O 5.35699 1.86105 5.21008 0 0 0
63 4 O 5.78483 1.79682 7.98346 0 0 0
64 5 Si 5.02283 1.06715 9.29213 0 0 0
65 5 Si 3.98204 3.88696 9.96118 0 0 0
66 5 Si 6.44906 5.10138 8.58986 0 0 0
67 4 O 6.17476 0.548476 10.3642 0 0 0
68 4 O 8.9627 2.23168 9.98953 0 0 0
69 4 O 5.53151 4.50162 9.86252 0 0 0
70 4 O 6.4755 6.75064 8.75727 0 0 0
71 4 O 7.95899 4.40475 8.67802 0 0 0
72 4 O 8.30915 4.54312 11.3937 0 0 0
74 5 Si 3.84116 8.17897 6.4874 0 0 0
75 5 Si 6.35482 9.41269 5 0 0 0
78 4 O 5.40192 8.68265 6.2263 0 0 0
80 4 O 2.8995 8.76153 5.21008 0 0 0
81 4 O 3.32757 8.69718 7.98326 0 0 0
82 5 Si 2.56495 7.96765 9.29157 0 0 0
85 4 O 3.71742 7.44801 10.3633 0 0 0
86 4 O 6.5055 9.13243 9.98953 0 0 0
109 5 Si 9.8366 5.39916 5.84913 0 0 0
110 5 Si 11.2129 1.27822 6.48797 0 0 0
113 4 O 8.68707 6.50833 6.46242 0 0 0
115 4 O 8.87737 4.11933 5.15665 0 0 0
116 4 O 10.272 1.86105 5.21008 0 0 0
117 4 O 10.6991 1.7961 7.98356 0 0 0
118 5 Si 9.93775 1.06695 9.29289 0 0 0
119 5 Si 8.8973 3.88685 9.96147 0 0 0
121 4 O 11.0905 0.548691 10.3647 0 0 0
123 4 O 10.4464 4.50259 9.86373 0 0 0
128 5 Si 8.75579 8.17886 6.48773 0 0 0
134 4 O 7.81447 8.76153 5.21008 0 0 0
135 4 O 8.24249 8.69677 7.98368 0 0 0
136 5 Si 7.48025 7.96744 9.29255 0 0 0
139 4 O 8.63292 7.44897 10.3645 0 0 0
234 4 O -1.52147 4.54409 11.3937 1 0 0
272 2 H 2.46779 4.31228 11.5991 0 0 0
273 2 H -1.36069 6.63353 10.8837 0 0 0
278 2 H 7.38169 4.31262 11.5974 0 0 0
279 2 H 3.55329 6.63381 10.8841 0 0 0
285 2 H 8.47008 6.63393 10.8828 0 0 0
301 1 C 5.42056 1.94907 13.3146 0 0 0
302 1 C 4.85306 2.58548 14.6114 0 0 0
303 1 C 5.75702 2.45729 15.8778 0 0 0
304 1 C 6.84418 3.55298 16.0821 0 0 0
305 1 C 7.93406 3.64104 14.9769 0 0 0
310 2 H 4.67037 1.99995 12.4883 0 0 0
311 2 H 5.67105 0.871331 13.4755 0 0 0
312 2 H 6.34697 2.45581 12.9561 0 0 0
313 2 H 4.61362 3.66416 14.4283 0 0 0
314 2 H 3.87141 2.09644 14.8325 0 0 0
315 2 H 5.09806 2.48138 16.7811 0 0 0
316 2 H 6.23902 1.4453 15.8861 0 0 0
317 2 H 6.3509 4.54892 16.1814 0 0 0
319 2 H 7.49834 4.06874 14.0423 0 0 0
320 2 H 8.27949 2.60875 14.7289 0 0 0
328 4 O 7.68694 6.46322 15.3172 0 0 0
306 1 C 9.18185 4.48332 15.3677 0 0 0
309 1 C 8.8638 5.97566 15.5866 0 0 0
318 2 H 7.34374 3.35451 17.0656 0 0 0
357 3 Mg 8.38908 8.23123 16.0425 0 0 0
321 2 H 9.57358 4.12681 16.3558 0 0 0
325 2 H 10.2426 2.21608 13.8245 0 0 0
322 2 H 10.0097 4.73667 13.3417 0 0 0
327 4 O 9.79444 6.76156 16.041 0 0 0
307 1 C 10.3648 4.38097 14.3416 0 0 0
308 1 C 10.9748 2.96449 14.2091 0 0 0
326 2 H 11.354 2.59333 15.1921 0 0 0
355 4 O 8.02932 9.50337 17.5879 0 0 0
19 5 Si -2.45133 12.2998 5.84837 0 0 0
22 4 O -1.59813 11.5887 7.13367 0 0 0
23 4 O -3.60089 13.4094 6.46218 0 0 0
25 4 O -3.41005 11.0198 5.15665 0 0 0
29 5 Si -3.38971 10.7876 9.96123 0 0 0
30 5 Si -0.92316 12.0018 8.59021 0 0 0
33 4 O -1.84036 11.4025 9.86277 0 0 0
34 4 O -0.897893 13.6514 8.7566 0 0 0
35 4 O 0.586401 11.3048 8.67714 0 0 0
36 4 O 0.938456 11.4444 11.3935 0 0 0
37 5 Si -4.90833 19.2005 5.84786 0 0 0
38 5 Si -3.53169 15.0798 6.48776 0 0 0
39 5 Si -1.01763 16.3132 5 0 0 0
40 4 O -4.05457 18.4899 7.13316 0 0 0
41 4 O -6.05829 20.3093 6.46125 0 0 0
42 4 O -1.97072 15.5828 6.22614 0 0 0
43 4 O -5.86753 17.9203 5.15665 0 0 0
44 4 O -4.47294 15.662 5.21008 0 0 0
45 4 O -4.04527 15.5976 7.98349 0 0 0
46 5 Si -4.80722 14.8679 9.29252 0 0 0
47 5 Si -5.84679 17.6884 9.96068 0 0 0
48 5 Si -3.38015 18.9025 8.58982 0 0 0
49 4 O -3.65443 14.349 10.364 0 0 0
50 4 O -0.867282 16.0326 9.99043 0 0 0
51 4 O -4.29754 18.3025 9.86237 0 0 0
52 4 O -3.35408 20.5521 8.75656 0 0 0
53 4 O -1.8709 18.2053 8.67713 0 0 0
54 4 O -1.51777 18.3454 11.3935 0 0 0
73 5 Si 2.46397 12.3001 5.84797 0 0 0
76 4 O 3.31828 11.5895 7.13296 0 0 0
77 4 O 1.31394 13.4094 6.46173 0 0 0
79 4 O 1.50492 11.0198 5.15665 0 0 0
83 5 Si 1.52498 10.7875 9.96049 0 0 0
84 5 Si 3.99234 12.0015 8.59018 0 0 0
87 4 O 3.07454 11.401 9.86173 0 0 0
88 4 O 4.01872 13.651 8.75862 0 0 0
89 4 O 5.50193 11.3048 8.67728 0 0 0
90 4 O 5.85433 11.4445 11.3934 0 0 0
91 5 Si 0.00694918 19.201 5.84707 0 0 0
92 5 Si 1.38342 15.0795 6.48729 0 0 0
93 5 Si 3.89733 16.3132 5 0 0 0
94 4 O 0.861677 18.4905 7.1319 0 0 0
95 4 O -1.14296 20.3094 6.46134 0 0 0
96 4 O 2.94449 15.5833 6.22677 0 0 0
97 4 O -0.952567 17.9203 5.15665 0 0 0
98 4 O 0.442021 15.662 5.21008 0 0 0
99 4 O 0.87001 15.5973 7.98323 0 0 0
100 5 Si 0.107459 14.868 9.29174 0 0 0
101 5 Si -0.932015 17.6877 9.96069 0 0 0
102 5 Si 1.53526 18.902 8.58949 0 0 0
103 4 O 1.26076 14.3485 10.3627 0 0 0
104 4 O 4.04813 16.0326 9.98984 0 0 0
105 4 O 0.61733 18.3012 9.86141 0 0 0
106 4 O 1.561 20.5513 8.75865 0 0 0
107 4 O 3.04481 18.2049 8.67733 0 0 0
108 4 O 3.39513 18.3445 11.3938 0 0 0
127 5 Si 7.37866 12.3006 5.84735 0 0 0
131 4 O 6.22896 13.4093 6.46112 0 0 0
133 4 O 6.41988 11.0198 5.15665 0 0 0
137 5 Si 6.44089 10.7875 9.96079 0 0 0
141 4 O 7.98945 11.4025 9.86156 0 0 0
145 5 Si 4.92133 19.2002 5.84878 0 0 0
146 5 Si 6.29826 15.0794 6.48799 0 0 0
149 4 O 3.77141 20.3095 6.46133 0 0 0
151 4 O 3.9624 17.9203 5.15665 0 0 0
152 4 O 5.35699 15.662 5.21008 0 0 0
153 4 O 5.78455 15.5969 7.98355 0 0 0
154 5 Si 5.02347 14.8677 9.29329 0 0 0
155 5 Si 3.9831 17.6875 9.96117 0 0 0
157 4 O 6.17591 14.35 10.3651 0 0 0
159 4 O 5.53201 18.3032 9.8634 0 0 0
252 4 O -3.97757 11.444 11.394 1 0 0
270 4 O -6.4338 18.3453 11.3933 1 0 0
271 2 H -6.27489 20.4349 10.8827 0 -1 0
274 2 H 0.0114738 11.2129 11.599 0 0 0
275 2 H -3.81741 13.5343 10.8835 0 0 0
276 2 H -2.4443 18.1136 11.5997 0 0 0
277 2 H -1.36002 20.4349 10.8831 0 -1 0
280 2 H 4.92726 11.2135 11.5985 0 0 0
281 2 H 1.09721 13.535 10.8835 0 0 0
282 2 H 2.46833 18.1128 11.5982 0 0 0
283 2 H 3.55569 20.4351 10.8827 0 -1 0
287 2 H 6.01437 13.5335 10.8827 0 0 0
340 2 H 7.00552 14.6561 14.0772 0 0 0
337 1 C 8.05677 10.4609 16.7096 0 0 0
347 2 H 7.37889 12.7548 15.2402 0 0 0
356 4 O 8.19662 10.1701 15.4491 0 0 0
350 2 H 5.70893 11.9272 17.1807 0 0 0
353 2 H 6.36101 14.2798 18.0061 0 0 0
334 1 C 7.91238 11.9202 17.1846 0 0 0
335 1 C 6.53518 12.0585 17.9241 0 0 0
354 2 H 7.15395 13.5415 19.446 0 0 0
336 1 C 6.3501 13.3944 18.6842 0 0 0
352 2 H 5.37093 13.4017 19.2194 0 0 0
351 2 H 6.45291 11.2101 18.6446 0 0 0
111 5 Si 13.7273 2.51221 5 0 0 0
112 4 O 10.6894 4.68788 7.13438 0 0 0
114 4 O 12.7743 1.78154 6.22629 0 0 0
120 5 Si 11.3641 5.10176 8.59055 0 0 0
122 4 O 13.8776 2.23195 9.99051 0 0 0
124 4 O 11.3905 6.7513 8.7556 0 0 0
125 4 O 12.8743 4.40484 8.67788 0 0 0
126 4 O 13.2237 4.54352 11.3941 0 0 0
129 5 Si 11.2698 9.41269 5 0 0 0
132 4 O 10.317 8.68229 6.2264 0 0 0
140 4 O 11.4201 9.13291 9.98979 0 0 0
163 5 Si 14.7513 5.39871 5.84878 0 0 0
164 5 Si 16.1283 1.27851 6.48752 0 0 0
165 5 Si 18.6422 2.51221 5 0 0 0
166 4 O 15.6031 4.68765 7.13501 0 0 0
167 4 O 13.601 6.5086 6.46098 0 0 0
168 4 O 17.6894 1.78187 6.22632 0 0 0
169 4 O 13.7923 4.11933 5.15665 0 0 0
170 4 O 15.1869 1.86105 5.21008 0 0 0
171 4 O 15.6147 1.79635 7.98323 0 0 0
172 5 Si 14.8525 1.06698 9.29196 0 0 0
173 5 Si 13.8123 3.88715 9.96143 0 0 0
174 5 Si 16.2787 5.10172 8.59072 0 0 0
175 4 O 16.0051 0.546953 10.363 0 0 0
176 4 O 18.7929 2.2321 9.98969 0 0 0
177 4 O 15.3614 4.50234 9.86343 0 0 0
178 4 O 16.3038 6.75143 8.75585 0 0 0
179 4 O 17.7884 4.40497 8.67838 0 0 0
180 4 O 18.1381 4.54373 11.3945 0 0 0
182 5 Si 13.6707 8.17899 6.48732 0 0 0
183 5 Si 16.1847 9.41269 5 0 0 0
186 4 O 15.232 8.68168 6.22531 0 0 0
188 4 O 12.7294 8.76153 5.21008 0 0 0
189 4 O 13.1577 8.69727 7.98351 0 0 0
190 5 Si 12.395 7.96824 9.292 0 0 0
193 4 O 13.5469 7.44804 10.3641 0 0 0
194 4 O 16.3348 9.13247 9.99042 0 0 0
217 5 Si 19.6662 5.39926 5.84946 0 0 0
218 5 Si 21.0433 1.27862 6.48757 0 0 0
219 5 Si 23.5572 2.51221 5 0 0 0
220 4 O 20.5182 4.68744 7.13522 0 0 0
221 4 O 18.5169 6.50884 6.46116 0 0 0
222 4 O 22.6045 1.78242 6.22653 0 0 0
223 4 O 18.7073 4.11933 5.15665 0 0 0
224 4 O 20.1019 1.86105 5.21008 0 0 0
225 4 O 20.5296 1.79651 7.98319 0 0 0
226 5 Si 19.7675 1.06698 9.29243 0 0 0
227 5 Si 18.7266 3.88706 9.96154 0 0 0
228 5 Si 21.1938 5.10146 8.59111 0 0 0
229 4 O 20.9204 0.547795 10.3634 0 0 0
230 4 O 23.7073 2.2319 9.98954 0 0 0
231 4 O 20.276 4.50181 9.86319 0 0 0
232 4 O 21.22 6.75119 8.7573 0 0 0
233 4 O 22.7035 4.40464 8.67757 0 0 0
236 5 Si 18.5857 8.17881 6.48717 0 0 0
237 5 Si 21.0997 9.41269 5 0 0 0
240 4 O 20.1467 8.68252 6.22655 0 0 0
242 4 O 17.6444 8.76153 5.21008 0 0 0
243 4 O 18.0724 8.69715 7.98349 0 0 0
244 5 Si 17.3099 7.96747 9.29208 0 0 0
247 4 O 18.4629 7.44684 10.3624 0 0 0
248 4 O 21.2502 9.13225 9.99037 0 0 0
284 2 H 12.2964 4.31179 11.598 0 0 0
290 2 H 17.2106 4.31282 11.5976 0 0 0
291 2 H 13.3826 6.63406 10.8841 0 0 0
296 2 H 22.1257 4.31306 11.597 0 0 0
297 2 H 18.297 6.63391 10.8851 0 0 0
323 2 H 11.1575 5.09445 14.6699 0 0 0
324 2 H 11.8348 2.97963 13.4982 0 0 0
130 4 O 8.23309 11.5899 7.13242 0 0 0
138 5 Si 8.90744 12.0025 8.58903 0 0 0
142 4 O 8.9328 13.6522 8.75521 0 0 0
143 4 O 10.4162 11.3045 8.67659 0 0 0
144 4 O 10.7665 11.4443 11.393 0 0 0
147 5 Si 8.8123 16.3132 5 0 0 0
148 4 O 5.77541 18.4897 7.13395 0 0 0
150 4 O 7.85932 15.583 6.22657 0 0 0
156 5 Si 6.44903 18.9028 8.59048 0 0 0
158 4 O 8.96263 16.0332 9.98989 0 0 0
160 4 O 6.47435 20.5524 8.75618 0 0 0
161 4 O 7.95902 18.206 8.67795 0 0 0
162 4 O 8.31045 18.3449 11.3943 0 0 0
181 5 Si 12.2938 12.3002 5.84841 0 0 0
184 4 O 13.1463 11.5899 7.13412 0 0 0
185 4 O 11.1436 13.4094 6.46197 0 0 0
187 4 O 11.3348 11.0198 5.15665 0 0 0
191 5 Si 11.3547 10.7881 9.96091 0 0 0
192 5 Si 13.822 12.0022 8.59018 0 0 0
195 4 O 12.9038 11.4033 9.86272 0 0 0
196 4 O 13.8482 13.6516 8.75608 0 0 0
197 4 O 15.3314 11.3051 8.6782 0 0 0
198 4 O 15.6835 11.4448 11.3934 0 0 0
199 5 Si 9.83637 19.2007 5.84833 0 0 0
200 5 Si 11.2136 15.0796 6.48748 0 0 0
201 5 Si 13.7273 16.3132 5 0 0 0
202 4 O 10.6895 18.4902 7.13352 0 0 0
203 4 O 8.68599 20.3099 6.46143 0 0 0
204 4 O 12.7745 15.583 6.22641 0 0 0
205 4 O 8.87737 17.9203 5.15665 0 0 0
206 4 O 10.272 15.662 5.21008 0 0 0
207 4 O 10.7003 15.5978 7.98372 0 0 0
208 5 Si 9.93785 14.8685 9.29191 0 0 0
209 5 Si 8.89786 17.6885 9.96108 0 0 0
210 5 Si 11.3645 18.903 8.58998 0 0 0
211 4 O 11.0901 14.3487 10.3631 0 0 0
212 4 O 13.878 16.0331 9.99044 0 0 0
213 4 O 10.4472 18.3025 9.86215 0 0 0
214 4 O 11.3902 20.5523 8.75723 0 0 0
215 4 O 12.8737 18.2054 8.67801 0 0 0
216 4 O 13.2253 18.3447 11.3938 0 0 0
235 5 Si 17.2095 12.3004 5.84793 0 0 0
238 4 O 18.0625 11.5898 7.13367 0 0 0
239 4 O 16.0589 13.4092 6.46124 0 0 0
241 4 O 16.2498 11.0198 5.15665 0 0 0
245 5 Si 16.2705 10.788 9.96085 0 0 0
246 5 Si 18.7373 12.002 8.58975 0 0 0
249 4 O 17.8196 11.4025 9.86237 0 0 0
250 4 O 18.7626 13.6513 8.75785 0 0 0
251 4 O 20.2468 11.3051 8.67771 0 0 0
253 5 Si 14.7516 19.2008 5.84829 0 0 0
254 5 Si 16.1281 15.0794 6.48753 0 0 0
255 5 Si 18.6422 16.3132 5 0 0 0
256 4 O 15.605 18.4901 7.13321 0 0 0
257 4 O 13.6019 20.3097 6.46192 0 0 0
258 4 O 17.6894 15.583 6.22632 0 0 0
259 4 O 13.7923 17.9203 5.15665 0 0 0
260 4 O 15.1869 15.662 5.21008 0 0 0
261 4 O 15.6151 15.5977 7.98368 0 0 0
262 5 Si 14.8528 14.8684 9.29201 0 0 0
263 5 Si 13.813 17.6881 9.96124 0 0 0
264 5 Si 16.2796 18.9027 8.5899 0 0 0
265 4 O 16.0051 14.349 10.364 0 0 0
266 4 O 18.7928 16.0329 9.99024 0 0 0
267 4 O 15.3621 18.3026 9.86264 0 0 0
268 4 O 16.3063 20.5519 8.75693 0 0 0
269 4 O 17.7892 18.2055 8.67726 0 0 0
286 2 H 9.839 11.2135 11.5963 0 0 0
288 2 H 7.38359 18.1126 11.5994 0 0 0
289 2 H 8.46807 20.4346 10.8842 0 -1 0
292 2 H 14.7563 11.2125 11.599 0 0 0
293 2 H 10.9263 13.5347 10.8841 0 0 0
294 2 H 12.2984 18.1132 11.5988 0 0 0
295 2 H 13.3846 20.4348 10.883 0 -1 0
298 2 H 19.6702 11.2122 11.5984 0 0 0
299 2 H 15.8415 13.5348 10.8833 0 0 0
300 2 H 17.2136 18.1138 11.5978 0 0 0
329 1 C 7.74396 15.1982 13.4419 0 0 0
330 1 C 9.07415 14.4177 13.2702 0 0 0
331 1 C 9.9118 14.2159 14.5722 0 0 0
332 1 C 9.5602 12.9811 15.4528 0 0 0
333 1 C 8.1235 12.9585 16.0464 0 0 0
348 2 H 7.88718 13.9705 16.4551 0 0 0
339 2 H 7.92455 16.1943 13.9163 0 0 0
346 2 H 10.2985 12.9448 16.295 0 0 0
341 2 H 8.86966 13.423 12.7977 0 0 0
342 2 H 9.70525 14.9734 12.5324 0 0 0
343 2 H 10.9874 14.113 14.2834 0 0 0
344 2 H 9.85714 15.147 15.1942 0 0 0
345 2 H 9.71935 12.0481 14.8614 0 0 0
338 2 H 7.26203 15.3805 12.4509 0 0 0
349 2 H 8.71375 12.05 17.9576 0 0 0
ITEM: TIMESTEP
200000
ITEM: NUMBER OF ATOMS
357
ITEM: BOX BOUNDS xy xz yz pp pp ff
-7.3724492699999997e+00 2.4574830899999998e+01 -7.3724492699999997e+00
0.0000000000000000e+00 2.0701456793999998e+01 0.0000000000000000e+00
0.0000000000000000e+00 3.6159325252999999e+01 0.0000000000000000e+00
ITEM: ATOMS id type element x y z ix iy iz
1 5 Si 0.00622726 5.39871 5.84924 0 0 0
2 5 Si 1.38346 1.27811 6.48741 0 0 0
3 5 Si 3.89733 2.51221 5 0 0 0
4 4 O 0.858352 4.68694 7.13486 0 0 0
5 4 O -1.14378 6.50859 6.46205 0 0 0
6 4 O 2.94457 1.78139 6.226 0 0 0
7 4 O -0.952567 4.11933 5.15665 0 0 0
8 4 O 0.442021 1.86105 5.21008 0 0 0
9 4 O 0.870684 1.7965 7.98348 0 0 0
10 5 Si 0.108347 1.0673 9.29214 0 0 0
11 5 Si -0.932944 3.88682 9.96119 0 0 0
12 5 Si 1.53387 5.10158 8.5903 0 0 0
13 4 O 1.25995 0.548871 10.3652 0 0 0
14 4 O 4.0475 2.23179 9.99057 0 0 0
15 4 O 0.616427 4.50304 9.86346 0 0 0
16 4 O 1.55993 6.7512 8.75528 0 0 0
17 4 O 3.0434 4.40433 8.67773 0 0 0
18 4 O 3.39493 4.54421 11.3942 0 0 0
20 5 Si -1.07443 8.17899 6.48741 0 0 0
21 5 Si 1.43985 9.41269 5 0 0 0
24 4 O 0.48677 8.68222 6.22631 0 0 0
26 4 O -2.01546 8.76153 5.21008 0 0 0
27 4 O -1.58752 8.69681 7.98347 0 0 0
28 5 Si -2.34944 7.96739 9.29251 0 0 0
31 4 O -1.19709 7.44814 10.364 0 0 0
32 4 O 1.58973 9.13228 9.98983 0 0 0
55 5 Si 4.92164 5.3998 5.84881 0 0 0
56 5 Si 6.29867 1.27862 6.48761 0 0 0
57 5 Si 8.8123 2.51221 5 0 0 0
58 4 O 5.77436 4.68857 7.13341 0 0 0
59 4 O 3.77178 6.50872 6.46115 0 0 0
60 4 O 7.85968 1.78234 6.2264 0 0 0
61 4 O 3.9624 4.11933 5.15665 0 0 0
62 4 O 5.35699 1.86105 5.21008 0 0 0
63 4 O 5.78483 1.79682 7.98346 0 0 0
64 5 Si 5.02283 1.06715 9.29213 0 0 0
65 5 Si 3.98204 3.88696 9.96118 0 0 0
66 5 Si 6.44906 5.10138 8.58986 0 0 0
67 4 O 6.17476 0.548476 10.3642 0 0 0
68 4 O 8.9627 2.23168 9.98953 0 0 0
69 4 O 5.53151 4.50162 9.86252 0 0 0
70 4 O 6.4755 6.75064 8.75727 0 0 0
71 4 O 7.95899 4.40475 8.67802 0 0 0
72 4 O 8.30915 4.54312 11.3937 0 0 0
74 5 Si 3.84116 8.17897 6.4874 0 0 0
75 5 Si 6.35482 9.41269 5 0 0 0
78 4 O 5.40192 8.68265 6.2263 0 0 0
80 4 O 2.8995 8.76153 5.21008 0 0 0
81 4 O 3.32757 8.69718 7.98326 0 0 0
82 5 Si 2.56495 7.96765 9.29157 0 0 0
85 4 O 3.71742 7.44801 10.3633 0 0 0
86 4 O 6.5055 9.13243 9.98953 0 0 0
109 5 Si 9.8366 5.39916 5.84913 0 0 0
110 5 Si 11.2129 1.27822 6.48797 0 0 0
113 4 O 8.68707 6.50833 6.46242 0 0 0
115 4 O 8.87737 4.11933 5.15665 0 0 0
116 4 O 10.272 1.86105 5.21008 0 0 0
117 4 O 10.6991 1.7961 7.98356 0 0 0