
     Program PWSCF v.7.2 starts on 13Aug2023 at 15:50:47 

     This program is part of the open-source Quantum ESPRESSO suite
     for quantum simulation of materials; please cite
         "P. Giannozzi et al., J. Phys.:Condens. Matter 21 395502 (2009);
         "P. Giannozzi et al., J. Phys.:Condens. Matter 29 465901 (2017);
         "P. Giannozzi et al., J. Chem. Phys. 152 154105 (2020);
          URL http://www.quantum-espresso.org", 
     in publications or presentations arising from this work. More details at
     http://www.quantum-espresso.org/quote

     Parallel version (MPI), running on    36 processors

     MPI processes distributed on     1 nodes
     770478 MiB available memory on the printing compute node when the environment starts
 
     Waiting for input...
     Reading input from standard input
Warning: card &CELL ignored
Warning: card / ignored

     Current dimensions of program PWSCF are:
     Max number of different atomic species (ntypx) = 10
     Max number of k-points (npk) =  40000
     Max angular momentum in pseudopotentials (lmaxx) =  4
     file Mo.pbe-spn-kjpaw_psl.1.0.0.UPF: wavefunction(s)  4S 4D renormalized
     file S.pbe-n-kjpaw_psl.1.0.0.UPF: wavefunction(s)  3S 3P renormalized
     file H.pbe-kjpaw_psl.1.0.0.UPF: wavefunction(s)  1S renormalized
 
     R & G space division:  proc/nbgrp/npool/nimage =      36
     Subspace diagonalization in iterative solution of the eigenvalue problem:
     one sub-group per band group will be used
     custom distributed-memory algorithm (size of sub-group:  6*  6 procs)

 
     Parallelization info
     --------------------
     sticks:   dense  smooth     PW     G-vecs:    dense   smooth      PW
     Min         586     335     89               165416    71459    9765
     Max         587     337     90               165425    71461    9778
     Sum       21109   12085   3205              5955087  2572543  351657
 
     Using Slab Decomposition
 


     bravais-lattice index     =            0
     lattice parameter (alat)  =      23.8395  a.u.
     unit-cell volume          =   28182.8498 (a.u.)^3
     number of atoms/cell      =          145
     number of atomic types    =            3
     number of electrons       =      1249.00
     number of Kohn-Sham states=          750
     kinetic-energy cutoff     =      77.0000  Ry
     charge density cutoff     =     539.0000  Ry
     scf convergence threshold =      1.0E-06
     mixing beta               =       0.2000
     number of iterations used =            8  plain     mixing
     energy convergence thresh.=      1.0E-04
     force convergence thresh. =      1.0E-03
     Exchange-correlation= SLA  PW   PBX  PBC
                           (   1   4   3   4   0   0   0)
     nstep                     =         1000


     Effective Screening Medium Method
     =================================
     Boundary Conditions: Vacuum-Slab-Vacuum
     total charge in unit cell        =   0.0000
     grid points for fit at edges     =        4 
 

     celldm(1)=  23.839504  celldm(2)=   0.000000  celldm(3)=   0.000000
     celldm(4)=   0.000000  celldm(5)=   0.000000  celldm(6)=   0.000000

     crystal axes: (cart. coord. in units of alat)
               a(1) = (   1.000000   0.000000   0.000000 )  
               a(2) = (  -0.500001   0.866026   0.000000 )  
               a(3) = (   0.000000   0.000000   2.401941 )  

     reciprocal axes: (cart. coord. in units 2 pi/alat)
               b(1) = (  1.000000  0.577351  0.000000 )  
               b(2) = (  0.000000  1.154700  0.000000 )  
               b(3) = (  0.000000  0.000000  0.416330 )  


     PseudoPot. # 1 for Mo read from file:
     ./pseudo/Mo.pbe-spn-kjpaw_psl.1.0.0.UPF
     MD5 check sum: 317bf72632116215fd98f72de1686f13
     Pseudo is Projector augmented-wave + core cor, Zval = 14.0
     Generated using 'atomic' code by A. Dal Corso  v.7.2
     Shape of augmentation charge: PSQ
     Using radial grid of 1229 points,  6 beta functions with: 
                l(1) =   0
                l(2) =   0
                l(3) =   1
                l(4) =   1
                l(5) =   2
                l(6) =   2
     Q(r) pseudized with 0 coefficients 


     PseudoPot. # 2 for S  read from file:
     ./pseudo/S.pbe-n-kjpaw_psl.1.0.0.UPF
     MD5 check sum: 8b7b5302570d38d5e87fed6a1065abda
     Pseudo is Projector augmented-wave + core cor, Zval =  6.0
     Generated using 'atomic' code by A. Dal Corso  v.7.2
     Shape of augmentation charge: PSQ
     Using radial grid of 1151 points,  6 beta functions with: 
                l(1) =   0
                l(2) =   0
                l(3) =   1
                l(4) =   1
                l(5) =   2
                l(6) =   2
     Q(r) pseudized with 0 coefficients 


     PseudoPot. # 3 for H  read from file:
     ./pseudo/H.pbe-kjpaw_psl.1.0.0.UPF
     MD5 check sum: b3cb3c48ee3b58cc53e4d592112d0ca6
     Pseudo is Projector augmented-wave, Zval =  1.0
     Generated using 'atomic' code by A. Dal Corso  v.7.2
     Shape of augmentation charge: PSQ
     Using radial grid of  929 points,  2 beta functions with: 
                l(1) =   0
                l(2) =   0
     Q(r) pseudized with 0 coefficients 


     atomic species   valence    mass     pseudopotential
        Mo            14.00    95.95000     Mo( 1.00)
        S              6.00    32.06000     S ( 1.00)
        H              1.00     1.00800     H ( 1.00)

     No symmetry found



   Cartesian axes

     site n.     atom                  positions (alat units)
         1           Mo  tau(   1) = (   0.1249983   0.2165050   0.4823527  )
         2           Mo  tau(   2) = (   0.1250004   0.0721694  -0.4825273  )
         3           Mo  tau(   3) = (  -0.0000019   0.1443377  -0.0000751  )
         4           S   tau(   4) = (   0.0000004   0.0000006  -0.6064556  )
         5           S   tau(   5) = (   0.1249982   0.0721692  -0.1241671  )
         6           S   tau(   6) = (  -0.0000016   0.1443364   0.3582431  )
         7           S   tau(   7) = (   0.0000004   0.0000005  -0.3584711  )
         8           S   tau(   8) = (   0.1249982   0.0721691   0.1241550  )
         9           S   tau(   9) = (  -0.0000015   0.1443364   0.6067201  )
        10           Mo  tau(  10) = (  -0.0000021   0.4330115   0.4823527  )
        11           Mo  tau(  11) = (   0.0000001   0.2886759  -0.4825273  )
        12           Mo  tau(  12) = (  -0.1250009   0.3608432  -0.0000744  )
        13           S   tau(  13) = (  -0.1249999   0.2165071  -0.6064556  )
        14           S   tau(  14) = (  -0.0000017   0.2886753  -0.1241667  )
        15           S   tau(  15) = (  -0.1250020   0.3608427   0.3582430  )
        16           S   tau(  16) = (  -0.1249998   0.2165070  -0.3584711  )
        17           S   tau(  17) = (  -0.0000017   0.2886752   0.1241551  )
        18           S   tau(  18) = (  -0.1250020   0.3608428   0.6067200  )
        19           Mo  tau(  19) = (  -0.1250025   0.6495181   0.4823527  )
        20           Mo  tau(  20) = (  -0.1250002   0.5051824  -0.4825273  )
        21           Mo  tau(  21) = (  -0.2500019   0.5773502  -0.0000747  )
        22           S   tau(  22) = (  -0.2500002   0.4330136  -0.6064556  )
        23           S   tau(  23) = (  -0.1250019   0.5051815  -0.1241659  )
        24           S   tau(  24) = (  -0.2500023   0.5773492   0.3582430  )
        25           S   tau(  25) = (  -0.2500001   0.4330135  -0.3584711  )
        26           S   tau(  26) = (  -0.1250021   0.5051816   0.1241548  )
        27           S   tau(  27) = (  -0.2500023   0.5773492   0.6067201  )
        28           Mo  tau(  28) = (   0.2499985  -0.0000014   0.4823528  )
        29           Mo  tau(  29) = (  -0.2500004   0.7216889  -0.4825273  )
        30           Mo  tau(  30) = (  -0.3750035   0.7938587  -0.0000751  )
        31           S   tau(  31) = (  -0.3750004   0.6495201  -0.6064556  )
        32           S   tau(  32) = (  -0.2500024   0.7216883  -0.1241659  )
        33           S   tau(  33) = (  -0.3750023   0.7938557   0.3582430  )
        34           S   tau(  34) = (  -0.3750004   0.6495200  -0.3584711  )
        35           S   tau(  35) = (  -0.2500028   0.7216884   0.1241544  )
        36           S   tau(  36) = (  -0.3750023   0.7938556   0.6067199  )
        37           Mo  tau(  37) = (   0.3749981   0.2165050   0.4823525  )
        38           Mo  tau(  38) = (   0.3750004   0.0721694  -0.4825273  )
        39           Mo  tau(  39) = (   0.2499973   0.1443382  -0.0000750  )
        40           S   tau(  40) = (   0.2500004   0.0000006  -0.6064556  )
        41           S   tau(  41) = (   0.3749982   0.0721689  -0.1241664  )
        42           S   tau(  42) = (   0.2499983   0.1443364   0.3582430  )
        43           S   tau(  43) = (   0.2500004   0.0000005  -0.3584711  )
        44           S   tau(  44) = (   0.3749982   0.0721692   0.1241548  )
        45           S   tau(  45) = (   0.2499984   0.1443363   0.6067201  )
        46           Mo  tau(  46) = (   0.2499981   0.4330115   0.4823527  )
        47           Mo  tau(  47) = (   0.2500001   0.2886759  -0.4825273  )
        48           Mo  tau(  48) = (   0.1249978   0.3608446  -0.0000747  )
        49           S   tau(  49) = (   0.1250001   0.2165071  -0.6064556  )
        50           S   tau(  50) = (   0.2499977   0.2886754  -0.1241668  )
        51           S   tau(  51) = (   0.1249981   0.3608427   0.3582430  )
        52           S   tau(  52) = (   0.1250002   0.2165070  -0.3584711  )
        53           S   tau(  53) = (   0.2499978   0.2886754   0.1241550  )
        54           S   tau(  54) = (   0.1249981   0.3608427   0.6067200  )
        55           Mo  tau(  55) = (   0.1249976   0.6495181   0.4823528  )
        56           Mo  tau(  56) = (   0.1249998   0.5051824  -0.4825273  )
        57           Mo  tau(  57) = (  -0.0000011   0.5773502  -0.0000746  )
        58           S   tau(  58) = (  -0.0000002   0.4330136  -0.6064556  )
        59           S   tau(  59) = (   0.1249978   0.5051816  -0.1241667  )
        60           S   tau(  60) = (  -0.0000023   0.5773491   0.3582431  )
        61           S   tau(  61) = (  -0.0000001   0.4330135  -0.3584711  )
        62           S   tau(  62) = (   0.1249980   0.5051816   0.1241553  )
        63           S   tau(  63) = (  -0.0000022   0.5773492   0.6067201  )
        64           Mo  tau(  64) = (   0.4999983  -0.0000014   0.4823527  )
        65           Mo  tau(  65) = (  -0.0000004   0.7216889  -0.4825273  )
        66           Mo  tau(  66) = (  -0.1250019   0.7938576  -0.0000744  )
        67           S   tau(  67) = (  -0.1250004   0.6495201  -0.6064556  )
        68           S   tau(  68) = (  -0.0000024   0.7216881  -0.1241664  )
        69           S   tau(  69) = (  -0.1250026   0.7938558   0.3582428  )
        70           S   tau(  70) = (  -0.1250004   0.6495200  -0.3584711  )
        71           S   tau(  71) = (  -0.0000022   0.7216883   0.1241549  )
        72           S   tau(  72) = (  -0.1250025   0.7938557   0.6067204  )
        73           Mo  tau(  73) = (   0.6249983   0.2165053   0.4823528  )
        74           Mo  tau(  74) = (   0.6250004   0.0721694  -0.4825273  )
        75           Mo  tau(  75) = (   0.4999985   0.1443375  -0.0000751  )
        76           S   tau(  76) = (   0.5000004   0.0000006  -0.6064556  )
        77           S   tau(  77) = (   0.6249985   0.0721690  -0.1241669  )
        78           S   tau(  78) = (   0.4999982   0.1443364   0.3582430  )
        79           S   tau(  79) = (   0.5000004   0.0000005  -0.3584711  )
        80           S   tau(  80) = (   0.6249984   0.0721690   0.1241550  )
        81           S   tau(  81) = (   0.4999983   0.1443363   0.6067200  )
        82           Mo  tau(  82) = (   0.4999981   0.4330116   0.4823529  )
        83           Mo  tau(  83) = (   0.5000001   0.2886759  -0.4825273  )
        84           Mo  tau(  84) = (   0.3749964   0.3608441  -0.0000749  )
        85           S   tau(  85) = (   0.3750001   0.2165071  -0.6064556  )
        86           S   tau(  86) = (   0.4999978   0.2886755  -0.1241662  )
        87           S   tau(  87) = (   0.3749982   0.3608427   0.3582430  )
        88           S   tau(  88) = (   0.3750002   0.2165070  -0.3584711  )
        89           S   tau(  89) = (   0.4999977   0.2886754   0.1241546  )
        90           S   tau(  90) = (   0.3749981   0.3608426   0.6067200  )
        91           Mo  tau(  91) = (   0.3749980   0.6495180   0.4823527  )
        92           Mo  tau(  92) = (   0.3749998   0.5051824  -0.4825273  )
        93           Mo  tau(  93) = (   0.2499971   0.5773505  -0.0000748  )
        94           S   tau(  94) = (   0.2499998   0.4330136  -0.6064556  )
        95           S   tau(  95) = (   0.3749976   0.5051816  -0.1241666  )
        96           S   tau(  96) = (   0.2499978   0.5773492   0.3582431  )
        97           S   tau(  97) = (   0.2499999   0.4330135  -0.3584711  )
        98           S   tau(  98) = (   0.3749977   0.5051817   0.1241548  )
        99           S   tau(  99) = (   0.2499978   0.5773491   0.6067200  )
       100           Mo  tau( 100) = (   0.7499985  -0.0000012   0.4823529  )
       101           Mo  tau( 101) = (   0.2499996   0.7216889  -0.4825273  )
       102           Mo  tau( 102) = (   0.1249980   0.7938575  -0.0000752  )
       103           S   tau( 103) = (   0.1249996   0.6495201  -0.6064556  )
       104           S   tau( 104) = (   0.2499977   0.7216881  -0.1241669  )
       105           S   tau( 105) = (   0.1249975   0.7938558   0.3582429  )
       106           S   tau( 106) = (   0.1249996   0.6495200  -0.3584711  )
       107           S   tau( 107) = (   0.2499976   0.7216882   0.1241550  )
       108           S   tau( 108) = (   0.1249974   0.7938558   0.6067204  )
       109           Mo  tau( 109) = (  -0.1250017   0.2165052   0.4823527  )
       110           Mo  tau( 110) = (   0.8750004   0.0721694  -0.4825273  )
       111           Mo  tau( 111) = (   0.7499989   0.1443369  -0.0000749  )
       112           S   tau( 112) = (   0.7500004   0.0000006  -0.6064556  )
       113           S   tau( 113) = (   0.8749984   0.0721690  -0.1241671  )
       114           S   tau( 114) = (   0.7499983   0.1443364   0.3582431  )
       115           S   tau( 115) = (   0.7500004   0.0000005  -0.3584711  )
       116           S   tau( 116) = (   0.8749985   0.0721690   0.1241551  )
       117           S   tau( 117) = (   0.7499983   0.1443365   0.6067200  )
       118           Mo  tau( 118) = (  -0.2500019   0.4330117   0.4823526  )
       119           Mo  tau( 119) = (   0.7500001   0.2886759  -0.4825273  )
       120           Mo  tau( 120) = (   0.6249978   0.3608437  -0.0000747  )
       121           S   tau( 121) = (   0.6250001   0.2165071  -0.6064556  )
       122           S   tau( 122) = (   0.7499983   0.2886752  -0.1241661  )
       123           S   tau( 123) = (   0.6249980   0.3608429   0.3582430  )
       124           S   tau( 124) = (   0.6250002   0.2165070  -0.3584711  )
       125           S   tau( 125) = (   0.7499981   0.2886752   0.1241547  )
       126           S   tau( 126) = (   0.6249982   0.3608428   0.6067202  )
       127           Mo  tau( 127) = (  -0.3750021   0.6495181   0.4823527  )
       128           Mo  tau( 128) = (   0.6249998   0.5051824  -0.4825273  )
       129           Mo  tau( 129) = (   0.4999969   0.5773509  -0.0000752  )
       130           S   tau( 130) = (   0.4999998   0.4330136  -0.6064556  )
       131           S   tau( 131) = (   0.6249978   0.5051817  -0.1241660  )
       132           S   tau( 132) = (   0.4999980   0.5773491   0.3582431  )
       133           S   tau( 133) = (   0.4999999   0.4330135  -0.3584711  )
       134           S   tau( 134) = (   0.6249975   0.5051818   0.1241544  )
       135           S   tau( 135) = (   0.4999981   0.5773491   0.6067201  )
       136           Mo  tau( 136) = (  -0.0000012  -0.0000013   0.4823527  )
       137           Mo  tau( 137) = (   0.4999996   0.7216889  -0.4825273  )
       138           Mo  tau( 138) = (   0.3749969   0.7938580  -0.0000749  )
       139           S   tau( 139) = (   0.3749996   0.6495201  -0.6064556  )
       140           S   tau( 140) = (   0.4999973   0.7216884  -0.1241666  )
       141           S   tau( 141) = (   0.3749976   0.7938558   0.3582430  )
       142           S   tau( 142) = (   0.3749996   0.6495200  -0.3584711  )
       143           S   tau( 143) = (   0.4999974   0.7216884   0.1241546  )
       144           S   tau( 144) = (   0.3749976   0.7938557   0.6067202  )
       145           H   tau( 145) = (   0.2500134   0.4330448   0.6859912  )

     --------------------------------------------
     DFT-D3 Dispersion Correction (3-body terms):
     --------------------------------------------
       Reference C6 values for interpolation: 

         atom   Coordination number   C6
         H          0.912             6.05
         H          0.000            15.18
         S          0.000           268.01
         S          0.995           261.99
         S          1.990           251.62
         Mo         0.000          1691.79
         Mo         1.942          1004.01
         Mo        11.056           674.22

       Values used:

         atom   Coordination number  R0_AB[au]  C6      C8
         Mo        10.187            3.547    674.22  77634.20
         Mo        10.189            3.547    674.22  77634.20
         Mo        10.201            3.547    674.22  77634.20
         S          3.753            3.128    251.62  12327.25
         S          3.858            3.128    251.62  12327.25
         S          3.857            3.128    251.62  12327.25
         S          3.859            3.128    251.62  12327.25
         S          3.858            3.128    251.62  12327.25
         S          3.748            3.128    251.62  12327.25
         Mo        10.187            3.547    674.22  77634.20
         Mo        10.189            3.547    674.22  77634.20
         Mo        10.201            3.547    674.22  77634.20
         S          3.753            3.128    251.62  12327.25
         S          3.858            3.128    251.62  12327.25
         S          3.857            3.128    251.62  12327.25
         S          3.859            3.128    251.62  12327.25
         S          3.858            3.128    251.62  12327.25
         S          3.748            3.128    251.62  12327.25
         Mo        10.186            3.547    674.22  77634.20
         Mo        10.189            3.547    674.22  77634.20
         Mo        10.201            3.547    674.22  77634.20
         S          3.753            3.128    251.62  12327.25
         S          3.858            3.128    251.62  12327.25
         S          3.857            3.128    251.62  12327.25
         S          3.859            3.128    251.62  12327.25
         S          3.858            3.128    251.62  12327.25
         S          3.748            3.128    251.62  12327.25
         Mo        10.186            3.547    674.22  77634.20
         Mo        10.189            3.547    674.22  77634.20
         Mo        10.201            3.547    674.22  77634.20
         S          3.753            3.128    251.62  12327.25
         S          3.858            3.128    251.62  12327.25
         S          3.857            3.128    251.62  12327.25
         S          3.859            3.128    251.62  12327.25
         S          3.858            3.128    251.62  12327.25
         S          3.748            3.128    251.62  12327.25
         Mo        10.187            3.547    674.22  77634.20
         Mo        10.189            3.547    674.22  77634.20
         Mo        10.201            3.547    674.22  77634.20
         S          3.753            3.128    251.62  12327.25
         S          3.858            3.128    251.62  12327.25
         S          3.857            3.128    251.62  12327.25
         S          3.859            3.128    251.62  12327.25
         S          3.858            3.128    251.62  12327.25
         S          3.749            3.128    251.62  12327.25
         Mo        10.232            3.547    674.22  77634.20
         Mo        10.189            3.547    674.22  77634.20
         Mo        10.201            3.547    674.22  77634.20
         S          3.753            3.128    251.62  12327.25
         S          3.858            3.128    251.62  12327.25
         S          3.857            3.128    251.62  12327.25
         S          3.859            3.128    251.62  12327.25
         S          3.858            3.128    251.62  12327.25
         S          3.844            3.128    251.62  12327.25
         Mo        10.187            3.547    674.22  77634.20
         Mo        10.189            3.547    674.22  77634.20
         Mo        10.201            3.547    674.22  77634.20
         S          3.753            3.128    251.62  12327.25
         S          3.858            3.128    251.62  12327.25
         S          3.857            3.128    251.62  12327.25
         S          3.859            3.128    251.62  12327.25
         S          3.858            3.128    251.62  12327.25
         S          3.749            3.128    251.62  12327.25
         Mo        10.186            3.547    674.22  77634.20
         Mo        10.189            3.547    674.22  77634.20
         Mo        10.201            3.547    674.22  77634.20
         S          3.753            3.128    251.62  12327.25
         S          3.858            3.128    251.62  12327.25
         S          3.857            3.128    251.62  12327.25
         S          3.859            3.128    251.62  12327.25
         S          3.858            3.128    251.62  12327.25
         S          3.748            3.128    251.62  12327.25
         Mo        10.186            3.547    674.22  77634.20
         Mo        10.189            3.547    674.22  77634.20
         Mo        10.201            3.547    674.22  77634.20
         S          3.753            3.128    251.62  12327.25
         S          3.858            3.128    251.62  12327.25
         S          3.857            3.128    251.62  12327.25
         S          3.859            3.128    251.62  12327.25
         S          3.858            3.128    251.62  12327.25
         S          3.748            3.128    251.62  12327.25
         Mo        10.187            3.547    674.22  77634.20
         Mo        10.189            3.547    674.22  77634.20
         Mo        10.201            3.547    674.22  77634.20
         S          3.753            3.128    251.62  12327.25
         S          3.858            3.128    251.62  12327.25
         S          3.857            3.128    251.62  12327.25
         S          3.859            3.128    251.62  12327.25
         S          3.858            3.128    251.62  12327.25
         S          3.845            3.128    251.62  12327.25
         Mo        10.187            3.547    674.22  77634.20
         Mo        10.189            3.547    674.22  77634.20
         Mo        10.201            3.547    674.22  77634.20
         S          3.753            3.128    251.62  12327.25
         S          3.858            3.128    251.62  12327.25
         S          3.857            3.128    251.62  12327.25
         S          3.859            3.128    251.62  12327.25
         S          3.858            3.128    251.62  12327.25
         S          3.845            3.128    251.62  12327.25
         Mo        10.186            3.547    674.22  77634.20
         Mo        10.189            3.547    674.22  77634.20
         Mo        10.201            3.547    674.22  77634.20
         S          3.753            3.128    251.62  12327.25
         S          3.858            3.128    251.62  12327.25
         S          3.857            3.128    251.62  12327.25
         S          3.859            3.128    251.62  12327.25
         S          3.858            3.128    251.62  12327.25
         S          3.748            3.128    251.62  12327.25
         Mo        10.186            3.547    674.22  77634.20
         Mo        10.189            3.547    674.22  77634.20
         Mo        10.201            3.547    674.22  77634.20
         S          3.753            3.128    251.62  12327.25
         S          3.858            3.128    251.62  12327.25
         S          3.857            3.128    251.62  12327.25
         S          3.859            3.128    251.62  12327.25
         S          3.858            3.128    251.62  12327.25
         S          3.748            3.128    251.62  12327.25
         Mo        10.186            3.547    674.22  77634.20
         Mo        10.189            3.547    674.22  77634.20
         Mo        10.201            3.547    674.22  77634.20
         S          3.753            3.128    251.62  12327.25
         S          3.858            3.128    251.62  12327.25
         S          3.857            3.128    251.62  12327.25
         S          3.859            3.128    251.62  12327.25
         S          3.858            3.128    251.62  12327.25
         S          3.748            3.128    251.62  12327.25
         Mo        10.186            3.547    674.22  77634.20
         Mo        10.189            3.547    674.22  77634.20
         Mo        10.201            3.547    674.22  77634.20
         S          3.753            3.128    251.62  12327.25
         S          3.858            3.128    251.62  12327.25
         S          3.857            3.128    251.62  12327.25
         S          3.859            3.128    251.62  12327.25
         S          3.858            3.128    251.62  12327.25
         S          3.749            3.128    251.62  12327.25
         Mo        10.186            3.547    674.22  77634.20
         Mo        10.189            3.547    674.22  77634.20
         Mo        10.201            3.547    674.22  77634.20
         S          3.753            3.128    251.62  12327.25
         S          3.858            3.128    251.62  12327.25
         S          3.857            3.128    251.62  12327.25
         S          3.859            3.128    251.62  12327.25
         S          3.858            3.128    251.62  12327.25
         S          3.748            3.128    251.62  12327.25
         H          0.339            2.062     11.97    144.69

         Molecular C6 ( Ry / a.u.^6 ) =   7676840.05


     number of k points=     4  Gaussian smearing, width (Ry)=  0.0100
                       cart. coord. in units 2pi/alat
        k(    1) = (   0.0000000   0.0000000   0.0000000), wk =   0.5000000
        k(    2) = (   0.0000000  -0.5773499   0.0000000), wk =   0.5000000
        k(    3) = (  -0.5000000  -0.2886755   0.0000000), wk =   0.5000000
        k(    4) = (  -0.5000000  -0.8660254   0.0000000), wk =   0.5000000

     Dense  grid:  5955087 G-vectors     FFT dimensions: ( 180, 180, 432)

     Smooth grid:  2572543 G-vectors     FFT dimensions: ( 135, 135, 320)

     Estimated max dynamical RAM per process >       2.12 GB

     Estimated total dynamical RAM >      76.22 GB

     Initial potential from superposition of free atoms

     starting charge    1248.9546, renormalised to    1249.0000

     negative rho (up, down):  7.159E-04 0.000E+00
     Starting wfcs are  865 randomized atomic wfcs
     Checking if some PAW data can be deallocated... 

     total cpu time spent up to now is      101.5 secs

     Self-consistent Calculation

     iteration #  1     ecut=    77.00 Ry     beta= 0.20
     Davidson diagonalization with overlap
     ethr =  1.00E-02,  avg # of iterations =  2.0

     Threshold (ethr) on eigenvalues was too large:
     Diagonalizing with lowered threshold

     Davidson diagonalization with overlap
     ethr =  1.15E-04,  avg # of iterations = 19.0

     negative rho (up, down):  2.145E-04 0.000E+00

     total cpu time spent up to now is     1443.1 secs

     total energy              =  -23846.22252103 Ry
     estimated scf accuracy    <       5.17117961 Ry

     iteration #  2     ecut=    77.00 Ry     beta= 0.20
     Davidson diagonalization with overlap
     ethr =  4.14E-04,  avg # of iterations =  1.0

     negative rho (up, down):  3.719E-05 0.000E+00

     total cpu time spent up to now is     1640.6 secs

     total energy              =  -23845.20230127 Ry
     estimated scf accuracy    <       2.59754832 Ry

     iteration #  3     ecut=    77.00 Ry     beta= 0.20
     Davidson diagonalization with overlap
     ethr =  2.08E-04,  avg # of iterations = 14.5

     negative rho (up, down):  2.306E-05 0.000E+00

     total cpu time spent up to now is     1891.2 secs

     total energy              =  -23845.12371937 Ry
     estimated scf accuracy    <       0.61008470 Ry

     iteration #  4     ecut=    77.00 Ry     beta= 0.20
     Davidson diagonalization with overlap
     ethr =  4.88E-05,  avg # of iterations = 14.2

     negative rho (up, down):  2.614E-05 0.000E+00

     total cpu time spent up to now is     2726.7 secs

     total energy              =  -23846.29235679 Ry
     estimated scf accuracy    <       1.96306715 Ry

     iteration #  5     ecut=    77.00 Ry     beta= 0.20
     Davidson diagonalization with overlap
     ethr =  4.88E-05,  avg # of iterations =  1.8

     negative rho (up, down):  1.535E-05 0.000E+00

     total cpu time spent up to now is     2940.0 secs

     total energy              =  -23846.61985409 Ry
     estimated scf accuracy    <       1.08121298 Ry

     iteration #  6     ecut=    77.00 Ry     beta= 0.20
     Davidson diagonalization with overlap
     ethr =  4.88E-05,  avg # of iterations =  1.2

     negative rho (up, down):  1.616E-04 0.000E+00

     total cpu time spent up to now is     3142.2 secs

     total energy              =  -23845.56718050 Ry
     estimated scf accuracy    <       1.49704253 Ry

     iteration #  7     ecut=    77.00 Ry     beta= 0.20
     Davidson diagonalization with overlap
     ethr =  4.88E-05,  avg # of iterations = 16.5

     negative rho (up, down):  2.890E-04 0.000E+00

     total cpu time spent up to now is     3573.0 secs

     total energy              =  -23846.40544105 Ry
     estimated scf accuracy    <       0.34113497 Ry

     iteration #  8     ecut=    77.00 Ry     beta= 0.20
     Davidson diagonalization with overlap
     ethr =  2.73E-05,  avg # of iterations =  5.0

     negative rho (up, down):  1.959E-04 0.000E+00

     total cpu time spent up to now is     3811.0 secs

     total energy              =  -23846.20319626 Ry
     estimated scf accuracy    <       0.46644482 Ry

     iteration #  9     ecut=    77.00 Ry     beta= 0.20
     Davidson diagonalization with overlap
     ethr =  2.73E-05,  avg # of iterations =  1.5

     negative rho (up, down):  1.806E-04 0.000E+00

     total cpu time spent up to now is     4017.8 secs

     total energy              =  -23846.12685950 Ry
     estimated scf accuracy    <       0.13416732 Ry

     iteration # 10     ecut=    77.00 Ry     beta= 0.20
     Davidson diagonalization with overlap
     ethr =  1.07E-05,  avg # of iterations = 13.2

     negative rho (up, down):  1.974E-04 0.000E+00

     total cpu time spent up to now is     4403.7 secs

     total energy              =  -23846.19582707 Ry
     estimated scf accuracy    <       0.00460332 Ry

     iteration # 11     ecut=    77.00 Ry     beta= 0.20
     Davidson diagonalization with overlap
     c_bands:  3 eigenvalues not converged
     c_bands:  5 eigenvalues not converged
     c_bands:  2 eigenvalues not converged
     c_bands:  4 eigenvalues not converged
     ethr =  3.69E-07,  avg # of iterations = 70.0

     negative rho (up, down):  1.614E-04 0.000E+00

     total cpu time spent up to now is     6610.3 secs

     total energy              =  -23846.30031508 Ry
     estimated scf accuracy    <       0.06184746 Ry

     iteration # 12     ecut=    77.00 Ry     beta= 0.20
     Davidson diagonalization with overlap
     c_bands:  5 eigenvalues not converged
     c_bands:  3 eigenvalues not converged
     c_bands:  3 eigenvalues not converged
     c_bands:  1 eigenvalues not converged
     ethr =  3.69E-07,  avg # of iterations = 20.0

     negative rho (up, down):  1.587E-04 0.000E+00

     total cpu time spent up to now is     7371.9 secs

     total energy              =  -23846.24768702 Ry
     estimated scf accuracy    <       0.31511923 Ry

     iteration # 13     ecut=    77.00 Ry     beta= 0.20
     Davidson diagonalization with overlap
     ethr =  3.69E-07,  avg # of iterations = 17.5

     negative rho (up, down):  2.512E-04 0.000E+00

     total cpu time spent up to now is     7827.3 secs

     total energy              =  -23846.21568661 Ry
     estimated scf accuracy    <       0.16155381 Ry

     iteration # 14     ecut=    77.00 Ry     beta= 0.20
     Davidson diagonalization with overlap
     c_bands:  2 eigenvalues not converged
     c_bands:  1 eigenvalues not converged
     ethr =  3.69E-07,  avg # of iterations = 15.8

     negative rho (up, down):  2.784E-04 0.000E+00

     total cpu time spent up to now is     8407.9 secs

     total energy              =  -23846.23808702 Ry
     estimated scf accuracy    <       0.06279185 Ry

     iteration # 15     ecut=    77.00 Ry     beta= 0.20
     Davidson diagonalization with overlap
     ethr =  3.69E-07,  avg # of iterations =  3.5

     negative rho (up, down):  5.063E-04 0.000E+00

     total cpu time spent up to now is     8622.9 secs

     total energy              =  -23846.25134887 Ry
     estimated scf accuracy    <       0.08400260 Ry

     iteration # 16     ecut=    77.00 Ry     beta= 0.20
     Davidson diagonalization with overlap
     ethr =  3.69E-07,  avg # of iterations =  6.5

     negative rho (up, down):  5.669E-04 0.000E+00

     total cpu time spent up to now is     8900.6 secs

     total energy              =  -23846.22714536 Ry
     estimated scf accuracy    <       0.11558773 Ry

     iteration # 17     ecut=    77.00 Ry     beta= 0.20
     Davidson diagonalization with overlap
     ethr =  3.69E-07,  avg # of iterations =  6.0

     negative rho (up, down):  5.849E-04 0.000E+00

     total cpu time spent up to now is     9156.1 secs

     total energy              =  -23846.22054331 Ry
     estimated scf accuracy    <       0.07380820 Ry

     iteration # 18     ecut=    77.00 Ry     beta= 0.20
     Davidson diagonalization with overlap
     ethr =  3.69E-07,  avg # of iterations =  5.2

     negative rho (up, down):  5.915E-04 0.000E+00

     total cpu time spent up to now is     9388.6 secs

     total energy              =  -23846.21199330 Ry
     estimated scf accuracy    <       0.05974076 Ry

     iteration # 19     ecut=    77.00 Ry     beta= 0.20
     Davidson diagonalization with overlap
     ethr =  3.69E-07,  avg # of iterations =  7.8

     negative rho (up, down):  7.166E-04 0.000E+00

     total cpu time spent up to now is     9639.6 secs

     total energy              =  -23846.18089714 Ry
     estimated scf accuracy    <       0.04342395 Ry

     iteration # 20     ecut=    77.00 Ry     beta= 0.20
     Davidson diagonalization with overlap
     c_bands:  1 eigenvalues not converged
     c_bands:  2 eigenvalues not converged
     c_bands:  5 eigenvalues not converged
     c_bands:  4 eigenvalues not converged
     ethr =  3.69E-07,  avg # of iterations = 20.0

     negative rho (up, down):  8.208E-04 0.000E+00

     total cpu time spent up to now is    10640.2 secs

     total energy              =  -23846.20494208 Ry
     estimated scf accuracy    <       0.03814555 Ry

     iteration # 21     ecut=    77.00 Ry     beta= 0.20
     Davidson diagonalization with overlap
     ethr =  3.69E-07,  avg # of iterations =  8.2

     negative rho (up, down):  8.269E-04 0.000E+00

     total cpu time spent up to now is    11009.0 secs

     total energy              =  -23846.20606814 Ry
     estimated scf accuracy    <       0.00939602 Ry

     iteration # 22     ecut=    77.00 Ry     beta= 0.20
     Davidson diagonalization with overlap
     ethr =  3.69E-07,  avg # of iterations =  4.0

     negative rho (up, down):  8.333E-04 0.000E+00

     total cpu time spent up to now is    11231.3 secs

     total energy              =  -23846.20629926 Ry
     estimated scf accuracy    <       0.00639610 Ry

     iteration # 23     ecut=    77.00 Ry     beta= 0.20
     Davidson diagonalization with overlap
     ethr =  3.69E-07,  avg # of iterations =  1.0

     negative rho (up, down):  9.065E-04 0.000E+00

     total cpu time spent up to now is    11428.8 secs

     total energy              =  -23846.20542782 Ry
     estimated scf accuracy    <       0.00609048 Ry

     iteration # 24     ecut=    77.00 Ry     beta= 0.20
     Davidson diagonalization with overlap
     ethr =  3.69E-07,  avg # of iterations =  2.5

     negative rho (up, down):  8.921E-04 0.000E+00

     total cpu time spent up to now is    11646.5 secs

     total energy              =  -23846.20424024 Ry
     estimated scf accuracy    <       0.00403601 Ry

     iteration # 25     ecut=    77.00 Ry     beta= 0.20
     Davidson diagonalization with overlap
     ethr =  3.23E-07,  avg # of iterations =  8.0

     negative rho (up, down):  8.958E-04 0.000E+00

     total cpu time spent up to now is    11936.8 secs

     total energy              =  -23846.20609100 Ry
     estimated scf accuracy    <       0.00009923 Ry

     iteration # 26     ecut=    77.00 Ry     beta= 0.20
     Davidson diagonalization with overlap
     c_bands:  1 eigenvalues not converged
     c_bands:  1 eigenvalues not converged
     c_bands:  1 eigenvalues not converged
     c_bands:  1 eigenvalues not converged
     ethr =  7.94E-09,  avg # of iterations = 20.0

     negative rho (up, down):  8.718E-04 0.000E+00

     total cpu time spent up to now is    13112.1 secs

     total energy              =  -23846.20746850 Ry
     estimated scf accuracy    <       0.00072047 Ry

     iteration # 27     ecut=    77.00 Ry     beta= 0.20
     Davidson diagonalization with overlap
     ethr =  7.94E-09,  avg # of iterations =  6.2

     negative rho (up, down):  8.553E-04 0.000E+00

     total cpu time spent up to now is    13361.5 secs

     total energy              =  -23846.20734933 Ry
     estimated scf accuracy    <       0.00033447 Ry

     iteration # 28     ecut=    77.00 Ry     beta= 0.20
     Davidson diagonalization with overlap
     ethr =  7.94E-09,  avg # of iterations = 10.5

     negative rho (up, down):  8.694E-04 0.000E+00

     total cpu time spent up to now is    13772.1 secs

     total energy              =  -23846.20744338 Ry
     estimated scf accuracy    <       0.00000558 Ry

     iteration # 29     ecut=    77.00 Ry     beta= 0.20
     Davidson diagonalization with overlap
     c_bands:  1 eigenvalues not converged
     c_bands:  2 eigenvalues not converged
     c_bands:  2 eigenvalues not converged
     ethr =  4.47E-10,  avg # of iterations = 20.0

     negative rho (up, down):  8.644E-04 0.000E+00

     total cpu time spent up to now is    14495.0 secs

     total energy              =  -23846.20745861 Ry
     estimated scf accuracy    <       0.00000211 Ry

     iteration # 30     ecut=    77.00 Ry     beta= 0.20
     Davidson diagonalization with overlap
     c_bands:  1 eigenvalues not converged
     ethr =  1.69E-10,  avg # of iterations = 13.0

     negative rho (up, down):  8.621E-04 0.000E+00

     total cpu time spent up to now is    15004.3 secs

     total energy              =  -23846.20746370 Ry
     estimated scf accuracy    <       0.00000419 Ry

     iteration # 31     ecut=    77.00 Ry     beta= 0.20
     Davidson diagonalization with overlap
     c_bands:  1 eigenvalues not converged
     ethr =  1.69E-10,  avg # of iterations = 15.0

     negative rho (up, down):  8.584E-04 0.000E+00

     total cpu time spent up to now is    15397.6 secs

     total energy              =  -23846.20746640 Ry
     estimated scf accuracy    <       0.00001130 Ry

     iteration # 32     ecut=    77.00 Ry     beta= 0.20
     Davidson diagonalization with overlap
     c_bands:  1 eigenvalues not converged
     ethr =  1.69E-10,  avg # of iterations =  6.5

     negative rho (up, down):  8.589E-04 0.000E+00

     total cpu time spent up to now is    15624.0 secs

     total energy              =  -23846.20746374 Ry
     estimated scf accuracy    <       0.00001204 Ry

     iteration # 33     ecut=    77.00 Ry     beta= 0.20
     Davidson diagonalization with overlap
     c_bands:  3 eigenvalues not converged
     ethr =  1.69E-10,  avg # of iterations =  5.8

     negative rho (up, down):  8.629E-04 0.000E+00

     total cpu time spent up to now is    15835.4 secs

     total energy              =  -23846.20745840 Ry
     estimated scf accuracy    <       0.00000781 Ry

     iteration # 34     ecut=    77.00 Ry     beta= 0.20
     Davidson diagonalization with overlap
     c_bands:  2 eigenvalues not converged
     ethr =  1.69E-10,  avg # of iterations = 13.2

     negative rho (up, down):  8.640E-04 0.000E+00

     total cpu time spent up to now is    16223.5 secs

     End of self-consistent calculation

          k = 0.0000 0.0000 0.0000 (321495 PWs)   bands (ev):

   -66.8314 -66.8103 -66.8103 -66.8103 -66.8103 -66.8102 -66.8102 -66.7891
   -66.7891 -66.7891 -66.7891 -66.7891 -66.7891 -66.7891 -66.7890 -66.7890
   -66.7662 -66.7454 -66.7454 -66.7454 -66.7447 -66.7447 -66.7447 -66.7245
   -66.7244 -66.7243 -66.7242 -66.7239 -66.7239 -66.7232 -66.7232 -66.7232
   -66.7120 -66.6946 -66.6924 -66.6924 -66.6897 -66.6897 -66.6828 -66.6740
   -66.6740 -66.6699 -66.6694 -66.6694 -66.6681 -66.6681 -66.6678 -66.6001
   -41.1578 -41.1578 -41.1577 -41.0916 -41.0912 -41.0912 -41.0830 -41.0830
   -41.0829 -41.0829 -41.0829 -41.0829 -41.0373 -41.0329 -41.0329 -41.0169
   -41.0169 -41.0167 -41.0164 -41.0164 -41.0163 -40.9914 -40.9644 -40.9613
   -40.9613 -40.9611 -40.9574 -40.9574 -40.9574 -40.9574 -40.9574 -40.9573
   -40.9529 -40.9529 -40.9500 -40.9500 -40.9500 -40.9500 -40.9500 -40.9499
   -40.9268 -40.9225 -40.9225 -40.9225 -40.9225 -40.9225 -40.9225 -40.9084
   -40.9083 -40.9083 -40.9083 -40.9083 -40.9083 -40.9082 -40.9082 -40.9082
   -40.8916 -40.8913 -40.8913 -40.8911 -40.8911 -40.8908 -40.8858 -40.8857
   -40.8857 -40.8851 -40.8850 -40.8850 -40.8718 -40.8567 -40.8567 -40.8564
   -40.8564 -40.8561 -40.8560 -40.8447 -40.8447 -40.8447 -40.8443 -40.8442
   -40.8441 -40.8441 -40.8438 -40.8438 -40.8431 -40.8431 -40.8431 -40.8381
   -40.8381 -40.8378 -40.8346 -40.8340 -40.8340 -40.8326 -40.8314 -40.8314
   -40.8290 -40.8290 -40.8195 -40.8032 -40.8024 -40.8024 -40.8016 -40.7979
   -40.7979 -40.7979 -40.7979 -40.7979 -40.7979 -40.7939 -40.7939 -40.7930
   -40.7902 -40.7902 -40.7898 -40.7898 -40.7880 -40.7874 -40.7874 -40.7787
   -40.7787 -40.7787 -40.7506 -40.7506 -40.7322 -40.7320 -40.7320 -40.7318
   -40.7317 -40.7315 -40.7241 -40.7194 -40.7194 -40.7071 -40.6846 -40.6846
   -40.6786 -40.6786 -40.6761 -40.6756 -40.6658 -40.6658 -40.6241 -40.6241
   -20.2640 -20.1478 -20.0205 -19.4025 -19.3970 -19.3970 -19.3967 -19.3965
   -19.3965 -19.3310 -19.2886 -19.2886 -19.2834 -19.2832 -19.2832 -19.2121
   -19.1685 -19.1685 -19.1547 -19.1547 -19.1546 -19.0052 -18.8164 -18.6503
   -18.6086 -18.6020 -18.6020 -18.5969 -18.5969 -18.5969 -18.4857 -18.4559
   -18.4558 -18.4421 -18.4421 -18.4420 -18.3400 -18.3233 -18.3233 -18.3079
   -18.3078 -18.3078 -18.2912 -18.2912 -18.2911 -18.2911 -18.2910 -18.2910
   -18.2507 -18.2507 -18.2507 -18.2193 -18.2193 -18.2160 -18.2153 -18.2146
   -18.2146 -18.1839 -18.1839 -18.1825 -18.1638 -18.1637 -18.1382 -18.1295
   -18.1288 -18.1288 -18.1136 -18.1136 -18.1123 -18.0851 -18.0850 -18.0779
   -18.0663 -18.0663 -18.0643 -18.0604 -18.0602 -18.0602 -18.0216 -18.0216
   -18.0170 -17.9968 -17.9968 -17.9919 -17.9860 -17.9858 -17.9858 -17.9504
   -17.9504 -17.9457 -17.9181 -17.9181 -17.9169 -17.9084 -17.9076 -17.9076
   -12.1178 -12.0013 -11.9076 -11.9076 -11.9047 -11.8345 -11.8345 -11.8228
   -11.7450 -11.7450 -11.7016 -11.5216 -11.3546 -11.3546 -11.3539 -11.3536
   -11.3536 -11.3357 -11.2797 -11.2797 -11.2796 -11.2794 -11.2794 -11.2760
   -11.2437 -11.1579 -11.1579 -11.1564 -11.1555 -11.1555 -11.1328 -11.0682
   -11.0682 -11.0624 -11.0624 -11.0622 -11.0577 -11.0491 -11.0490 -11.0465
   -11.0445 -11.0445 -10.9855 -10.9828 -10.9828 -10.9824 -10.9823 -10.9823
   -10.9598 -10.9552 -10.9552 -10.9528 -10.9355 -10.9355 -10.9341 -10.9338
   -10.9338 -10.9081 -10.9063 -10.9063 -10.8781 -10.8781 -10.8733 -10.8733
   -10.8724 -10.8711 -10.8182 -10.7482 -10.7482 -10.7451 -10.7451 -10.7441
   -10.7408 -10.7408 -10.7405 -10.2055 -10.2004 -10.2004 -10.1176 -10.0583
   -10.0583 -10.0032  -9.9253  -9.9253  -9.9239  -9.9239  -9.9226  -9.9187
    -9.9126  -9.9126  -9.8554  -9.8316  -9.8316  -9.8297  -9.8296  -9.8277
    -9.7814  -9.7741  -9.7741  -9.7718  -9.7717  -9.7717  -9.7470  -9.7278
    -9.7277  -9.7258  -9.7257  -9.7257  -9.7253  -9.6904  -9.6903  -9.6832
    -9.6811  -9.6760  -9.6760  -9.6539  -9.6539  -9.6468  -9.6445  -9.6445
    -9.5823  -9.5823  -9.5794  -9.5770  -9.5760  -9.5760  -9.5073  -9.4547
    -9.4547  -9.4526  -9.4526  -9.4515  -9.3861  -9.3653  -9.3652  -9.3392
    -9.3389  -9.3389  -9.3286  -9.3254  -9.3254  -9.3229  -9.3229  -9.3201
    -9.2041  -9.1695  -9.1695  -9.1695  -9.1577  -9.1572  -9.1572  -9.1545
    -9.1545  -9.0983  -9.0983  -9.0981  -9.0489  -9.0340  -9.0340  -9.0339
    -9.0009  -8.9955  -8.9955  -8.9933  -8.9933  -8.9470  -8.9470  -8.9464
    -8.9464  -8.9460  -8.9458  -8.8717  -8.8717  -8.8685  -8.8685  -8.8684
    -8.8674  -8.8481  -8.8244  -8.8244  -8.8151  -8.8069  -8.8069  -8.5803
    -8.5803  -8.5568  -8.5089  -8.5088  -8.4683  -8.4683  -8.4683  -8.4683
    -8.4683  -8.4683  -8.4503  -8.4503  -8.3989  -8.3989  -8.3983  -8.3981
    -8.3981  -8.3981  -8.3400  -8.3400  -8.3330  -8.3304  -8.3304  -8.3267
    -8.1177  -8.1177  -8.1154  -7.8871  -7.8871  -7.8773  -7.8549  -7.7329
    -7.7329  -7.7328  -7.7328  -7.7328  -7.7328  -7.6879  -7.6874  -7.6874
    -7.6869  -7.6867  -7.6867  -7.6680  -7.6680  -7.6614  -7.6612  -7.6611
    -7.6606  -7.6588  -7.6588  -7.6479  -7.6199  -7.6199  -7.6172  -7.6169
    -7.6159  -7.6159  -7.6058  -7.6058  -7.5973  -7.5939  -7.5939  -7.5878
    -7.5757  -7.5714  -7.5714  -7.5687  -7.5685  -7.5685  -7.5591  -7.5445
    -7.5445  -7.5243  -7.5178  -7.5178  -7.4515  -7.4515  -7.3841  -7.3841
    -7.3363  -7.3272  -7.3272  -7.3115  -7.3114  -7.3042  -7.3042  -7.3038
    -7.0379  -6.9974  -6.9974  -6.9883  -6.9840  -6.9840  -6.9756  -6.9550
    -6.9550  -6.9549  -6.8566  -6.8566  -6.8551  -6.7630  -6.7630  -6.7617
    -6.7599  -6.7583  -6.7583  -6.7550  -6.7550  -6.7546  -6.6724  -6.6719
    -6.6719  -6.6552  -6.6516  -6.6516  -6.6493  -6.6488  -6.6488  -6.5940
    -6.5851  -6.5851  -6.5785  -6.5773  -6.5773  -6.5725  -6.5725  -6.5720
    -6.5032  -6.5014  -6.5014  -6.4995  -6.4995  -6.4995  -6.4995  -6.4995
    -6.4995  -6.4247  -6.4247  -6.4241  -6.4240  -6.4240  -6.4238  -6.3740
    -6.3694  -6.3694  -6.3613  -6.3613  -6.3595  -6.2821  -5.6530  -5.3047
    -4.7448  -3.9846  -3.9846  -3.9838  -3.9838  -3.9833  -3.9630  -3.9503
    -3.9503  -3.9502  -3.9495  -3.9495  -3.9334  -3.7330  -3.7329  -3.7313
    -3.7313  -3.7312  -3.7277  -3.7254  -3.7253  -3.7234  -3.7234  -3.7210
    -3.6402  -3.6402  -3.6402  -3.6245  -3.6245  -3.6237  -3.6236  -3.6235
    -3.6234  -3.6036  -3.5746  -3.5744  -3.5742  -3.5339  -3.5338  -3.5261
    -3.5253  -3.5252  -3.5239  -3.5153  -3.5146  -3.5145  -3.5098  -3.5098
    -3.5095  -3.5081  -3.5080  -3.4805  -3.4342  -3.4341  -3.4233  -3.4224
    -3.4223  -3.4186  -3.3924  -3.3924  -3.3894  -3.3893  -3.3880  -3.1945
    -3.1748  -3.1748  -3.1744  -3.1692  -3.1691  -3.1054  -3.1053  -3.1012
    -3.1010  -3.1009  -3.1007  -3.1004  -3.1003  -3.0813  -3.0813  -3.0799
    -3.0520  -3.0520  -3.0488  -3.0472  -3.0472  -3.0419  -3.0418  -3.0341
    -3.0340  -3.0337  -3.0330  -3.0328  -3.0327  -3.0098  -2.9983  -2.9983
    -2.9378  -2.9375  -2.9350  -2.9219  -2.9214  -2.9213  -2.9183  -2.9173
    -2.8969  -2.8848  -2.8845  -2.8785  -2.8768  -2.8759  -2.8604  -2.8551
    -2.8551  -2.7923  -2.7922  -2.7909  -2.7878  -2.7876  -2.7823  -2.7822
    -2.6820  -2.6143  -2.6128  -2.6124  -2.6121  -2.6114

          k = 0.0000-0.5773 0.0000 (321564 PWs)   bands (ev):

   -66.8252 -66.8252 -66.8146 -66.8146 -66.7997 -66.7997 -66.7997 -66.7997
   -66.7953 -66.7953 -66.7891 -66.7891 -66.7891 -66.7890 -66.7847 -66.7847
   -66.7602 -66.7598 -66.7494 -66.7494 -66.7346 -66.7346 -66.7344 -66.7343
   -66.7303 -66.7298 -66.7243 -66.7241 -66.7238 -66.7233 -66.7194 -66.7194
   -66.7082 -66.7037 -66.6955 -66.6936 -66.6824 -66.6822 -66.6788 -66.6787
   -66.6764 -66.6730 -66.6717 -66.6703 -66.6688 -66.6666 -66.6643 -66.6001
   -41.1264 -41.1264 -41.1263 -41.1263 -41.0997 -41.0997 -41.0878 -41.0878
   -41.0603 -41.0602 -41.0599 -41.0594 -41.0373 -41.0373 -41.0373 -41.0373
   -41.0335 -41.0332 -41.0214 -41.0214 -41.0074 -41.0062 -41.0025 -40.9954
   -40.9799 -40.9794 -40.9793 -40.9756 -40.9711 -40.9711 -40.9710 -40.9710
   -40.9694 -40.9694 -40.9653 -40.9595 -40.9586 -40.9586 -40.9292 -40.9292
   -40.9292 -40.9292 -40.9205 -40.9205 -40.9156 -40.9155 -40.9149 -40.9144
   -40.9114 -40.9100 -40.9084 -40.9084 -40.9083 -40.9083 -40.9083 -40.9082
   -40.9033 -40.9032 -40.8997 -40.8997 -40.8940 -40.8940 -40.8777 -40.8777
   -40.8776 -40.8776 -40.8647 -40.8647 -40.8645 -40.8645 -40.8619 -40.8576
   -40.8562 -40.8557 -40.8479 -40.8441 -40.8440 -40.8440 -40.8436 -40.8432
   -40.8431 -40.8431 -40.8431 -40.8431 -40.8422 -40.8422 -40.8409 -40.8370
   -40.8351 -40.8351 -40.8311 -40.8310 -40.8130 -40.8129 -40.8119 -40.8119
   -40.8118 -40.8118 -40.8114 -40.8113 -40.8109 -40.8062 -40.8033 -40.7991
   -40.7950 -40.7950 -40.7940 -40.7902 -40.7888 -40.7866 -40.7835 -40.7827
   -40.7818 -40.7771 -40.7771 -40.7770 -40.7770 -40.7653 -40.7647 -40.7646
   -40.7645 -40.7583 -40.7576 -40.7545 -40.7480 -40.7460 -40.7456 -40.7290
   -40.7290 -40.7217 -40.7217 -40.7179 -40.7170 -40.7111 -40.7071 -40.6993
   -40.6988 -40.6982 -40.6921 -40.6865 -40.6732 -40.6601 -40.6448 -40.6332
   -20.0284 -20.0264 -19.9229 -19.9048 -19.8009 -19.7712 -19.5929 -19.5919
   -19.4870 -19.4774 -19.3692 -19.3504 -18.9113 -18.8918 -18.8840 -18.8840
   -18.8838 -18.8837 -18.8088 -18.7888 -18.7881 -18.7837 -18.7489 -18.7069
   -18.6930 -18.6909 -18.6808 -18.6777 -18.6764 -18.6670 -18.6363 -18.6360
   -18.5664 -18.5502 -18.5446 -18.5381 -18.5265 -18.5262 -18.4604 -18.4444
   -18.3912 -18.3847 -18.3596 -18.3591 -18.3586 -18.3557 -18.2715 -18.2715
   -18.2713 -18.2713 -18.2606 -18.2543 -18.2476 -18.2441 -18.2391 -18.2327
   -18.2006 -18.2000 -18.1991 -18.1991 -18.1634 -18.1576 -18.1553 -18.1406
   -18.1310 -18.1242 -18.1200 -18.1187 -18.1176 -18.1172 -18.0779 -18.0749
   -18.0674 -18.0669 -18.0637 -18.0539 -18.0137 -18.0076 -18.0076 -18.0074
   -17.9996 -17.9992 -17.9493 -17.9489 -17.9449 -17.9379 -17.9325 -17.9324
   -17.9252 -17.9227 -17.8935 -17.8931 -17.8685 -17.8614 -17.8235 -17.8145
   -11.9902 -11.8148 -11.7846 -11.6192 -11.6190 -11.6189 -11.6173 -11.5949
   -11.5936 -11.5383 -11.5361 -11.5358 -11.5295 -11.4861 -11.4824 -11.4480
   -11.4439 -11.4363 -11.4316 -11.4300 -11.4243 -11.4236 -11.4005 -11.4004
   -11.3934 -11.3668 -11.3557 -11.3556 -11.3036 -11.2975 -11.2960 -11.2956
   -11.2899 -11.2895 -11.2231 -11.1200 -11.1193 -11.1180 -11.1026 -11.0854
   -11.0602 -11.0571 -11.0509 -11.0097 -11.0028 -10.9955 -10.9835 -10.9747
   -10.9744 -10.9742 -10.9733 -10.9483 -10.9458 -10.9441 -10.9255 -10.9132
   -10.9124 -10.9113 -10.9109 -10.9053 -10.8545 -10.8227 -10.8138 -10.8085
   -10.7092 -10.6925 -10.6368 -10.6341 -10.5292 -10.5109 -10.4253 -10.3553
   -10.2722 -10.2664 -10.2655 -10.2650 -10.2026 -10.1696 -10.1675 -10.1665
   -10.1144 -10.0800 -10.0793 -10.0793 -10.0753 -10.0509 -10.0499 -10.0468
   -10.0428 -10.0423 -10.0354 -10.0346  -9.9539  -9.9400  -9.9322  -9.9308
    -9.9143  -9.8904  -9.8877  -9.8869  -9.8580  -9.8531  -9.8523  -9.8517
    -9.8157  -9.7979  -9.7933  -9.7760  -9.7733  -9.7727  -9.7580  -9.7561
    -9.7549  -9.7527  -9.7464  -9.7329  -9.6727  -9.6717  -9.6278  -9.6195
    -9.6131  -9.6121  -9.6112  -9.6064  -9.5605  -9.5601  -9.4559  -9.4310
    -9.3819  -9.3809  -9.3230  -9.2856  -9.2807  -9.2784  -9.2727  -9.2700
    -9.2689  -9.2682  -9.2546  -9.2526  -9.2191  -9.1535  -9.1519  -9.1498
    -9.1379  -9.1331  -9.1245  -9.1054  -9.1018  -9.0996  -9.0885  -9.0747
    -9.0743  -9.0742  -9.0639  -9.0570  -9.0546  -9.0491  -9.0478  -9.0439
    -9.0184  -9.0154  -9.0012  -8.9977  -8.9831  -8.9830  -8.9743  -8.9585
    -8.9577  -8.9552  -8.9420  -8.9335  -8.9321  -8.9317  -8.9130  -8.9115
    -8.8824  -8.8739  -8.8679  -8.8651  -8.8462  -8.8383  -8.6563  -8.6562
    -8.5804  -8.5798  -8.5623  -8.5390  -8.5263  -8.5200  -8.3368  -8.3367
    -8.2662  -8.2657  -8.2345  -8.2229  -8.2101  -8.2009  -8.0773  -8.0770
    -8.0161  -8.0135  -8.0127  -8.0121  -7.9940  -7.9928  -7.9924  -7.9901
    -7.9901  -7.9881  -7.9478  -7.9444  -7.9444  -7.9442  -7.9438  -7.9292
    -7.9217  -7.9217  -7.9106  -7.9094  -7.9065  -7.9052  -7.8787  -7.8746
    -7.8743  -7.8730  -7.8664  -7.8623  -7.8475  -7.8457  -7.8447  -7.8408
    -7.8314  -7.8051  -7.8050  -7.8049  -7.8021  -7.8003  -7.7960  -7.7865
    -7.7852  -7.7831  -7.7424  -7.7412  -7.7360  -7.7358  -7.7352  -7.7277
    -7.7173  -7.7159  -7.6791  -7.6697  -7.6099  -7.6069  -7.5918  -7.5898
    -7.4887  -7.4758  -7.3840  -7.3833  -7.3830  -7.3823  -7.2649  -7.2613
    -7.2576  -7.2566  -7.2542  -7.2498  -7.1575  -7.1570  -7.1086  -7.1081
    -7.1054  -7.0952  -7.0834  -7.0832  -7.0741  -7.0739  -7.0700  -7.0640
    -6.9952  -6.9804  -6.9741  -6.9722  -6.9159  -6.9136  -6.8598  -6.8529
    -6.8018  -6.8018  -6.8018  -6.8018  -6.7719  -6.7616  -6.7372  -6.7366
    -6.7360  -6.7359  -6.6930  -6.6857  -6.6813  -6.6740  -6.6719  -6.6524
    -6.6485  -6.6475  -6.5458  -6.5446  -6.4707  -6.4705  -6.4705  -6.4705
    -6.4045  -6.4044  -6.3976  -6.3944  -6.3937  -6.3935  -6.3512  -6.3429
    -6.3367  -6.3281  -6.3269  -6.3239  -6.3216  -6.3081  -6.1217  -6.1217
    -6.0486  -6.0480  -5.9884  -5.9864  -5.8849  -5.8820  -5.7027  -5.7018
    -4.7430  -4.1607  -4.1602  -4.1596  -4.1449  -4.0371  -4.0371  -4.0185
    -4.0098  -3.9733  -3.9732  -3.9157  -3.9109  -3.9091  -3.9081  -3.9056
    -3.8794  -3.8190  -3.7880  -3.7401  -3.7396  -3.7395  -3.7376  -3.7232
    -3.7231  -3.6818  -3.6816  -3.6768  -3.6672  -3.6504  -3.6487  -3.6333
    -3.6225  -3.6188  -3.6166  -3.6145  -3.6125  -3.6119  -3.5867  -3.5784
    -3.5703  -3.5089  -3.5073  -3.5064  -3.4980  -3.4911  -3.4895  -3.4643
    -3.4608  -3.4557  -3.4554  -3.4144  -3.4140  -3.4139  -3.4139  -3.4132
    -3.4059  -3.3942  -3.3907  -3.3862  -3.3773  -3.3542  -3.3505  -3.3502
    -3.3500  -3.3467  -3.3408  -3.3330  -3.2988  -3.2740  -3.2583  -3.2542
    -3.2541  -3.2539  -3.2121  -3.2112  -3.1772  -3.1727  -3.1725  -3.1603
    -3.1508  -3.1506  -3.1506  -3.1504  -3.1253  -3.1187  -3.1033  -3.1027
    -3.0971  -3.0958  -3.0657  -3.0654  -3.0607  -3.0602  -3.0503  -3.0419
    -3.0385  -3.0300  -3.0156  -2.9979  -2.9967  -2.9945  -2.9638  -2.9636
    -2.9538  -2.9511  -2.9388  -2.9379  -2.8402  -2.8389  -2.8207  -2.7892
    -2.7879  -2.7704  -2.7694  -2.7675  -2.7119  -2.7076  -2.6737  -2.6397
    -2.6352  -2.6333  -2.6301  -2.6293  -2.4967  -2.4639

          k =-0.5000-0.2887 0.0000 (321564 PWs)   bands (ev):

   -66.8252 -66.8252 -66.8146 -66.8146 -66.7997 -66.7997 -66.7997 -66.7997
   -66.7953 -66.7953 -66.7891 -66.7891 -66.7891 -66.7890 -66.7847 -66.7847
   -66.7602 -66.7598 -66.7494 -66.7494 -66.7346 -66.7346 -66.7344 -66.7343
   -66.7303 -66.7298 -66.7243 -66.7241 -66.7238 -66.7234 -66.7194 -66.7194
   -66.7082 -66.7037 -66.6955 -66.6936 -66.6824 -66.6822 -66.6788 -66.6787
   -66.6764 -66.6730 -66.6717 -66.6703 -66.6688 -66.6666 -66.6643 -66.6001
   -41.1264 -41.1264 -41.1263 -41.1263 -41.0997 -41.0997 -41.0878 -41.0878
   -41.0603 -41.0602 -41.0599 -41.0594 -41.0373 -41.0373 -41.0373 -41.0373
   -41.0335 -41.0332 -41.0214 -41.0214 -41.0074 -41.0062 -41.0025 -40.9954
   -40.9799 -40.9793 -40.9793 -40.9756 -40.9711 -40.9711 -40.9710 -40.9710
   -40.9694 -40.9694 -40.9653 -40.9595 -40.9586 -40.9586 -40.9292 -40.9292
   -40.9292 -40.9292 -40.9205 -40.9205 -40.9156 -40.9155 -40.9149 -40.9144
   -40.9114 -40.9100 -40.9084 -40.9084 -40.9083 -40.9083 -40.9083 -40.9082
   -40.9033 -40.9032 -40.8997 -40.8997 -40.8940 -40.8940 -40.8777 -40.8777
   -40.8776 -40.8776 -40.8647 -40.8647 -40.8645 -40.8645 -40.8619 -40.8576
   -40.8561 -40.8557 -40.8479 -40.8441 -40.8440 -40.8440 -40.8436 -40.8432
   -40.8431 -40.8431 -40.8431 -40.8431 -40.8422 -40.8422 -40.8409 -40.8370
   -40.8351 -40.8351 -40.8311 -40.8311 -40.8130 -40.8129 -40.8119 -40.8119
   -40.8118 -40.8118 -40.8114 -40.8113 -40.8109 -40.8062 -40.8033 -40.7991
   -40.7950 -40.7950 -40.7940 -40.7902 -40.7888 -40.7866 -40.7835 -40.7827
   -40.7818 -40.7771 -40.7771 -40.7770 -40.7770 -40.7653 -40.7647 -40.7646
   -40.7645 -40.7583 -40.7576 -40.7545 -40.7480 -40.7460 -40.7456 -40.7290
   -40.7290 -40.7217 -40.7217 -40.7179 -40.7170 -40.7111 -40.7071 -40.6993
   -40.6988 -40.6983 -40.6921 -40.6865 -40.6731 -40.6600 -40.6448 -40.6332
   -20.0284 -20.0264 -19.9229 -19.9048 -19.8009 -19.7712 -19.5929 -19.5919
   -19.4870 -19.4774 -19.3692 -19.3504 -18.9113 -18.8918 -18.8840 -18.8840
   -18.8838 -18.8837 -18.8088 -18.7888 -18.7881 -18.7837 -18.7489 -18.7069
   -18.6930 -18.6909 -18.6808 -18.6777 -18.6764 -18.6670 -18.6362 -18.6360
   -18.5665 -18.5501 -18.5446 -18.5381 -18.5265 -18.5262 -18.4604 -18.4444
   -18.3912 -18.3847 -18.3595 -18.3591 -18.3586 -18.3557 -18.2715 -18.2715
   -18.2713 -18.2713 -18.2606 -18.2542 -18.2477 -18.2441 -18.2391 -18.2327
   -18.2006 -18.2000 -18.1991 -18.1991 -18.1634 -18.1576 -18.1553 -18.1406
   -18.1310 -18.1242 -18.1200 -18.1187 -18.1176 -18.1172 -18.0779 -18.0749
   -18.0674 -18.0669 -18.0637 -18.0539 -18.0137 -18.0076 -18.0076 -18.0074
   -17.9996 -17.9992 -17.9493 -17.9489 -17.9449 -17.9379 -17.9325 -17.9324
   -17.9252 -17.9227 -17.8935 -17.8931 -17.8685 -17.8614 -17.8235 -17.8145
   -11.9902 -11.8148 -11.7846 -11.6192 -11.6190 -11.6189 -11.6173 -11.5949
   -11.5936 -11.5383 -11.5361 -11.5358 -11.5295 -11.4861 -11.4824 -11.4479
   -11.4439 -11.4363 -11.4316 -11.4300 -11.4243 -11.4236 -11.4005 -11.4005
   -11.3934 -11.3668 -11.3557 -11.3556 -11.3036 -11.2975 -11.2960 -11.2956
   -11.2899 -11.2895 -11.2231 -11.1200 -11.1193 -11.1180 -11.1026 -11.0854
   -11.0602 -11.0571 -11.0509 -11.0097 -11.0028 -10.9955 -10.9835 -10.9747
   -10.9744 -10.9742 -10.9733 -10.9483 -10.9458 -10.9441 -10.9255 -10.9132
   -10.9124 -10.9113 -10.9109 -10.9054 -10.8545 -10.8227 -10.8137 -10.8085
   -10.7092 -10.6925 -10.6368 -10.6341 -10.5292 -10.5109 -10.4253 -10.3553
   -10.2722 -10.2664 -10.2655 -10.2650 -10.2026 -10.1696 -10.1675 -10.1665
   -10.1144 -10.0800 -10.0793 -10.0793 -10.0753 -10.0509 -10.0499 -10.0468
   -10.0428 -10.0423 -10.0354 -10.0346  -9.9539  -9.9400  -9.9322  -9.9308
    -9.9143  -9.8904  -9.8877  -9.8869  -9.8580  -9.8531  -9.8523  -9.8517
    -9.8157  -9.7980  -9.7933  -9.7760  -9.7733  -9.7727  -9.7580  -9.7561
    -9.7549  -9.7527  -9.7464  -9.7329  -9.6727  -9.6717  -9.6278  -9.6195
    -9.6131  -9.6121  -9.6112  -9.6064  -9.5605  -9.5601  -9.4559  -9.4310
    -9.3819  -9.3809  -9.3230  -9.2856  -9.2807  -9.2784  -9.2727  -9.2699
    -9.2689  -9.2682  -9.2546  -9.2526  -9.2191  -9.1535  -9.1519  -9.1498
    -9.1379  -9.1331  -9.1245  -9.1054  -9.1018  -9.0996  -9.0885  -9.0747
    -9.0743  -9.0742  -9.0639  -9.0570  -9.0546  -9.0491  -9.0478  -9.0440
    -9.0184  -9.0154  -9.0012  -8.9977  -8.9831  -8.9831  -8.9743  -8.9585
    -8.9577  -8.9552  -8.9420  -8.9335  -8.9321  -8.9317  -8.9130  -8.9115
    -8.8824  -8.8739  -8.8679  -8.8651  -8.8462  -8.8383  -8.6563  -8.6562
    -8.5804  -8.5798  -8.5623  -8.5390  -8.5263  -8.5200  -8.3368  -8.3367
    -8.2662  -8.2657  -8.2345  -8.2229  -8.2101  -8.2010  -8.0773  -8.0770
    -8.0161  -8.0135  -8.0127  -8.0121  -7.9940  -7.9928  -7.9923  -7.9901
    -7.9901  -7.9881  -7.9477  -7.9444  -7.9444  -7.9442  -7.9438  -7.9293
    -7.9217  -7.9217  -7.9106  -7.9094  -7.9065  -7.9052  -7.8787  -7.8746
    -7.8743  -7.8730  -7.8664  -7.8623  -7.8475  -7.8457  -7.8447  -7.8408
    -7.8314  -7.8051  -7.8050  -7.8049  -7.8020  -7.8003  -7.7960  -7.7865
    -7.7852  -7.7831  -7.7424  -7.7412  -7.7360  -7.7359  -7.7352  -7.7276
    -7.7174  -7.7159  -7.6791  -7.6697  -7.6099  -7.6068  -7.5918  -7.5898
    -7.4887  -7.4758  -7.3840  -7.3833  -7.3830  -7.3823  -7.2649  -7.2613
    -7.2576  -7.2567  -7.2542  -7.2498  -7.1575  -7.1570  -7.1086  -7.1081
    -7.1054  -7.0952  -7.0834  -7.0832  -7.0742  -7.0739  -7.0700  -7.0640
    -6.9952  -6.9804  -6.9741  -6.9722  -6.9159  -6.9136  -6.8598  -6.8529
    -6.8018  -6.8018  -6.8018  -6.8018  -6.7719  -6.7616  -6.7372  -6.7366
    -6.7360  -6.7359  -6.6930  -6.6857  -6.6813  -6.6740  -6.6719  -6.6524
    -6.6485  -6.6475  -6.5458  -6.5446  -6.4707  -6.4705  -6.4705  -6.4705
    -6.4045  -6.4044  -6.3976  -6.3944  -6.3937  -6.3935  -6.3512  -6.3429
    -6.3367  -6.3281  -6.3269  -6.3239  -6.3216  -6.3081  -6.1217  -6.1217
    -6.0486  -6.0480  -5.9884  -5.9864  -5.8849  -5.8820  -5.7027  -5.7018
    -4.7430  -4.1607  -4.1602  -4.1596  -4.1449  -4.0372  -4.0372  -4.0185
    -4.0098  -3.9735  -3.9733  -3.9158  -3.9109  -3.9091  -3.9081  -3.9056
    -3.8795  -3.8189  -3.7880  -3.7401  -3.7396  -3.7395  -3.7377  -3.7231
    -3.7230  -3.6819  -3.6817  -3.6768  -3.6671  -3.6504  -3.6488  -3.6333
    -3.6225  -3.6188  -3.6166  -3.6147  -3.6126  -3.6120  -3.5867  -3.5783
    -3.5703  -3.5089  -3.5075  -3.5066  -3.4981  -3.4914  -3.4896  -3.4643
    -3.4608  -3.4559  -3.4556  -3.4144  -3.4141  -3.4141  -3.4139  -3.4131
    -3.4059  -3.3941  -3.3906  -3.3860  -3.3773  -3.3542  -3.3505  -3.3502
    -3.3500  -3.3468  -3.3409  -3.3331  -3.2986  -3.2738  -3.2582  -3.2542
    -3.2539  -3.2538  -3.2121  -3.2112  -3.1773  -3.1730  -3.1727  -3.1602
    -3.1509  -3.1506  -3.1506  -3.1505  -3.1253  -3.1187  -3.1031  -3.1025
    -3.0970  -3.0958  -3.0657  -3.0653  -3.0609  -3.0605  -3.0501  -3.0422
    -3.0388  -3.0301  -3.0157  -2.9977  -2.9965  -2.9942  -2.9640  -2.9634
    -2.9537  -2.9514  -2.9358  -2.9351  -2.8420  -2.8407  -2.8209  -2.7892
    -2.7880  -2.7705  -2.7694  -2.7676  -2.7119  -2.7074  -2.6871  -2.6670
    -2.6399  -2.6346  -2.6333  -2.6300  -2.6295  -2.4756

          k =-0.5000-0.8660 0.0000 (321564 PWs)   bands (ev):

   -66.8252 -66.8252 -66.8147 -66.8146 -66.7997 -66.7997 -66.7997 -66.7997
   -66.7953 -66.7953 -66.7891 -66.7891 -66.7891 -66.7890 -66.7847 -66.7847
   -66.7602 -66.7598 -66.7494 -66.7494 -66.7346 -66.7346 -66.7344 -66.7343
   -66.7303 -66.7298 -66.7243 -66.7241 -66.7238 -66.7233 -66.7194 -66.7194
   -66.7082 -66.7037 -66.6955 -66.6936 -66.6824 -66.6822 -66.6788 -66.6787
   -66.6764 -66.6730 -66.6717 -66.6703 -66.6688 -66.6666 -66.6643 -66.6001
   -41.1264 -41.1264 -41.1263 -41.1263 -41.0997 -41.0997 -41.0878 -41.0878
   -41.0603 -41.0602 -41.0599 -41.0594 -41.0373 -41.0373 -41.0373 -41.0373
   -41.0336 -41.0332 -41.0214 -41.0214 -41.0074 -41.0062 -41.0024 -40.9954
   -40.9799 -40.9793 -40.9793 -40.9756 -40.9711 -40.9711 -40.9710 -40.9710
   -40.9694 -40.9694 -40.9653 -40.9595 -40.9586 -40.9586 -40.9292 -40.9292
   -40.9292 -40.9292 -40.9205 -40.9205 -40.9156 -40.9155 -40.9149 -40.9144
   -40.9114 -40.9100 -40.9084 -40.9084 -40.9083 -40.9083 -40.9083 -40.9082
   -40.9033 -40.9032 -40.8997 -40.8997 -40.8940 -40.8940 -40.8777 -40.8777
   -40.8776 -40.8776 -40.8647 -40.8647 -40.8645 -40.8645 -40.8619 -40.8576
   -40.8562 -40.8557 -40.8479 -40.8441 -40.8440 -40.8440 -40.8436 -40.8432
   -40.8431 -40.8431 -40.8431 -40.8431 -40.8422 -40.8422 -40.8409 -40.8370
   -40.8351 -40.8351 -40.8311 -40.8310 -40.8130 -40.8129 -40.8119 -40.8119
   -40.8118 -40.8118 -40.8114 -40.8113 -40.8109 -40.8062 -40.8033 -40.7991
   -40.7950 -40.7950 -40.7940 -40.7902 -40.7888 -40.7866 -40.7835 -40.7827
   -40.7818 -40.7771 -40.7771 -40.7770 -40.7770 -40.7653 -40.7647 -40.7646
   -40.7645 -40.7583 -40.7576 -40.7545 -40.7480 -40.7460 -40.7456 -40.7290
   -40.7290 -40.7217 -40.7217 -40.7179 -40.7170 -40.7111 -40.7071 -40.6993
   -40.6988 -40.6982 -40.6921 -40.6865 -40.6732 -40.6601 -40.6448 -40.6332
   -20.0285 -20.0264 -19.9229 -19.9048 -19.8009 -19.7712 -19.5929 -19.5919
   -19.4870 -19.4774 -19.3692 -19.3504 -18.9113 -18.8918 -18.8840 -18.8840
   -18.8838 -18.8837 -18.8088 -18.7888 -18.7881 -18.7837 -18.7489 -18.7069
   -18.6930 -18.6909 -18.6808 -18.6777 -18.6764 -18.6670 -18.6363 -18.6360
   -18.5664 -18.5502 -18.5446 -18.5381 -18.5265 -18.5262 -18.4604 -18.4444
   -18.3912 -18.3847 -18.3596 -18.3591 -18.3586 -18.3557 -18.2715 -18.2715
   -18.2713 -18.2713 -18.2606 -18.2543 -18.2476 -18.2441 -18.2391 -18.2327
   -18.2006 -18.2000 -18.1991 -18.1991 -18.1634 -18.1576 -18.1553 -18.1406
   -18.1310 -18.1242 -18.1200 -18.1187 -18.1176 -18.1172 -18.0779 -18.0749
   -18.0674 -18.0669 -18.0637 -18.0539 -18.0137 -18.0076 -18.0076 -18.0074
   -17.9996 -17.9992 -17.9493 -17.9489 -17.9449 -17.9379 -17.9325 -17.9324
   -17.9252 -17.9227 -17.8935 -17.8931 -17.8685 -17.8614 -17.8235 -17.8145
   -11.9902 -11.8148 -11.7846 -11.6192 -11.6190 -11.6189 -11.6173 -11.5949
   -11.5936 -11.5383 -11.5361 -11.5358 -11.5295 -11.4861 -11.4824 -11.4479
   -11.4439 -11.4363 -11.4316 -11.4300 -11.4243 -11.4236 -11.4005 -11.4004
   -11.3934 -11.3668 -11.3557 -11.3556 -11.3036 -11.2975 -11.2960 -11.2956
   -11.2899 -11.2895 -11.2231 -11.1200 -11.1193 -11.1180 -11.1026 -11.0854
   -11.0602 -11.0571 -11.0509 -11.0097 -11.0028 -10.9955 -10.9835 -10.9747
   -10.9744 -10.9742 -10.9733 -10.9483 -10.9458 -10.9441 -10.9255 -10.9132
   -10.9124 -10.9113 -10.9109 -10.9054 -10.8545 -10.8227 -10.8137 -10.8085
   -10.7092 -10.6925 -10.6368 -10.6341 -10.5292 -10.5109 -10.4253 -10.3553
   -10.2722 -10.2664 -10.2655 -10.2650 -10.2026 -10.1696 -10.1675 -10.1665
   -10.1144 -10.0800 -10.0793 -10.0793 -10.0753 -10.0509 -10.0499 -10.0468
   -10.0428 -10.0423 -10.0354 -10.0346  -9.9539  -9.9400  -9.9322  -9.9308
    -9.9143  -9.8904  -9.8877  -9.8869  -9.8580  -9.8531  -9.8523  -9.8517
    -9.8157  -9.7979  -9.7933  -9.7760  -9.7733  -9.7727  -9.7580  -9.7561
    -9.7549  -9.7527  -9.7464  -9.7329  -9.6727  -9.6717  -9.6278  -9.6195
    -9.6131  -9.6121  -9.6112  -9.6064  -9.5605  -9.5601  -9.4559  -9.4310
    -9.3819  -9.3809  -9.3230  -9.2856  -9.2807  -9.2784  -9.2727  -9.2700
    -9.2689  -9.2682  -9.2546  -9.2526  -9.2191  -9.1535  -9.1519  -9.1498
    -9.1379  -9.1331  -9.1245  -9.1054  -9.1018  -9.0996  -9.0885  -9.0747
    -9.0743  -9.0742  -9.0639  -9.0570  -9.0546  -9.0491  -9.0478  -9.0439
    -9.0184  -9.0154  -9.0012  -8.9977  -8.9831  -8.9830  -8.9743  -8.9585
    -8.9577  -8.9552  -8.9420  -8.9335  -8.9321  -8.9317  -8.9130  -8.9115
    -8.8824  -8.8739  -8.8679  -8.8651  -8.8462  -8.8383  -8.6563  -8.6562
    -8.5804  -8.5798  -8.5623  -8.5390  -8.5263  -8.5200  -8.3368  -8.3367
    -8.2662  -8.2657  -8.2345  -8.2229  -8.2101  -8.2009  -8.0773  -8.0770
    -8.0161  -8.0135  -8.0127  -8.0121  -7.9940  -7.9928  -7.9924  -7.9901
    -7.9901  -7.9881  -7.9478  -7.9444  -7.9444  -7.9442  -7.9438  -7.9293
    -7.9217  -7.9217  -7.9106  -7.9093  -7.9065  -7.9052  -7.8787  -7.8746
    -7.8743  -7.8730  -7.8664  -7.8623  -7.8475  -7.8457  -7.8447  -7.8408
    -7.8314  -7.8051  -7.8050  -7.8049  -7.8021  -7.8003  -7.7960  -7.7865
    -7.7852  -7.7831  -7.7424  -7.7412  -7.7360  -7.7358  -7.7352  -7.7277
    -7.7173  -7.7159  -7.6791  -7.6697  -7.6099  -7.6068  -7.5918  -7.5898
    -7.4887  -7.4758  -7.3840  -7.3833  -7.3830  -7.3823  -7.2649  -7.2613
    -7.2576  -7.2566  -7.2542  -7.2498  -7.1575  -7.1570  -7.1086  -7.1081
    -7.1054  -7.0952  -7.0834  -7.0832  -7.0742  -7.0739  -7.0700  -7.0640
    -6.9952  -6.9804  -6.9741  -6.9722  -6.9159  -6.9136  -6.8598  -6.8529
    -6.8018  -6.8018  -6.8018  -6.8018  -6.7719  -6.7616  -6.7372  -6.7366
    -6.7360  -6.7359  -6.6930  -6.6857  -6.6813  -6.6740  -6.6719  -6.6524
    -6.6485  -6.6475  -6.5458  -6.5446  -6.4707  -6.4705  -6.4705  -6.4705
    -6.4045  -6.4044  -6.3976  -6.3944  -6.3937  -6.3935  -6.3512  -6.3429
    -6.3367  -6.3281  -6.3269  -6.3239  -6.3216  -6.3081  -6.1217  -6.1217
    -6.0486  -6.0480  -5.9884  -5.9864  -5.8849  -5.8820  -5.7027  -5.7018
    -4.7430  -4.1607  -4.1602  -4.1596  -4.1449  -4.0372  -4.0370  -4.0185
    -4.0098  -3.9733  -3.9732  -3.9157  -3.9109  -3.9091  -3.9081  -3.9056
    -3.8795  -3.8190  -3.7880  -3.7401  -3.7395  -3.7394  -3.7376  -3.7231
    -3.7230  -3.6819  -3.6815  -3.6768  -3.6672  -3.6504  -3.6487  -3.6333
    -3.6225  -3.6188  -3.6166  -3.6146  -3.6125  -3.6119  -3.5867  -3.5784
    -3.5703  -3.5088  -3.5074  -3.5064  -3.4980  -3.4911  -3.4895  -3.4643
    -3.4608  -3.4558  -3.4553  -3.4144  -3.4139  -3.4139  -3.4139  -3.4133
    -3.4059  -3.3941  -3.3907  -3.3859  -3.3771  -3.3542  -3.3504  -3.3502
    -3.3499  -3.3467  -3.3410  -3.3331  -3.2985  -3.2740  -3.2583  -3.2544
    -3.2540  -3.2539  -3.2121  -3.2112  -3.1772  -3.1728  -3.1726  -3.1603
    -3.1508  -3.1506  -3.1505  -3.1504  -3.1253  -3.1187  -3.1030  -3.1026
    -3.0970  -3.0960  -3.0658  -3.0654  -3.0608  -3.0604  -3.0503  -3.0422
    -3.0386  -3.0300  -3.0157  -2.9978  -2.9968  -2.9944  -2.9639  -2.9636
    -2.9535  -2.9512  -2.9346  -2.9334  -2.8402  -2.8391  -2.8207  -2.7892
    -2.7880  -2.7703  -2.7694  -2.7676  -2.7119  -2.7077  -2.6744  -2.6398
    -2.6352  -2.6333  -2.6302  -2.6296  -2.4971  -2.4635

     the Fermi energy is    -4.7434 ev

!    total energy              =  -23846.20745966 Ry
     total all-electron energy =   -465366.057592 Ry
     estimated scf accuracy    <       0.00000013 Ry
     smearing contrib. (-TS)   =      -0.00564171 Ry
     internal energy E=F+TS    =  -23846.20181795 Ry

     The total energy is F=E-TS. E is the sum of the following terms:
     one-electron contribution =  440117.80153036 Ry
     hartree contribution      = -220166.05029697 Ry
     xc contribution           =   -1428.55093290 Ry
     ewald contribution        = -227022.86057952 Ry
     DFT-D3 Dispersion         =      -3.95250104 Ry
     one-center paw contrib.   =  -15342.58903787 Ry

     convergence has been achieved in  34 iterations

     negative rho (up, down):  8.640E-04 0.000E+00

     Forces acting on atoms (cartesian axes, Ry/au):

     atom    1 type  1   force =     0.00105588   -0.00237032   -0.00355403
     atom    2 type  1   force =     0.00000164   -0.00001254    0.00189113
     atom    3 type  1   force =    -0.00000383   -0.00004051    0.00001239
     atom    4 type  2   force =     0.00000099    0.00000106   -0.00311665
     atom    5 type  2   force =     0.00001744   -0.00000577    0.00015378
     atom    6 type  2   force =     0.00063992   -0.00014094    0.00002668
     atom    7 type  2   force =     0.00000115    0.00000052    0.00134839
     atom    8 type  2   force =    -0.00001636    0.00000510   -0.00010866
     atom    9 type  2   force =    -0.00072850   -0.00009381    0.00016422
     atom   10 type  1   force =    -0.00151690    0.00209971   -0.00355217
     atom   11 type  1   force =    -0.00000573   -0.00000883    0.00189596
     atom   12 type  1   force =    -0.00004403    0.00002190    0.00000801
     atom   13 type  2   force =     0.00000207   -0.00000187   -0.00311949
     atom   14 type  2   force =     0.00001016    0.00000524    0.00012128
     atom   15 type  2   force =     0.00019918    0.00062284    0.00002502
     atom   16 type  2   force =    -0.00000060   -0.00000140    0.00135539
     atom   17 type  2   force =     0.00000127   -0.00000246   -0.00010227
     atom   18 type  2   force =    -0.00044446   -0.00058567    0.00016813
     atom   19 type  1   force =    -0.00145067    0.00084680   -0.00063015
     atom   20 type  1   force =    -0.00000701    0.00000711    0.00189224
     atom   21 type  1   force =    -0.00000299    0.00001353   -0.00000440
     atom   22 type  2   force =     0.00000026    0.00000197   -0.00311881
     atom   23 type  2   force =     0.00000632    0.00002019    0.00015497
     atom   24 type  2   force =    -0.00000116    0.00009884    0.00021264
     atom   25 type  2   force =    -0.00000038    0.00000248    0.00135252
     atom   26 type  2   force =    -0.00000127   -0.00001528   -0.00010686
     atom   27 type  2   force =    -0.00000136    0.00021659    0.00005962
     atom   28 type  1   force =     0.00000506   -0.00167847   -0.00063298
     atom   29 type  1   force =    -0.00000026    0.00000111    0.00189935
     atom   30 type  1   force =     0.00001699   -0.00001820   -0.00000306
     atom   31 type  2   force =    -0.00000119   -0.00000053   -0.00311595
     atom   32 type  2   force =    -0.00000102    0.00000225    0.00016228
     atom   33 type  2   force =     0.00008195   -0.00004806    0.00021650
     atom   34 type  2   force =    -0.00000180   -0.00000012    0.00135345
     atom   35 type  2   force =    -0.00000230    0.00000280   -0.00022920
     atom   36 type  2   force =     0.00018480   -0.00010852    0.00005921
     atom   37 type  1   force =    -0.00105466   -0.00237558   -0.00355835
     atom   38 type  1   force =    -0.00000365   -0.00000589    0.00189128
     atom   39 type  1   force =     0.00000539    0.00007138   -0.00025066
     atom   40 type  2   force =    -0.00000069    0.00000131   -0.00311480
     atom   41 type  2   force =    -0.00002147   -0.00000753    0.00015761
     atom   42 type  2   force =    -0.00000010    0.00079509    0.00087445
     atom   43 type  2   force =    -0.00000151    0.00000125    0.00135139
     atom   44 type  2   force =     0.00001284    0.00000412   -0.00011095
     atom   45 type  2   force =    -0.00000112   -0.00297279    0.00160118
     atom   46 type  1   force =    -0.00000897   -0.00001364   -0.04296966
     atom   47 type  1   force =    -0.00000034    0.00000804    0.00189724
     atom   48 type  1   force =     0.00017718    0.00009697    0.00011176
     atom   49 type  2   force =     0.00000098   -0.00000336   -0.00312101
     atom   50 type  2   force =    -0.00000348   -0.00001539    0.00008503
     atom   51 type  2   force =     0.00009818    0.00005781   -0.00004300
     atom   52 type  2   force =    -0.00000087   -0.00000033    0.00136255
     atom   53 type  2   force =    -0.00000336    0.00006707   -0.00010719
     atom   54 type  2   force =     0.00865613    0.00499999    0.01760293
     atom   55 type  1   force =    -0.00258513    0.00027660   -0.00356203
     atom   56 type  1   force =     0.00001064   -0.00000426    0.00189818
     atom   57 type  1   force =     0.00005555   -0.00003685   -0.00025168
     atom   58 type  2   force =     0.00000037    0.00000374   -0.00312305
     atom   59 type  2   force =    -0.00001367    0.00000895    0.00008662
     atom   60 type  2   force =     0.00069028   -0.00039593    0.00087423
     atom   61 type  2   force =     0.00000013    0.00000137    0.00136355
     atom   62 type  2   force =     0.00005833   -0.00003234   -0.00010776
     atom   63 type  2   force =    -0.00257663    0.00148610    0.00159961
     atom   64 type  1   force =    -0.00032215   -0.00018625    0.00007856
     atom   65 type  1   force =    -0.00000510   -0.00000059    0.00189344
     atom   66 type  1   force =    -0.00001572   -0.00000932   -0.00000854
     atom   67 type  2   force =     0.00000141   -0.00000150   -0.00311480
     atom   68 type  2   force =    -0.00001561   -0.00001382    0.00015795
     atom   69 type  2   force =    -0.00008334   -0.00004907    0.00021765
     atom   70 type  2   force =     0.00000038   -0.00000068    0.00135127
     atom   71 type  2   force =     0.00001336    0.00001014   -0.00010943
     atom   72 type  2   force =    -0.00018659   -0.00010796    0.00005777
     atom   73 type  1   force =    -0.00058566    0.00033943    0.00046799
     atom   74 type  1   force =     0.00000610   -0.00000014    0.00189560
     atom   75 type  1   force =     0.00000195   -0.00003617    0.00001378
     atom   76 type  2   force =    -0.00000127    0.00000100   -0.00311749
     atom   77 type  2   force =    -0.00000031   -0.00000027    0.00013603
     atom   78 type  2   force =    -0.00064184   -0.00014076    0.00002693
     atom   79 type  2   force =    -0.00000200   -0.00000004    0.00135247
     atom   80 type  2   force =    -0.00000308   -0.00000438   -0.00022338
     atom   81 type  2   force =     0.00072883   -0.00009326    0.00016618
     atom   82 type  1   force =     0.00152584    0.00210089   -0.00355621
     atom   83 type  1   force =     0.00000713   -0.00000413    0.00189675
     atom   84 type  1   force =    -0.00016341    0.00010131    0.00011319
     atom   85 type  2   force =    -0.00000066   -0.00000319   -0.00312475
     atom   86 type  2   force =    -0.00001167    0.00000535    0.00011985
     atom   87 type  2   force =    -0.00009754    0.00005790   -0.00004195
     atom   88 type  2   force =    -0.00000068   -0.00000046    0.00136509
     atom   89 type  2   force =    -0.00000193   -0.00000067   -0.00010116
     atom   90 type  2   force =    -0.00867032    0.00500990    0.01762058
     atom   91 type  1   force =     0.00258430    0.00027930   -0.00355702
     atom   92 type  1   force =    -0.00001093   -0.00000500    0.00189859
     atom   93 type  1   force =     0.00000869   -0.00020276    0.00011288
     atom   94 type  2   force =     0.00000040   -0.00000000   -0.00313104
     atom   95 type  2   force =     0.00001038    0.00000902    0.00008666
     atom   96 type  2   force =     0.00000010   -0.00011082   -0.00004201
     atom   97 type  2   force =    -0.00000097    0.00000040    0.00135433
     atom   98 type  2   force =    -0.00006107   -0.00003233   -0.00010765
     atom   99 type  2   force =     0.00000266   -0.01003284    0.01764653
     atom  100 type  1   force =     0.00000277   -0.00068225    0.00046674
     atom  101 type  1   force =     0.00000005    0.00000830    0.00189771
     atom  102 type  1   force =    -0.00003323    0.00001950    0.00001703
     atom  103 type  2   force =    -0.00000333   -0.00000143   -0.00312345
     atom  104 type  2   force =     0.00000051   -0.00001034    0.00012353
     atom  105 type  2   force =    -0.00044143   -0.00048651    0.00002899
     atom  106 type  2   force =    -0.00000088   -0.00000094    0.00136524
     atom  107 type  2   force =    -0.00000013    0.00000137   -0.00010316
     atom  108 type  2   force =     0.00028557    0.00067967    0.00016616
     atom  109 type  1   force =     0.00058487    0.00033525    0.00046818
     atom  110 type  1   force =    -0.00000163    0.00000045    0.00189321
     atom  111 type  1   force =    -0.00000253    0.00000645    0.00000618
     atom  112 type  2   force =     0.00000022    0.00000077   -0.00311978
     atom  113 type  2   force =     0.00000237   -0.00000079    0.00013651
     atom  114 type  2   force =     0.00000093   -0.00000028    0.00028494
     atom  115 type  2   force =    -0.00000034    0.00000224    0.00135401
     atom  116 type  2   force =     0.00000519   -0.00000338   -0.00022395
     atom  117 type  2   force =    -0.00000032   -0.00000114    0.00000772
     atom  118 type  1   force =    -0.00000683    0.00036949    0.00008068
     atom  119 type  1   force =     0.00000224   -0.00000614    0.00189740
     atom  120 type  1   force =     0.00003586    0.00001869    0.00001311
     atom  121 type  2   force =    -0.00000109   -0.00000106   -0.00312130
[...]
     atom   63 type  2   force =     0.00017995   -0.00010380   -0.00436620
     atom   64 type  1   force =    -0.00001075   -0.00000612   -0.00264504
     atom   65 type  1   force =     0.00000007    0.00000006    0.00260451
     atom   66 type  1   force =    -0.00000027   -0.00000014   -0.00003466
     atom   67 type  2   force =     0.00000001   -0.00000001    0.00441239
     atom   68 type  2   force =     0.00000046    0.00000019   -0.00004837
     atom   69 type  2   force =    -0.00000629   -0.00000361   -0.00019815
     atom   70 type  2   force =    -0.00000010    0.00000006    0.00023505
     atom   71 type  2   force =     0.00000619   -0.00000941    0.00009025
     atom   72 type  2   force =    -0.00000265   -0.00000153   -0.00441449
     atom   73 type  1   force =    -0.00002764    0.00001599   -0.00263234
     atom   74 type  1   force =     0.00000009    0.00000005    0.00260469
     atom   75 type  1   force =    -0.00000425    0.00000439   -0.00003315
     atom   76 type  2   force =    -0.00000002   -0.00000001    0.00441239
     atom   77 type  2   force =     0.00000015    0.00000009   -0.00004863
     atom   78 type  2   force =     0.00000054   -0.00000838   -0.00021701
     atom   79 type  2   force =     0.00000001    0.00000001    0.00023520
     atom   80 type  2   force =    -0.00000603   -0.00000346    0.00008331
     atom   81 type  2   force =    -0.00005282    0.00004745   -0.00440228
     atom   82 type  1   force =    -0.00018527    0.00000326   -0.00249243
     atom   83 type  1   force =     0.00000006   -0.00000004    0.00260459
     atom   84 type  1   force =    -0.00000450    0.00000257   -0.00001872
     atom   85 type  2   force =     0.00000000    0.00000001    0.00441236
     atom   86 type  2   force =    -0.00000014    0.00000008   -0.00004760
     atom   87 type  2   force =    -0.00007232    0.00004169   -0.00010624
     atom   88 type  2   force =     0.00000000   -0.00000007    0.00023518
     atom   89 type  2   force =    -0.00000516    0.00000295    0.00008020
     atom   90 type  2   force =     0.00214378   -0.00124028   -0.00576604
     atom   91 type  1   force =    -0.00008990   -0.00016217   -0.00249237
     atom   92 type  1   force =    -0.00000000   -0.00000000    0.00260455
     atom   93 type  1   force =    -0.00000001   -0.00000520   -0.00001876
     atom   94 type  2   force =     0.00000000    0.00000000    0.00441234
     atom   95 type  2   force =    -0.00000032   -0.00000019   -0.00004548
     atom   96 type  2   force =    -0.00000002   -0.00008355   -0.00010610
     atom   97 type  2   force =     0.00000000    0.00000000    0.00023516
     atom   98 type  2   force =    -0.00000634   -0.00000368    0.00009574
     atom   99 type  2   force =    -0.00000094    0.00250217   -0.00578173
     atom  100 type  1   force =     0.00000001   -0.00003196   -0.00263231
     atom  101 type  1   force =    -0.00000000    0.00000007    0.00260459
     atom  102 type  1   force =     0.00000166   -0.00000585   -0.00003318
     atom  103 type  2   force =     0.00000001   -0.00000000    0.00441236
     atom  104 type  2   force =     0.00000000   -0.00000017   -0.00004761
     atom  105 type  2   force =    -0.00000704    0.00000479   -0.00021708
     atom  106 type  2   force =    -0.00000006    0.00000003    0.00023518
     atom  107 type  2   force =    -0.00000001   -0.00000595    0.00008017
     atom  108 type  2   force =     0.00001473   -0.00006966   -0.00440223
     atom  109 type  1   force =     0.00002762    0.00001597   -0.00263237
     atom  110 type  1   force =    -0.00000009    0.00000005    0.00260469
     atom  111 type  1   force =    -0.00000000    0.00000001   -0.00004320
     atom  112 type  2   force =     0.00000000   -0.00000000    0.00441242
     atom  113 type  2   force =    -0.00000015    0.00000009   -0.00004863
     atom  114 type  2   force =     0.00000001    0.00000004   -0.00020699
     atom  115 type  2   force =    -0.00000000    0.00000008    0.00023513
     atom  116 type  2   force =     0.00000602   -0.00000345    0.00008332
     atom  117 type  2   force =     0.00000003    0.00000006   -0.00440470
     atom  118 type  1   force =     0.00000005    0.00001230   -0.00264501
     atom  119 type  1   force =    -0.00000000   -0.00000010    0.00260469
     atom  120 type  1   force =    -0.00000592    0.00000147   -0.00003316
     atom  121 type  2   force =    -0.00000000    0.00000000    0.00441242
     atom  122 type  2   force =    -0.00000000   -0.00000018   -0.00004863
     atom  123 type  2   force =     0.00000757    0.00000369   -0.00021701
     atom  124 type  2   force =     0.00000007   -0.00000004    0.00023513
     atom  125 type  2   force =     0.00000001    0.00000694    0.00008332
     atom  126 type  2   force =    -0.00006758    0.00002206   -0.00440226
     atom  127 type  1   force =    -0.00000338   -0.00000198   -0.00263134
     atom  128 type  1   force =     0.00000001   -0.00000009    0.00260451
     atom  129 type  1   force =    -0.00000651   -0.00000377   -0.00002567
     atom  130 type  2   force =    -0.00000001   -0.00000001    0.00441236
     atom  131 type  2   force =    -0.00000007   -0.00000048   -0.00004837
     atom  132 type  2   force =    -0.00000524   -0.00000311   -0.00019902
     atom  133 type  2   force =     0.00000006    0.00000003    0.00023518
     atom  134 type  2   force =    -0.00001125   -0.00000069    0.00009027
     atom  135 type  2   force =    -0.00018009   -0.00010392   -0.00436613
     atom  136 type  1   force =     0.00001075   -0.00000606   -0.00264503
     atom  137 type  1   force =    -0.00000007    0.00000006    0.00260451
     atom  138 type  1   force =    -0.00000168   -0.00000585   -0.00003318
     atom  139 type  2   force =    -0.00000001   -0.00000000    0.00441236
     atom  140 type  2   force =    -0.00000045    0.00000018   -0.00004837
     atom  141 type  2   force =     0.00000704    0.00000481   -0.00021708
     atom  142 type  2   force =     0.00000006    0.00000003    0.00023518
     atom  143 type  2   force =    -0.00000619   -0.00000940    0.00009025
     atom  144 type  2   force =    -0.00001472   -0.00006969   -0.00440222
     atom  145 type  3   force =    -0.00001378   -0.00003045    0.00296121

     Total force =     0.003907     Total SCF correction =     0.000576
     SCF correction compared to forces is large: reduce conv_thr to get better values
     Energy error            =      2.8E-05 Ry
     Gradient error          =      9.3E-04 Ry/Bohr

     bfgs converged in  10 scf cycles and   9 bfgs steps
     (criteria: energy <  1.0E-04 Ry, force <  1.0E-03 Ry/Bohr)

     End of BFGS Geometry Optimization

     Final energy             =  -23846.2127824353 Ry

     File ./outdir/pwscf.bfgs deleted, as requested
Begin final coordinates

ATOMIC_POSITIONS (angstrom)
Mo            1.5818401232        2.7345746111        6.0892456563
Mo            1.5769197498        0.9104407117       -6.0872367793    0   0   0
Mo           -0.0001017550        1.8206697857       -0.0013593406
S             0.0000044503        0.0000077495       -7.6506323570    0   0   0
S             1.5770947739        0.9103652886       -1.5664783538
S             0.0054944317        1.8215241480        4.5242421298
S             0.0000053241        0.0000068460       -4.5222282367    0   0   0
S             1.5769145741        0.9106119660        1.5661785482
S             0.0013655478        1.8247397212        7.6555967898
Mo            0.0053190819        5.4652045872        6.0892687583
Mo            0.0000011799        3.6417399547       -6.0872367793    0   0   0
Mo           -1.5771538943        4.5521959345       -0.0013550374
S            -1.5769141197        2.7313069925       -7.6506323570    0   0   0
S             0.0001533055        3.6418389716       -1.5665836602
S            -1.5735824614        4.5565903011        4.5242491890
S            -1.5769132459        2.7313060890       -4.5222282367    0   0   0
S            -0.0008003470        3.6412849011        1.5651835391
S            -1.5728764518        4.5513964941        7.6556024566
Mo           -1.5799230972        8.1955906612        6.0833249134
Mo           -1.5769173901        6.3730391977       -6.0872367793    0   0   0
Mo           -3.1538571920        7.2835201740       -0.0009261396
S            -3.1538326896        5.4626062355       -7.6506323570    0   0   0
S            -1.5769051891        6.3732396319       -1.5664777522
S            -3.1538611178        7.2818755202        4.5168790267
S            -3.1538318159        5.4626053320       -4.5222282367    0   0   0
S            -1.5767796906        6.3729598073        1.5661836361
S            -3.1538584552        7.2847479342        7.6541530837
Mo            3.1538082061       -0.0034483127        6.0833228678
Mo           -3.1538359601        9.1043384407       -6.0872367793    0   0   0
Mo           -4.7307304212       10.0147406426       -0.0009283484
S            -4.7307512596        8.1939054785       -7.6506323570    0   0   0
S            -3.1538601188        9.1043304075       -1.5663847572
S            -4.7321396742       10.0155272213        4.5168833616
S            -4.7307503859        8.1939045750       -4.5222282367    0   0   0
S            -3.1538614217        9.1043314457        1.5662355581
S            -4.7296449556       10.0140949240        7.6541491077
Mo            4.7257577360        2.7345881892        6.0892748645
Mo            4.7307503218        0.9104407117       -6.0872367793    0   0   0
Mo            3.1538110832        1.8211102852       -0.0010359657
S             3.1538350223        0.0000077495       -7.6506323570    0   0   0
S             4.7305262317        0.9103643043       -1.5664820710
S             3.1538164821        1.8233673237        4.5255247410
S             3.1538358961        0.0000068460       -4.5222282367    0   0   0
S             4.7307068746        0.9106134015        1.5661803469
S             3.1537975037        1.8102713103        7.6588012086
Mo            3.1537639063        5.4624878976        6.0085503612
Mo            3.1538317519        3.6417399547       -6.0872367793    0   0   0
Mo            1.5769889616        4.5522247810       -0.0007306236
S             1.5769164523        2.7313069925       -7.6506323570    0   0   0
S             3.1538083330        3.6419260921       -1.5663982578
S             1.5578264598        4.5411368379        4.4979715707
S             1.5769173261        2.7313060890       -4.5222282367    0   0   0
S             3.1538108095        3.6419309933        1.5667089350
S             1.6244069580        4.5795489003        7.6613329279
Mo            1.5772939299        8.1878818533        6.0893440680
Mo            1.5769131819        6.3730391977       -6.0872367793    0   0   0
Mo            0.0001808715        7.2833456619       -0.0010362137
S            -0.0000021176        5.4626062355       -7.6506323570    0   0   0
S             1.5770517062        6.3729381748       -1.5663972005
S             0.0021808294        7.2821920074        4.5255570053
S            -0.0000012439        5.4626053320       -4.5222282367    0   0   0
S             1.5770602611        6.3729371163        1.5667079500
S            -0.0092217339        7.2887194593        7.6588183498
Mo            6.3065305552       -0.0006692827        6.0879118645
Mo           -0.0000053881        9.1043384407       -6.0872367793    0   0   0
Mo           -1.5769924813       10.0147392533       -0.0009260644
S            -1.5769206876        8.1939054785       -7.6506323570    0   0   0
S            -0.0001931627        9.1041936124       -1.5664806076
S            -1.5755861527       10.0155287382        4.5168862021
S            -1.5769198139        8.1939045750       -4.5222282367    0   0   0
S             0.0001138979        9.1042274002        1.5661805353
S            -1.5780822738       10.0140924159        7.6541451347
Mo            7.8824713895        2.7324777523        6.0865240031
Mo            7.8845808939        0.9104407117       -6.0872367793    0   0   0
Mo            6.3077192425        1.8206681245       -0.0013622297
S             6.3076655943        0.0000077495       -7.6506323570    0   0   0
S             7.8845596771        0.9104368248       -1.5667476988
S             6.3020998615        1.8215346105        4.5242526328
S             6.3076664681        0.0000068460       -4.5222282367    0   0   0
S             7.8845562753        0.9104344971        1.5662772107
S             6.3062518663        1.8247435256        7.6556048599
Mo            6.3022550637        5.4652023536        6.0893142850
Mo            6.3076623239        3.6417399547       -6.0872367793    0   0   0
Mo            4.7306244832        4.5522242427       -0.0007338780
S             4.7307470244        2.7313069925       -7.6506323570    0   0   0
S             6.3074601264        3.6418374783       -1.5665889124
S             4.7497616162        4.5411465705        4.4980134334
S             4.7307478981        2.7313060890       -4.5222282367    0   0   0
S             6.3084129747        3.6412845804        1.5651835470
S             4.6830306018        4.5796274908        7.6614951826
Mo            4.7302913576        8.1878752703        6.0893609877
Mo            4.7307437539        6.3730391977       -6.0872367793    0   0   0
Mo            3.1538025185        7.2833545829       -0.0007354535
S             3.1538284544        5.4626062355       -7.6506323570    0   0   0
S             4.7305552990        6.3729370020       -1.5664028099
S             3.1537989273        7.3054009113        4.4980719263
S             3.1538293281        5.4626053320       -4.5222282367    0   0   0
S             4.7305498369        6.3729357878        1.5667070934
S             3.1537831665        7.2281350461        7.6617257538
Mo            9.4614686313       -0.0024370022        6.0865312421
Mo            3.1538251839        9.1043384407       -6.0872367793    0   0   0
Mo            1.5767497821       10.0149340756       -0.0013628392
S             1.5769098844        8.1939054785       -7.6506323570    0   0   0
S             3.1537997204        9.1041266578       -1.5665900738
S             1.5747105668       10.0095561279        4.5242770635
S             1.5769107581        8.1939045750       -4.5222282367    0   0   0
S             3.1538001306        9.1052263379        1.5651833849
S             1.5795733792       10.0115954393        7.6556245694
Mo           -1.5748692787        2.7324738406        6.0865204894
Mo           11.0384114659        0.9104407117       -6.0872367793    0   0   0
Mo            9.4614690472        1.8208668393       -0.0011069068
S             9.4614961663        0.0000077495       -7.6506323570    0   0   0
S            11.0383812550        0.9104379791       -1.5667465948
S             9.4614641297        1.8208355626        4.5206630832
S             9.4614970401        0.0000068460       -4.5222282367    0   0   0
S            11.0383808174        0.9104337310        1.5662780526
S             9.4614649585        1.8208419994        7.6531287802
Mo           -3.1538622605        5.4638630048        6.0879064270
Mo            9.4614928959        3.6417399547       -6.0872367793    0   0   0
Mo            7.8847652750        4.5521955113       -0.0013607222
S             7.8845775964        2.7313069925       -7.6506323570    0   0   0
S             9.4614679658        3.6417289595       -1.5667465029
S             7.8811636823        4.5566065109        4.5242648796
S             7.8845784701        2.7313060890       -4.5222282367    0   0   0
S             9.4614642358        3.6417287978        1.5662831426
S             7.8804837456        4.5513888734        7.6556137519
Mo           -4.7277941510        8.1955950053        6.0833246790
Mo            7.8845743259        6.3730391977       -6.0872367793    0   0   0
Mo            6.3074246661        7.2833452592       -0.0010390201
S             6.3076590264        5.4626062355       -7.6506323570    0   0   0
S             7.8845126252        6.3732394688       -1.5664807314
S             6.3054137867        7.2821780148        4.5255792530
S             6.3076599001        5.4626053320       -4.5222282367    0   0   0
S             7.8843827863        6.3729589827        1.5661809891
S             6.3168336775        7.2887370748        7.6588298031
Mo            0.0010859678       -0.0006734726        6.0879104637
Mo            6.3076557559        9.1043384407       -6.0872367793    0   0   0
Mo            4.7308459633       10.0149354212       -0.0013616677
S             4.7307404564        8.1939054785       -7.6506323570    0   0   0
S             6.3077926203        9.1041943422       -1.5664843240
S             4.7328839199       10.0095472349        4.5242820238
S             4.7307413301        8.1939045750       -4.5222282367    0   0   0
S             6.3074850181        9.1042243371        1.5661803498
S             4.7280189738       10.0115979110        7.6556282965
H             3.1544541029        5.4639971148        8.6595395824
End final coordinates



     Writing all to output data dir ./outdir/pwscf.save/
 
     init_run     :     99.36s CPU    101.28s WALL (       1 calls)
     electrons    :  48555.09s CPU  49034.88s WALL (      10 calls)
     update_pot   :     32.12s CPU     32.18s WALL (       9 calls)
     forces       :    625.55s CPU    643.21s WALL (      10 calls)
     force_dftd3  :      4.40s CPU      4.72s WALL (      10 calls)

     Called by init_run:
     wfcinit      :     81.90s CPU     83.01s WALL (       1 calls)
     potinit      :      1.78s CPU      1.81s WALL (       1 calls)
     hinit0       :     10.90s CPU     10.92s WALL (       1 calls)

     Called by electrons:
     c_bands      :  43814.98s CPU  44071.95s WALL (     131 calls)
     sum_band     :   4385.38s CPU   4512.99s WALL (     131 calls)
     v_of_rho     :     52.80s CPU     53.34s WALL (     131 calls)
     newd         :    202.36s CPU    301.04s WALL (     131 calls)
     PAW_pot      :     77.64s CPU     77.68s WALL (     140 calls)
     mix_rho      :     12.67s CPU     12.70s WALL (     131 calls)
     energy_dftd3 :      2.08s CPU      2.08s WALL (      10 calls)

     Called by c_bands:
     init_us_2    :    203.45s CPU    203.63s WALL (    1128 calls)
     init_us_2:cp :    203.44s CPU    203.62s WALL (    1128 calls)
     cegterg      :  43135.40s CPU  43391.55s WALL (     535 calls)

     Called by *egterg:
     cdiaghg      :   2605.83s CPU   2613.68s WALL (    6863 calls)
     h_psi        :  23087.18s CPU  23162.11s WALL (    6943 calls)
     s_psi        :   4485.31s CPU   4485.64s WALL (    6943 calls)
     g_psi        :     53.47s CPU     53.50s WALL (    6404 calls)

     Called by h_psi:
     h_psi:calbec :   4507.38s CPU   4508.30s WALL (    6943 calls)
     vloc_psi     :  13994.99s CPU  14024.41s WALL (    6943 calls)
     add_vuspsi   :   4520.08s CPU   4520.55s WALL (    6943 calls)

     General routines
     calbec       :   6200.28s CPU   6201.48s WALL (    7663 calls)
     fft          :     51.74s CPU     52.56s WALL (    1812 calls)
     ffts         :      2.28s CPU      2.38s WALL (     262 calls)
     fftw         :  10770.82s CPU  10792.59s WALL ( 3030910 calls)
     interpolate  :      5.32s CPU      5.33s WALL (     131 calls)
 
     Parallel routines
 
     PWSCF        :     13h45m CPU     13h53m WALL

 
   This run was terminated on:   5:44:44  14Aug2023            

=------------------------------------------------------------------------------=
   JOB DONE.
=------------------------------------------------------------------------------=
Application 11036080 resources: utime ~1782654s, stime ~18593s, Rss ~2372760, inblocks ~0, outblocks ~33874112
