<UPF version="2.0.1">
  <PP_INFO>
    Generated using "atomic" code by A. Dal Corso  v.7.2
    Author: ADC
    Generation date:  9Jun2023
    Pseudopotential type: USPP
    Element: Al
    Functional: PBE
    Suggested minimum cutoff for wavefunctions:  29. Ry
    Suggested minimum cutoff for charge density: 121. Ry
    The Pseudo was generated with a Fully-Relativistic Calculation
    L component and cutoff radius for Local Potential:  2   1.9000
    Pseudopotential contains additional information for spin-orbit calculations.
    Valence configuration: 
    nl pn  l   occ       Rcut    Rcut US       E pseu
    3S  1  0  2.00      1.500      1.900    -0.569366
    3P  2  1  1.00      1.500      1.900    -0.199785
    3P  2  1  0.00      1.500      1.900    -0.198591
    Generation configuration:
    3S  1  0  2.00      1.500      1.900    -0.569364
    3S  1  0  0.00      1.500      1.900     6.000000
    3P  2  1  1.00      1.500      1.900    -0.199789
    3P  2  1  0.00      1.500      1.900    -0.198590
    3P  2  1  0.00      1.500      1.900     3.500000
    3P  2  1  0.00      1.500      1.900     3.500000
    3D  3  2  0.00      1.900      1.900     1.000000
    3D  3  2  0.00      1.900      1.900     1.000000
    Pseudization used: troullier-martins
    <PP_INPUTFILE>
@input
title='Al',
zed=13.,
rel=2,
config='[Ne] 3s2 3p1 3d-1',
iswitch=3,
dft='PBE'
/
@inputp
lpaw=.false.,
pseudotype=3,
file_pseudopw='Al.rel-pbe-nl-rrkjus_psl.1.0.0.UPF',
author='ADC',
lloc=2,
which_augfun='PSQ',
rmatch_augfun_nc=.true.,
nlcc=.true.,
new_core_ps=.true.,
rcore=1.8,
tm=.true.
/
5
3S  1  0  2.00  0.00  1.50  1.90  0.0
3S  1  0  0.00  6.00  1.50  1.90  0.0
3P  2  1  1.00  0.00  1.50  1.90  0.0
3P  2  1  0.00  3.50  1.50  1.90  0.0
3D  3  2  0.00  1.00  1.90  1.90  0.0
    </PP_INPUTFILE>
  </PP_INFO>
    <!-- END OF HUMAN READABLE SECTION -->
  <PP_HEADER generated="Generated using 'atomic' code by A. Dal Corso  v.7.2" author="ADC" date=" 9Jun2023" comment="" element="Al" pseudo_type="USPP" relativistic="full" is_ultrasoft="true" is_paw="false" is_coulomb="false" has_so="true" has_wfc="false" has_gipaw="false" paw_as_gipaw="false" core_correction="true" functional="PBE" z_valence="3.00000000000000" total_psenergy="-4.76459640411515" wfc_cutoff="28.5706526443271" rho_cutoff="120.580443400378" l_max="2" l_max_rho="4" l_local="2" mesh_size="1135" number_of_wfc="3" number_of_proj="6"/>
  <PP_MESH mesh="1135" dx="1.250000000000000E-002" xmin="-7.00000000000000" rmax="100.000000000000" zmesh="13.0000000000000">
    <PP_R>
   7.014476658111663E-05   7.102707912838632E-05   7.192048980127555E-05
   7.282513819701954E-05   7.374116566877076E-05   7.466871534768530E-05
   7.560793216528758E-05   7.655896287611625E-05   7.752195608065465E-05
   7.849706224855035E-05   7.948443374212593E-05   8.048422484018604E-05
   8.149659176212386E-05   8.252169269233053E-05   8.355968780491215E-05
   8.461073928871678E-05   8.567501137267717E-05   8.675267035147172E-05
   8.784388461150826E-05   8.894882465723522E-05   9.006766313778265E-05
   9.120057487393945E-05   9.234773688546930E-05   9.350932841877036E-05
   9.468553097488315E-05   9.587652833784997E-05   9.708250660343188E-05
   9.830365420818649E-05   9.954016195891138E-05   1.007922230624585E-04
   1.020600331559224E-04   1.033437903372098E-04   1.046436951959918E-04
   1.059599508450475E-04   1.072927629519999E-04   1.086423397714524E-04
   1.100088921775288E-04   1.113926336968227E-04   1.127937805417618E-04
   1.142125516443913E-04   1.156491686905825E-04   1.171038561546717E-04
   1.185768413345346E-04   1.200683543871025E-04   1.215786283643244E-04
   1.231078992495819E-04   1.246564059945621E-04   1.262243905565943E-04
   1.278120979364565E-04   1.294197762166570E-04   1.310476766001980E-04
   1.326960534498263E-04   1.343651643277784E-04   1.360552700360247E-04
   1.377666346570208E-04   1.394995255949704E-04   1.412542136176082E-04
   1.430309728985078E-04   1.448300810599213E-04   1.466518192161597E-04
   1.484964720175161E-04   1.503643276947436E-04   1.522556781040920E-04
   1.541708187729107E-04   1.561100489458257E-04   1.580736716314968E-04
   1.600619936499638E-04   1.620753256805872E-04   1.641139823105929E-04
   1.661782820842273E-04   1.682685475525296E-04   1.703851053237321E-04
   1.725282861142926E-04   1.746984248005698E-04   1.768958604711489E-04
   1.791209364798241E-04   1.813740004992487E-04   1.836554045752595E-04
   1.859655051818849E-04   1.883046632770448E-04   1.906732443589506E-04
   1.930716185232153E-04   1.955001605206814E-04   1.979592498159769E-04
   2.004492706468076E-04   2.029706120839940E-04   2.055236680922654E-04
   2.081088375918174E-04   2.107265245206437E-04   2.133771378976530E-04
   2.160610918865779E-04   2.187788058606898E-04   2.215307044683264E-04
   2.243172176992437E-04   2.271387809518036E-04   2.299958351010046E-04
   2.328888265673704E-04   2.358182073867033E-04   2.387844352807161E-04
   2.417879737285523E-04   2.448292920392052E-04   2.479088654248482E-04
   2.510271750750883E-04   2.541847082321525E-04   2.573819582670209E-04
   2.606194247565163E-04   2.638976135613642E-04   2.672170369052349E-04
   2.705782134547791E-04   2.739816684006715E-04   2.774279335396716E-04
   2.809175473577187E-04   2.844510551140717E-04   2.880290089265062E-04
   2.916519678575852E-04   2.953204980020126E-04   2.990351725750869E-04
   3.027965720022680E-04   3.066052840098685E-04   3.104619037168891E-04
   3.143670337280051E-04   3.183212842277259E-04   3.223252730757369E-04
   3.263796259034416E-04   3.304849762117184E-04   3.346419654699053E-04
   3.388512432160312E-04   3.431134671583078E-04   3.474293032778974E-04
   3.517994259329748E-04   3.562245179640958E-04   3.607052708008932E-04
   3.652423845701137E-04   3.698365682050146E-04   3.744885395561356E-04
   3.791990255034655E-04   3.839687620700167E-04   3.887984945368318E-04
   3.936889775594350E-04   3.986409752857481E-04   4.036552614754911E-04
   4.087326196210827E-04   4.138738430700631E-04   4.190797351490561E-04
   4.243511092892901E-04   4.296887891537000E-04   4.350936087656237E-04
   4.405664126391219E-04   4.461080559109344E-04   4.517194044740963E-04
   4.574013351132380E-04   4.631547356415815E-04   4.689805050396645E-04
   4.748795535958082E-04   4.808528030483509E-04   4.869011867296728E-04
   4.930256497120294E-04   4.992271489552221E-04   5.055066534561246E-04
   5.118651444000903E-04   5.183036153142667E-04   5.248230722228329E-04
   5.314245338041948E-04   5.381090315501551E-04   5.448776099270861E-04
   5.517313265391307E-04   5.586712522934532E-04   5.656984715675720E-04
   5.728140823787957E-04   5.800191965557900E-04   5.873149399123047E-04
   5.947024524230823E-04   6.021828884019826E-04   6.097574166823463E-04
   6.174272207996272E-04   6.251934991763239E-04   6.330574653092331E-04
   6.410203479590622E-04   6.490833913424260E-04   6.572478553262569E-04
   6.655150156246642E-04   6.738861639982637E-04   6.823626084560199E-04
   6.909456734596250E-04   6.996367001304473E-04   7.084370464590877E-04
   7.173480875175635E-04   7.263712156741701E-04   7.355078408110394E-04
   7.447593905444372E-04   7.541273104478329E-04   7.636130642777702E-04
   7.732181342025835E-04   7.829440210339906E-04   7.927922444615955E-04
   8.027643432903465E-04   8.128618756809735E-04   8.230864193934559E-04
   8.334395720335509E-04   8.439229513024214E-04   8.545381952494082E-04
   8.652869625279743E-04   8.761709326548752E-04   8.871918062725871E-04
   8.983513054150340E-04   9.096511737766629E-04   9.210931769848940E-04
   9.326791028760076E-04   9.444107617744960E-04   9.562899867759293E-04
   9.683186340333845E-04   9.804985830474669E-04   9.928317369599902E-04
   1.005320022851345E-03   1.017965392041610E-03   1.030769820395448E-03
   1.043735308630841E-03   1.056863882631703E-03   1.070157593764433E-03
   1.083618519198440E-03   1.097248762230712E-03   1.111050452614452E-03
   1.125025746891863E-03   1.139176828731109E-03   1.153505909267516E-03
   1.168015227449073E-03   1.182707050386264E-03   1.197583673706315E-03
   1.212647421911885E-03   1.227900648744278E-03   1.243345737551221E-03
   1.258985101659264E-03   1.274821184750866E-03   1.290856461246229E-03
   1.307093436689928E-03   1.323534648142414E-03   1.340182664576424E-03
   1.357040087278397E-03   1.374109550254927E-03   1.391393720644331E-03
   1.408895299133398E-03   1.426617020379376E-03   1.444561653437262E-03
   1.462732002192481E-03   1.481130905798995E-03   1.499761239122923E-03
   1.518625913191752E-03   1.537727875649187E-03   1.557070111215722E-03
   1.576655642155020E-03   1.596487528746134E-03   1.616568869761695E-03
   1.636902802952090E-03   1.657492505535752E-03   1.678341194695598E-03
   1.699452128081726E-03   1.720828604320431E-03   1.742473963529613E-03
   1.764391587840687E-03   1.786584901927044E-03   1.809057373539162E-03
   1.831812514046452E-03   1.854853878985913E-03   1.878185068617695E-03
   1.901809728487646E-03   1.925731549996934E-03   1.949954270978842E-03
   1.974481676282802E-03   1.999317598365796E-03   2.024465917891178E-03
   2.049930564335037E-03   2.075715516600191E-03   2.101824803637890E-03
   2.128262505077352E-03   2.155032751863217E-03   2.182139726901008E-03
   2.209587665710726E-03   2.237380857088652E-03   2.265523643777484E-03
   2.294020423144901E-03   2.322875647870654E-03   2.352093826642315E-03
   2.381679524859761E-03   2.411637365348530E-03   2.441972029082150E-03
   2.472688255913544E-03   2.503790845315649E-03   2.535284657131336E-03
   2.567174612332775E-03   2.599465693790351E-03   2.632162947051233E-03
   2.665271481127771E-03   2.698796469295772E-03   2.732743149902843E-03
   2.767116827186898E-03   2.801922872104941E-03   2.837166723172309E-03
   2.872853887312433E-03   2.908989940717314E-03   2.945580529718820E-03
   2.982631371670924E-03   3.020148255843063E-03   3.058137044324717E-03
   3.096603672941373E-03   3.135554152182017E-03   3.174994568138273E-03
   3.214931083455378E-03   3.255369938295101E-03   3.296317451310783E-03
   3.337780020634644E-03   3.379764124877494E-03   3.422276324141040E-03
   3.465323261042909E-03   3.508911661754570E-03   3.553048337052317E-03
   3.597740183381460E-03   3.642994183933918E-03   3.688817409739344E-03
   3.735217020769998E-03   3.782200267059506E-03   3.829774489835688E-03
   3.877947122667644E-03   3.926725692627263E-03   3.976117821465338E-03
   4.026131226802493E-03   4.076773723335063E-03   4.128053224056164E-03
   4.179977741492115E-03   4.232555388954402E-03   4.285794381807417E-03
   4.339703038752105E-03   4.394289783125792E-03   4.449563144218345E-03
   4.505531758604886E-03   4.562204371495288E-03   4.619589838100614E-03
   4.677697125016768E-03   4.736535311625557E-03   4.796113591513341E-03
   4.856441273907570E-03   4.917527785131354E-03   4.979382670076350E-03
   5.042015593694182E-03   5.105436342506584E-03   5.169654826134599E-03
   5.234681078846940E-03   5.300525261127891E-03   5.367197661264898E-03
   5.434708696956123E-03   5.503068916938251E-03   5.572289002634730E-03
   5.642379769824780E-03   5.713352170333377E-03   5.785217293742493E-03
   5.857986369123874E-03   5.931670766793596E-03   6.006282000088705E-03
   6.081831727166207E-03   6.158331752824657E-03   6.235794030348713E-03
   6.314230663376833E-03   6.393653907792505E-03   6.474076173639261E-03
   6.555510027059757E-03   6.637968192259272E-03   6.721463553493879E-03
   6.806009157083640E-03   6.891618213451132E-03   6.978304099185578E-03
   7.066080359132995E-03   7.154960708512579E-03   7.244959035059746E-03
   7.336089401196127E-03   7.428366046226833E-03   7.521803388565391E-03
   7.616416027986642E-03   7.712218747907980E-03   7.809226517699315E-03
   7.907454495022030E-03   8.006918028197437E-03   8.107632658604954E-03
   8.209614123110477E-03   8.312878356525331E-03   8.417441494096071E-03
   8.523319874025685E-03   8.630530040026445E-03   8.739088743904905E-03
   8.849012948179417E-03   8.960319828730535E-03   9.073026777484809E-03
   9.187151405132283E-03   9.302711543878208E-03   9.419725250229381E-03
   9.538210807815480E-03   9.658186730245943E-03   9.779671764002741E-03
   9.902684891369556E-03   1.002724533339782E-02   1.015337255291002E-02
   1.028108625754080E-02   1.041040640281636E-02   1.054135319527250E-02
   1.067394709561195E-02   1.080820882190140E-02   1.094415935280874E-02
   1.108181993088102E-02   1.122121206586365E-02   1.136235753806130E-02
   1.150527840174116E-02   1.164999698857897E-02   1.179653591114835E-02
   1.194491806645408E-02   1.209516663950982E-02   1.224730510696079E-02
   1.240135724075206E-02   1.255734711184296E-02   1.271529909396820E-02
   1.287523786744635E-02   1.303718842303617E-02   1.320117606584144E-02
   1.336722641926501E-02   1.353536542901243E-02   1.370561936714604E-02
   1.387801483619006E-02   1.405257877328728E-02   1.422933845440803E-02
   1.440832149861209E-02   1.458955587236426E-02   1.477306989390417E-02
   1.495889223767104E-02   1.514705193878416E-02   1.533757839757963E-02
   1.553050138420427E-02   1.572585104326724E-02   1.592365789855021E-02
   1.612395285777676E-02   1.632676721744178E-02   1.653213266770159E-02
   1.674008129732561E-02   1.695064559871030E-02   1.716385847295614E-02
   1.737975323500853E-02   1.759836361886327E-02   1.781972378283761E-02
   1.804386831490751E-02   1.827083223811217E-02   1.850065101602633E-02
   1.873336055830160E-02   1.896899722627743E-02   1.920759783866258E-02
   1.944919967728819E-02   1.969384049293309E-02   1.994155851122243E-02
   2.019239243860057E-02   2.044638146837897E-02   2.070356528686030E-02
   2.096398407953944E-02   2.122767853738255E-02   2.149468986318518E-02
   2.176505977801023E-02   2.203883052770694E-02   2.231604488951196E-02
   2.259674617873330E-02   2.288097825551851E-02   2.316878553170786E-02
   2.346021297777379E-02   2.375530612984769E-02   2.405411109683491E-02
   2.435667456761949E-02   2.466304381835929E-02   2.497326671987306E-02
   2.528739174512033E-02   2.560546797677536E-02   2.592754511489649E-02
   2.625367348469183E-02   2.658390404438266E-02   2.691828839316581E-02
   2.725687877927607E-02   2.759972810815013E-02   2.794688995069318E-02
   2.829841855164942E-02   2.865436883807793E-02   2.901479642793516E-02
   2.937975763876531E-02   2.974930949650010E-02   3.012350974436916E-02
   3.050241685192254E-02   3.088609002416668E-02   3.127458921081532E-02
   3.166797511565682E-02   3.206630920603912E-02   3.246965372247428E-02
   3.287807168836360E-02   3.329162691984518E-02   3.371038403576534E-02
   3.413440846777539E-02   3.456376647055552E-02   3.499852513216721E-02
   3.543875238453584E-02   3.588451701406527E-02   3.633588867238575E-02
   3.679293788723725E-02   3.725573607348943E-02   3.772435554430049E-02
   3.819886952241613E-02   3.867935215161086E-02   3.916587850827303E-02
   3.965852461313572E-02   4.015736744315509E-02   4.066248494353827E-02
   4.117395603992234E-02   4.169186065070672E-02   4.221627969954051E-02
   4.274729512796704E-02   4.328498990822738E-02   4.382944805622487E-02
   4.438075464465284E-02   4.493899581628739E-02   4.550425879744732E-02
   4.607663191162351E-02   4.665620459327951E-02   4.724306740182600E-02
   4.783731203577080E-02   4.843903134704694E-02   4.904831935552104E-02
   4.966527126368402E-02   5.028998347152673E-02   5.092255359160263E-02
   5.156308046427997E-02   5.221166417318574E-02   5.286840606084404E-02
   5.353340874451094E-02   5.420677613220874E-02   5.488861343896175E-02
   5.557902720323634E-02   5.627812530358785E-02   5.698601697551679E-02
   5.770281282853708E-02   5.842862486345914E-02   5.916356648989007E-02
   5.990775254395424E-02   6.066129930623668E-02   6.142432451995210E-02
   6.219694740934252E-02   6.297928869830632E-02   6.377147062926160E-02
   6.457361698224674E-02   6.538585309426143E-02   6.620830587885063E-02
   6.704110384593524E-02   6.788437712189198E-02   6.873825746988585E-02
   6.960287831045846E-02   7.047837474237523E-02   7.136488356373485E-02
   7.226254329334432E-02   7.317149419236264E-02   7.409187828621709E-02
   7.502383938679485E-02   7.596752311491398E-02   7.692307692307696E-02
   7.789065011851037E-02   7.887039388649456E-02   7.986246131398658E-02
   8.086700741354035E-02   8.188418914752768E-02   8.291416545266400E-02
   8.395709726484248E-02   8.501314754428063E-02   8.608248130098314E-02
   8.716526562052514E-02   8.826166969015944E-02   8.937186482525258E-02
   9.049602449605315E-02   9.163432435479681E-02   9.278694226315240E-02
   9.395405832001311E-02   9.513585488963733E-02   9.633251663014344E-02
   9.754423052236307E-02   9.877118589905708E-02   1.000135744744994E-01
   1.012715903744325E-01   1.025454301664002E-01   1.038352928904618E-01
   1.051413800902921E-01   1.064638958446732E-01   1.078030467993826E-01
   1.091590421994814E-01   1.105320939220096E-01   1.119224165090925E-01
   1.133302272014628E-01   1.147557459724055E-01   1.161991955621287E-01
   1.176608015125677E-01   1.191407922026257E-01   1.206393988838592E-01
   1.221568557166111E-01   1.236933998065987E-01   1.252492712419624E-01
   1.268247131307791E-01   1.284199716390495E-01   1.300352960291609E-01
   1.316709386988358E-01   1.333271552205689E-01   1.350042043815615E-01
   1.367023482241569E-01   1.384218520867853E-01   1.401629846454238E-01
   1.419260179555770E-01   1.437112274947864E-01   1.455188922056747E-01
   1.473492945395305E-01   1.492027205004427E-01   1.510794596899883E-01
   1.529798053524841E-01   1.549040544208060E-01   1.568525075627858E-01
   1.588254692281913E-01   1.608232476962967E-01   1.628461551240520E-01
   1.648945075948585E-01   1.669686251679572E-01   1.690688319284387E-01
   1.711954560378822E-01   1.733488297856315E-01   1.755292896407157E-01
   1.777371763044235E-01   1.799728347635378E-01   1.822366143442416E-01
   1.845288687666999E-01   1.868499562003299E-01   1.892002393197654E-01
   1.915800853615255E-01   1.939898661813961E-01   1.964299583125329E-01
   1.989007430242959E-01   2.014026063818233E-01   2.039359393063545E-01
   2.065011376363132E-01   2.090986021891574E-01   2.117287388240081E-01
   2.143919585050655E-01   2.170886773658232E-01   2.198193167740896E-01
   2.225843033978278E-01   2.253840692718233E-01   2.282190518651899E-01
   2.310896941497257E-01   2.339964446691281E-01   2.369397576090795E-01
   2.399200928682149E-01   2.429379161299822E-01   2.459936989354059E-01
   2.490879187567663E-01   2.522210590722058E-01   2.553936094412730E-01
   2.586060655814177E-01   2.618589294454478E-01   2.651527092999597E-01
   2.684879198047571E-01   2.718650820932670E-01   2.752847238539677E-01
   2.787473794128418E-01   2.822535898168651E-01   2.858039029185466E-01
   2.893988734615317E-01   2.930390631672817E-01   2.967250408228443E-01
   3.004573823697272E-01   3.042366709938907E-01   3.080634972168713E-01
   3.119384589880520E-01   3.158621617780935E-01   3.198352186735392E-01
   3.238582504726125E-01   3.279318857822169E-01   3.320567611161574E-01
   3.362335209945969E-01   3.404628180447643E-01   3.447453131029282E-01
   3.490816753176542E-01   3.534725822543608E-01   3.579187200011902E-01
   3.624207832762111E-01   3.669794755359697E-01   3.715955090854062E-01
   3.762696051891544E-01   3.810024941842398E-01   3.857949155941970E-01
   3.906476182446218E-01   3.955613603801760E-01   4.005369097830655E-01
   4.055750438930072E-01   4.106765499287061E-01   4.158422250108592E-01
   4.210728762867078E-01   4.263693210561558E-01   4.317323868994739E-01
   4.371629118066113E-01   4.426617443081333E-01   4.482297436078059E-01
   4.538677797168477E-01   4.595767335898713E-01   4.653574972625346E-01
   4.712109739909222E-01   4.771380783926821E-01   4.831397365899359E-01
   4.892168863539874E-01   4.953704772518509E-01   5.016014707946242E-01
   5.079108405877254E-01   5.142995724830211E-01   5.207686647328676E-01
   5.273191281460909E-01   5.339519862459260E-01   5.406682754299459E-01
   5.474690451319999E-01   5.543553579861901E-01   5.613282899929104E-01
   5.683889306869733E-01   5.755383833078526E-01   5.827777649720652E-01
   5.901082068477257E-01   5.975308543312906E-01   6.050468672265304E-01
   6.126574199257521E-01   6.203637015932981E-01   6.281669163513581E-01
   6.360682834681134E-01   6.440690375482514E-01   6.521704287258753E-01
   6.603737228598382E-01   6.686802017315391E-01   6.770911632452010E-01
   6.856079216306724E-01   6.942318076487790E-01   7.029641687992559E-01
   7.118063695312998E-01   7.207597914567643E-01   7.298258335660408E-01
   7.390059124466545E-01   7.483014625046067E-01   7.577139361885069E-01
   7.672448042165174E-01   7.768955558061582E-01   7.866676989070004E-01
   7.965627604362843E-01   8.065822865175061E-01   8.167278427220008E-01
   8.270010143135662E-01   8.374034064961650E-01   8.479366446647388E-01
   8.586023746591825E-01   8.694022630215069E-01   8.803379972562405E-01
   8.914112860941075E-01   9.026238597590164E-01   9.139774702384158E-01
   9.254738915570415E-01   9.371149200541138E-01   9.489023746640201E-01
   9.608380972005240E-01   9.729239526445563E-01   9.851618294356186E-01
   9.975536397668570E-01   1.010101319883848E+00   1.022806830387138E+00
   1.035672156538592E+00   1.048699308571597E+00   1.061890322005162E+00
   1.075247257961972E+00   1.088772203490447E+00   1.102467271890841E+00
   1.116334603045456E+00   1.130376363752996E+00   1.144594748067142E+00
   1.158991977639369E+00   1.173570302066090E+00   1.188331999240156E+00
   1.203279375706783E+00   1.218414767023956E+00   1.233740538127360E+00
   1.249259083699911E+00   1.264972828545928E+00   1.280884227970012E+00
   1.296995768160695E+00   1.313309966578912E+00   1.329829372351358E+00
   1.346556566668792E+00   1.363494163189358E+00   1.380644808446973E+00
   1.398011182264851E+00   1.415595998174235E+00   1.433402003838386E+00
   1.451431981481915E+00   1.469688748325512E+00   1.488175157026140E+00
   1.506894096122769E+00   1.525848490487718E+00   1.545041301783667E+00
   1.564475528926432E+00   1.584154208553541E+00   1.604080415498724E+00
   1.624257263272356E+00   1.644687904547950E+00   1.665375531654774E+00
   1.686323377076652E+00   1.707534713957050E+00   1.729012856610510E+00
   1.750761161040518E+00   1.772783025463891E+00   1.795081890841748E+00
   1.817661241417171E+00   1.840524605259627E+00   1.863675554816230E+00
   1.887117707469951E+00   1.910854726104835E+00   1.934890319678337E+00
   1.959228243800853E+00   1.983872301322544E+00   2.008826342927537E+00
   2.034094267735600E+00   2.059680023911395E+00   2.085587609281378E+00
   2.111821071958470E+00   2.138384510974591E+00   2.165282076921127E+00
   2.192517972597484E+00   2.220096453667772E+00   2.248021829325765E+00
   2.276298462968228E+00   2.304930772876694E+00   2.333923232907841E+00
   2.363280373192533E+00   2.393006780843667E+00   2.423107100672919E+00
   2.453586035916501E+00   2.484448348970053E+00   2.515698862132782E+00
   2.547342458360948E+00   2.579384082030842E+00   2.611828739711351E+00
   2.644681500946246E+00   2.677947499046311E+00   2.711631931891428E+00
   2.745740062742761E+00   2.780277221065150E+00   2.815248803359847E+00
   2.850660274007738E+00   2.886517166123155E+00   2.922825082418445E+00
   2.959589696079396E+00   2.996816751651691E+00   3.034512065938504E+00
   3.072681528909381E+00   3.111331104620570E+00   3.150466832146909E+00
   3.190094826525444E+00   3.230221279710924E+00   3.270852461543293E+00
   3.311994720727380E+00   3.353654485824887E+00   3.395838266258866E+00
   3.438552653330835E+00   3.481804321250676E+00   3.525600028179499E+00
   3.569946617285615E+00   3.614851017813793E+00   3.660320246167977E+00
   3.706361407007603E+00   3.752981694357726E+00   3.800188392733094E+00
   3.847988878276367E+00   3.896390619910667E+00   3.945401180506594E+00
   3.995028218063959E+00   4.045279486908344E+00   4.096162838902742E+00
   4.147686224674429E+00   4.199857694857252E+00   4.252685401349572E+00
   4.306177598588012E+00   4.360342644837217E+00   4.415189003495865E+00
   4.470725244419079E+00   4.526960045257493E+00   4.583902192813153E+00
   4.641560584412462E+00   4.699944229296413E+00   4.759062250028303E+00
   4.818923883919143E+00   4.879538484471026E+00   4.940915522838607E+00
   5.003064589309001E+00   5.065995394800288E+00   5.129717772378863E+00
   5.194241678795858E+00   5.259577196042935E+00   5.325734532927588E+00
   5.392724026668303E+00   5.460556144509765E+00   5.529241485358390E+00
   5.598790781438437E+00   5.669214899968911E+00   5.740524844861614E+00
   5.812731758440514E+00   5.885846923182760E+00   5.959881763481608E+00
   6.034847847431474E+00   6.110756888635493E+00   6.187620748035793E+00
   6.265451435766780E+00   6.344261113031772E+00   6.424062094003175E+00
   6.504866847746621E+00   6.586688000169281E+00   6.669538335992685E+00
   6.753430800750373E+00   6.838378502810641E+00   6.924394715424762E+00
   7.011492878800957E+00   7.099686602204453E+00   7.188989666083974E+00
   7.279416024224934E+00   7.370979805929766E+00   7.463695318225650E+00
   7.557577048100005E+00   7.652639664764143E+00   7.748898021945317E+00
   7.846367160207675E+00   7.945062309302373E+00   8.044998890547248E+00
   8.146192519236456E+00   8.248659007080350E+00   8.352414364676131E+00
   8.457474804009509E+00   8.563856740987873E+00   8.671576798005326E+00
   8.780651806539925E+00   8.891098809783674E+00   9.002935065305532E+00
   9.116178047747949E+00   9.230845451557343E+00   9.346955193748844E+00
   9.464525416705895E+00   9.583574491015035E+00   9.704121018336322E+00
   9.826183834309917E+00   9.949782011499151E+00   1.007493486237067E+01
   1.020166194231205E+01   1.032998305268735E+01   1.045991824393115E+01
   1.059148781868144E+01   1.072471233495195E+01   1.085961260934438E+01
   1.099620972030108E+01   1.113452501139854E+01   1.127458009468240E+01
   1.141639685404436E+01   1.155999744864161E+01   1.170540431635920E+01
   1.185264017731606E+01   1.200172803741501E+01   1.215269119193751E+01
   1.230555322918359E+01   1.246033803415757E+01   1.261706979230014E+01
   1.277577299326739E+01   1.293647243475735E+01   1.309919322638470E+01
   1.326396079360418E+01   1.343080088168341E+01   1.359973955972557E+01
   1.377080322474283E+01   1.394401860578087E+01   1.411941276809538E+01
   1.429701311738109E+01   1.447684740405388E+01   1.465894372758694E+01
   1.484333054090128E+01   1.503003665481161E+01   1.521909124252812E+01
   1.541052384421476E+01   1.560436437160500E+01   1.580064311267564E+01
   1.599939073637928E+01   1.620063829743651E+01   1.640441724118816E+01
   1.661075940850879E+01   1.681969704078186E+01   1.703126278493747E+01
   1.724548969855362E+01   1.746241125502139E+01   1.768206134877531E+01
   1.790447430058941E+01   1.812968486293989E+01   1.835772822543536E+01
   1.858864002031514E+01   1.882245632801697E+01   1.905921368281464E+01
   1.929894907852651E+01   1.954169997429593E+01   1.978750430044423E+01
   2.003640046439746E+01   2.028842735668763E+01   2.054362435702939E+01
   2.080203134047329E+01   2.106368868363620E+01   2.132863727101032E+01
   2.159691850135150E+01   2.186857429414776E+01   2.214364709616947E+01
   2.242217988810155E+01   2.270421619125943E+01   2.298980007438928E+01
   2.327897616055384E+01   2.357178963410495E+01   2.386828624774357E+01
   2.416851232966881E+01   2.447251479081677E+01   2.478034113219050E+01
   2.509203945228216E+01   2.540765845458838E+01   2.572724745522041E+01
   2.605085639060981E+01   2.637853582531111E+01   2.671033695990267E+01
   2.704631163898683E+01   2.738651235929073E+01   2.773099227786906E+01
   2.807980522040992E+01   2.843300568964530E+01   2.879064887386709E+01
   2.915279065555045E+01   2.951948762008556E+01   2.989079706461914E+01
   3.026677700700739E+01   3.064748619488123E+01   3.103298411482581E+01
   3.142333100167543E+01   3.181858784792529E+01   3.221881641326184E+01
   3.262407923421266E+01   3.303443963391803E+01   3.344996173202528E+01
   3.387071045470761E+01   3.429675154480901E+01   3.472815157211658E+01
   3.516497794376226E+01   3.560729891475535E+01   3.605518359864746E+01
   3.650870197833173E+01   3.696792491697764E+01   3.743292416910366E+01
   3.790377239178898E+01   3.838054315602631E+01   3.886331095821762E+01
   3.935215123181417E+01   3.984714035910326E+01   4.034835568314311E+01
   4.085587551984778E+01   4.136977917022438E+01   4.189014693276381E+01
   4.241706011598763E+01   4.295060105115277E+01   4.349085310511578E+01
   4.403790069335934E+01   4.459182929318203E+01   4.515272545705457E+01
   4.572067682614371E+01   4.629577214400633E+01   4.687810127045597E+01
   4.746775519560336E+01   4.806482605407396E+01   4.866940713940416E+01
   4.928159291861853E+01   4.990147904699064E+01   5.052916238298921E+01
   5.116474100341249E+01   5.180831421871304E+01   5.245998258851504E+01
   5.311984793732721E+01   5.378801337045275E+01   5.446458329010000E+01
   5.514966341169538E+01   5.584336078040164E+01   5.654578378784410E+01
   5.725704218904669E+01   5.797724711958169E+01   5.870651111293474E+01
   5.944494811808845E+01   6.019267351732737E+01   6.094980414426631E+01
   6.171645830210613E+01   6.249275578211877E+01   6.327881788236481E+01
   6.407476742664677E+01   6.488072878370028E+01   6.569682788662710E+01
   6.652319225257244E+01   6.735995100264969E+01   6.820723488211603E+01
   6.906517628080141E+01   6.993390925379485E+01   7.081356954239085E+01
   7.170429459529910E+01   7.260622359012146E+01   7.351949745509827E+01
   7.444425889112904E+01   7.538065239406956E+01   7.632882427730971E+01
   7.728892269463546E+01   7.826109766337778E+01   7.924550108785344E+01
   8.024228678310031E+01   8.125161049891116E+01   8.227362994417025E+01
   8.330850481149508E+01   8.435639680218921E+01   8.541746965150809E+01
   8.649188915424313E+01   8.757982319062769E+01   8.868144175256836E+01
   8.979691697020664E+01   9.092642313881477E+01   9.207013674602950E+01