<UPF version="2.0.1">
  <PP_INFO>
    Generated using "atomic" code by A. Dal Corso  v.7.2
    Author: ADC
    Generation date:  9Jun2023
    Pseudopotential type: USPP
    Element: Co
    Functional: REVPBE
    Suggested minimum cutoff for wavefunctions:  45. Ry
    Suggested minimum cutoff for charge density: 238. Ry
    The Pseudo was generated with a Fully-Relativistic Calculation
    Local Potential by smoothing AE potential with Bessel fncs, cutoff radius:   1.9000
    Pseudopotential contains additional information for spin-orbit calculations.
    Valence configuration: 
    nl pn  l   occ       Rcut    Rcut US       E pseu
    4S  1  0  2.00      1.300      2.200    -0.396877
    4P  2  1  0.00      1.300      2.200    -0.094028
    4P  2  1  0.00      1.300      2.200    -0.090702
    3D  3  2  4.00      1.300      1.800    -0.605336
    3D  3  2  3.00      1.300      1.800    -0.591232
    Generation configuration:
    4S  1  0  2.00      1.300      2.200    -0.396876
    4S  1  0  0.00      1.300      2.200     6.300000
    4P  2  1  0.00      1.300      2.200    -0.094030
    4P  2  1  0.00      1.300      2.200    -0.090702
    4P  2  1  0.00      1.300      2.200     6.500000
    4P  2  1  0.00      1.300      2.200     6.500000
    3D  3  2  4.00      1.300      1.800    -0.605336
    3D  3  2  3.00      1.300      1.800    -0.591231
    3D  3  2  0.00      1.300      1.800    -0.200000
    3D  3  2  0.00      1.300      1.800    -0.200000
    Pseudization used: troullier-martins
    <PP_INPUTFILE>
@input
title='Co',
zed=27.,
rel=2,
config='[Ar] 4s2 4p0 3d7',
iswitch=3,
dft='REVPBE'
/
@inputp
lpaw=.false.,
pseudotype=3,
file_pseudopw='Co.rel-revpbe-n-rrkjus_psl.1.0.0.UPF',
author='ADC',
lloc=-1,
rcloc=1.9,
which_augfun='PSQ',
rmatch_augfun_nc=.true.,
nlcc=.true.,
new_core_ps=.true.,
rcore=1.2,
tm=.true.
/
6
4S  1 0 2.00  0.00  1.30  2.20  0.0
4S  1 0 0.00  6.30  1.30  2.20  0.0
4P  2 1 0.00  0.00  1.30  2.20  0.0
4P  2 1 0.00  6.50  1.30  2.20  0.0
3D  3 2 7.00  0.00  1.30  1.80  0.0
3D  3 2 0.00 -0.20  1.30  1.80  0.0
    </PP_INPUTFILE>
  </PP_INFO>
    <!-- END OF HUMAN READABLE SECTION -->
  <PP_HEADER generated="Generated using 'atomic' code by A. Dal Corso  v.7.2" author="ADC" date=" 9Jun2023" comment="" element="Co" pseudo_type="USPP" relativistic="full" is_ultrasoft="true" is_paw="false" is_coulomb="false" has_so="true" has_wfc="false" has_gipaw="false" paw_as_gipaw="false" core_correction="true" functional="REVPBE" z_valence="9.00000000000000" total_psenergy="-75.6183514639019" wfc_cutoff="45.3538663401065" rho_cutoff="237.609680588528" l_max="2" l_max_rho="4" l_local="-1" mesh_size="1193" number_of_wfc="5" number_of_proj="10"/>
  <PP_MESH mesh="1193" dx="1.250000000000000E-002" xmin="-7.00000000000000" rmax="100.000000000000" zmesh="27.0000000000000">
    <PP_R>
   3.377340613164875E-05   3.419822328403786E-05   3.462838397839193E-05
   3.506395542819459E-05   3.550500569237111E-05   3.595160368592255E-05
   3.640381919069402E-05   3.686172286627819E-05   3.732538626105594E-05
   3.779488182337610E-05   3.827028291287544E-05   3.875166381194143E-05
   3.923909973731890E-05   3.973266685186284E-05   4.023244227643918E-05
   4.073850410197475E-05   4.125093140165938E-05   4.176980424330120E-05
   4.229520370183731E-05   4.282721187200214E-05   4.336591188115461E-05
   4.391138790226714E-05   4.446372516707781E-05   4.502300997940795E-05
   4.558932972864744E-05   4.616277290340924E-05   4.674342910535610E-05
   4.733138906320090E-05   4.792674464688326E-05   4.852958888192445E-05
   4.914001596396265E-05   4.975812127347136E-05   5.038400139066274E-05
   5.101775411057841E-05   5.165947845837032E-05   5.230927470477339E-05
   5.296724438177313E-05   5.363349029847021E-05   5.430811655714455E-05
   5.499122856952174E-05   5.568293307324342E-05   5.638333814854561E-05
   5.709255323514631E-05   5.781068914934564E-05   5.853785810134137E-05
   5.927417371276164E-05   6.001975103441877E-05   6.077470656428615E-05
   6.153915826570125E-05   6.231322558579782E-05   6.309702947416941E-05
   6.389069240176823E-05   6.469433838004146E-05   6.550809298030817E-05
   6.633208335338037E-05   6.716643824943019E-05   6.801128803810767E-05
   6.886676472891115E-05   6.973300199181397E-05   7.061013517815098E-05
   7.149830134176701E-05   7.239763926043211E-05   7.330828945752580E-05
   7.423039422399404E-05   7.516409764058274E-05   7.610954560035033E-05
   7.706688583146405E-05   7.803626792028274E-05   7.901784333472992E-05
   8.001176544796127E-05   8.101818956232908E-05   8.203727293364877E-05
   8.306917479577050E-05   8.411405638545951E-05   8.517208096759022E-05
   8.624341386065607E-05   8.732822246260121E-05   8.842667627697680E-05
   8.953894693942605E-05   9.066520824450308E-05   9.180563617282809E-05
   9.296040891858513E-05   9.412970691736512E-05   9.531371287435926E-05
   9.651261179290735E-05   9.772659100340451E-05   9.895584019257224E-05
   1.002005514330973E-04   1.014609192136433E-04   1.027371404692403E-04
   1.040294146120560E-04   1.053379435625544E-04   1.066629317810460E-04
   1.080045862996358E-04   1.093631167545721E-04   1.107387354190022E-04
   1.121316572361413E-04   1.135420998528571E-04   1.149702836536781E-04
   1.164164317952289E-04   1.178807702410988E-04   1.193635277971491E-04
   1.208649361472648E-04   1.223852298895549E-04   1.239246465730101E-04
   1.254834267346190E-04   1.270618139369531E-04   1.286600548062242E-04
   1.302783990708196E-04   1.319170996003233E-04   1.335764124450270E-04
   1.352565968759386E-04   1.369579154252938E-04   1.386806339275770E-04
   1.404250215610596E-04   1.421913508898579E-04   1.439798979065234E-04
   1.457909420751661E-04   1.476247663751219E-04   1.494816573451688E-04
   1.513619051282988E-04   1.532658035170532E-04   1.551936499994289E-04
   1.571457458053607E-04   1.591223959537904E-04   1.611239093003248E-04
   1.631505985854965E-04   1.652027804836297E-04   1.672807756523210E-04
   1.693849087825435E-04   1.715155086493795E-04   1.736729081633930E-04
   1.758574444226473E-04   1.780694587653774E-04   1.803092968233246E-04
   1.825773085757427E-04   1.848738484040821E-04   1.871992751473635E-04
   1.895539521582465E-04   1.919382473598046E-04   1.943525333030143E-04
   1.967971872249657E-04   1.992725911078082E-04   2.017791317384344E-04
   2.043172007689175E-04   2.068871947777074E-04   2.094895153315966E-04
   2.121245690484661E-04   2.147927676608202E-04   2.174945280801204E-04
   2.202302724619294E-04   2.230004282718726E-04   2.258054283524310E-04
   2.286457109905743E-04   2.315217199862430E-04   2.344339047216943E-04
   2.373827202317179E-04   2.403686272747365E-04   2.433920924048007E-04
   2.464535880444879E-04   2.495535925587210E-04   2.526925903295121E-04
   2.558710718316493E-04   2.590895337093339E-04   2.623484788537822E-04
   2.656484164818037E-04   2.689898622153663E-04   2.723733381621643E-04
   2.757993729971979E-04   2.792685020453804E-04   2.827812673651838E-04
   2.863382178333359E-04   2.899399092305842E-04   2.935869043285372E-04
   2.972797729775983E-04   3.010190921960078E-04   3.048054462600011E-04
   3.086394267951040E-04   3.125216328685755E-04   3.164526710830126E-04
   3.204331556711346E-04   3.244637085917566E-04   3.285449596269725E-04
   3.326775464805602E-04   3.368621148776228E-04   3.410993186654867E-04
   3.453898199158639E-04   3.497342890283041E-04   3.541334048349449E-04
   3.585878547065809E-04   3.630983346600677E-04   3.676655494670745E-04
   3.722902127642069E-04   3.769730471645140E-04   3.817147843703978E-04
   3.865161652879446E-04   3.913779401426909E-04   3.963008685968492E-04
   4.012857198680060E-04   4.063332728493140E-04   4.114443162311965E-04
   4.166196486245802E-04   4.218600786856806E-04   4.271664252423567E-04
   4.325395174220534E-04   4.379801947813562E-04   4.434893074371712E-04
   4.490677161995592E-04   4.547162927062388E-04   4.604359195587808E-04
   4.662274904605184E-04   4.720919103561877E-04   4.780300955733286E-04
   4.840429739654627E-04   4.901314850570714E-04   4.962965801904011E-04
   5.025392226741086E-04   5.088603879337831E-04   5.152610636643567E-04
   5.217422499844341E-04   5.283049595925650E-04   5.349502179254770E-04
   5.416790633183045E-04   5.484925471668301E-04   5.553917340917668E-04
   5.623777021051091E-04   5.694515427785716E-04   5.766143614141515E-04
   5.838672772168333E-04   5.912114234694670E-04   5.986479477098472E-04
   6.061780119100158E-04   6.138027926578242E-04   6.215234813407767E-04
   6.293412843321876E-04   6.372574231796809E-04   6.452731347960561E-04
   6.533896716525616E-04   6.616083019745945E-04   6.699303099398630E-04
   6.783569958790437E-04   6.868896764789587E-04   6.955296849883115E-04
   7.042783714260094E-04   7.131371027921086E-04   7.221072632814072E-04
   7.311902544997326E-04   7.403874956829419E-04   7.497004239186811E-04
   7.591304943709355E-04   7.686791805073979E-04   7.783479743297049E-04
   7.881383866065621E-04   7.980519471098063E-04   8.080902048534360E-04
   8.182547283356461E-04   8.285471057839112E-04   8.389689454031471E-04
   8.495218756269975E-04   8.602075453722805E-04   8.710276242966336E-04
   8.819838030594030E-04   8.930777935858102E-04   9.043113293344458E-04
   9.156861655681259E-04   9.272040796281536E-04   9.388668712120350E-04
   9.506763626546828E-04   9.626343992131610E-04   9.747428493550116E-04
   9.870036050502031E-04   9.994185820667587E-04   1.011989720270095E-03
   1.024718983926133E-03   1.037608362008216E-03   1.050659868507893E-03
   1.063875542749609E-03   1.077257449709351E-03   1.090807680337307E-03
   1.104528351884582E-03   1.118421608234019E-03   1.132489620235189E-03
   1.146734586043589E-03   1.161158731464107E-03   1.175764310298813E-03
   1.190553604699114E-03   1.205528925522349E-03   1.220692612692865E-03
   1.236047035567632E-03   1.251594593306465E-03   1.267337715246890E-03
   1.283278861283742E-03   1.299420522253520E-03   1.315765220323591E-03
   1.332315509386284E-03   1.349073975457935E-03   1.366043237082963E-03
   1.383225945743023E-03   1.400624786271299E-03   1.418242477272025E-03
   1.436081771545260E-03   1.454145456517030E-03   1.472436354674864E-03
   1.490957324008809E-03   1.509711258458008E-03   1.528701088362872E-03
   1.547929780922960E-03   1.567400340660604E-03   1.587115809890377E-03
   1.607079269194458E-03   1.627293837903979E-03   1.647762674586427E-03
   1.668488977539179E-03   1.689475985289237E-03   1.710726977099264E-03
   1.732245273479962E-03   1.754034236708923E-03   1.776097271355981E-03
   1.798437824815184E-03   1.821059387843466E-03   1.843965495106072E-03
   1.867159725728866E-03   1.890645703857571E-03   1.914427099224052E-03
   1.938507627719719E-03   1.962891051976142E-03   1.987581181952968E-03
   2.012581875533240E-03   2.037897039126194E-03   2.063530628277645E-03
   2.089486648288051E-03   2.115769154838344E-03   2.142382254623648E-03
   2.169330105994946E-03   2.196616919608842E-03   2.224246959085480E-03
   2.252224541674740E-03   2.280554038930824E-03   2.309239877395312E-03
   2.338286539288830E-03   2.367698563211393E-03   2.397480544851576E-03
   2.427637137704606E-03   2.458173053799467E-03   2.489093064435177E-03
   2.520402000926305E-03   2.552104755357873E-03   2.584206281349765E-03
   2.616711594830726E-03   2.649625774822121E-03   2.682953964231537E-03
   2.716701370656375E-03   2.750873267197552E-03   2.785474993283422E-03
   2.820511955504087E-03   2.855989628456176E-03   2.891913555598266E-03
   2.928289350117063E-03   2.965122695804465E-03   3.002419347945677E-03
   3.040185134218475E-03   3.078425955603798E-03   3.117147787307793E-03
   3.156356679695438E-03   3.196058759235946E-03   3.236260229460016E-03
   3.276967371929160E-03   3.318186547217212E-03   3.359924195904167E-03
   3.402186839582553E-03   3.444981081876427E-03   3.488313609473211E-03
   3.532191193168506E-03   3.576620688924031E-03   3.621609038938892E-03
   3.667163272734309E-03   3.713290508251991E-03   3.759997952966337E-03
   3.807292905010607E-03   3.855182754317285E-03   3.903674983772755E-03
   3.952777170386526E-03   4.002496986475160E-03   4.052842200861072E-03
   4.103820680086441E-03   4.155440389642362E-03   4.207709395213473E-03
   4.260635863938238E-03   4.314228065685073E-03   4.368494374344538E-03
   4.423443269137766E-03   4.479083335941359E-03   4.535423268628961E-03
   4.592471870429675E-03   4.650238055303602E-03   4.708730849334653E-03
   4.767959392140897E-03   4.827932938302655E-03   4.888660858808526E-03
   4.950152642519646E-03   5.012417897652323E-03   5.075466353279351E-03
   5.139307860850196E-03   5.203952395730301E-03   5.269410058759764E-03
   5.335691077831604E-03   5.402805809489904E-03   5.470764740548032E-03
   5.539578489727226E-03   5.609257809315800E-03   5.679813586849203E-03
   5.751256846811222E-03   5.823598752356580E-03   5.896850607055196E-03
   5.971023856658399E-03   6.046130090887349E-03   6.122181045243947E-03
   6.199188602844539E-03   6.277164796276672E-03   6.356121809479214E-03
   6.436071979646118E-03   6.517027799154133E-03   6.599001917514759E-03
   6.682007143350772E-03   6.766056446397582E-03   6.851162959529790E-03
   6.937339980813226E-03   7.024600975582790E-03   7.112959578546451E-03
   7.202429595915688E-03   7.293025007562744E-03   7.384759969205008E-03
   7.477648814616870E-03   7.571706057869410E-03   7.666946395598247E-03
   7.763384709299921E-03   7.861036067657154E-03   7.959915728893359E-03
   8.060039143156776E-03   8.161421954934590E-03   8.264080005497403E-03
   8.368029335374479E-03   8.473286186860093E-03   8.579867006551440E-03
   8.687788447918433E-03   8.797067373905858E-03   8.907720859568232E-03
   9.019766194737808E-03   9.133220886726169E-03   9.248102663059763E-03
   9.364429474249871E-03   9.482219496597413E-03   9.601491135033023E-03
   9.722263025992864E-03   9.844554040330617E-03   9.968383286266071E-03
   1.009377011237084E-02   1.022073411059160E-02   1.034929511931139E-02
   1.047947322644937E-02   1.061128877259964E-02   1.074476235420946E-02
   1.087991482679752E-02   1.101676730821262E-02   1.115534118193341E-02
   1.129565810040960E-02   1.143773998844518E-02   1.158160904662422E-02
   1.172728775477975E-02   1.187479887550632E-02   1.202416545771666E-02
   1.217541084024312E-02   1.232855865548443E-02   1.248363283309831E-02
   1.264065760374051E-02   1.279965750285091E-02   1.296065737448724E-02
   1.312368237520699E-02   1.328875797799821E-02   1.345590997625968E-02
   1.362516448783120E-02   1.379654795907456E-02   1.397008716900582E-02
   1.414580923347959E-02   1.432374160942598E-02   1.450391209914071E-02
   1.468634885462937E-02   1.487108038200618E-02   1.505813554594812E-02
   1.524754357420513E-02   1.543933406216698E-02   1.563353697748762E-02
   1.583018266476766E-02   1.602930185029583E-02   1.623092564684998E-02
   1.643508555855852E-02   1.664181348582303E-02   1.685114173030273E-02
   1.706310299996170E-02   1.727773041417957E-02   1.749505750892648E-02
   1.771511824200312E-02   1.793794699834676E-02   1.816357859540394E-02
   1.839204828857073E-02   1.862339177670152E-02   1.885764520768702E-02
   1.909484518410238E-02   1.933502876892652E-02   1.957823349133324E-02
   1.982449735255520E-02   2.007385883182175E-02   2.032635689237136E-02
   2.058203098753969E-02   2.084092106692429E-02   2.110306758262679E-02
   2.136851149557359E-02   2.163729428191615E-02   2.190945793951167E-02
   2.218504499448539E-02   2.246409850787532E-02   2.274666208236067E-02
   2.303277986907483E-02   2.332249657450408E-02   2.361585746747310E-02
   2.391290838621823E-02   2.421369574554991E-02   2.451826654410497E-02
   2.482666837169036E-02   2.513894941671906E-02   2.545515847373972E-02
   2.577534495106082E-02   2.609955887847088E-02   2.642785091505566E-02
   2.676027235711380E-02   2.709687514617193E-02   2.743771187710067E-02
   2.778283580633267E-02   2.813230086018403E-02   2.848616164328040E-02
   2.884447344708908E-02   2.920729225855840E-02   2.957467476886583E-02
   2.994667838227603E-02   3.032336122511045E-02   3.070478215482966E-02
   3.109100076922991E-02   3.148207741575550E-02   3.187807320092808E-02
   3.227904999989475E-02   3.268507046609614E-02   3.309619804105615E-02
   3.351249696429481E-02   3.393403228336585E-02   3.436086986402049E-02
   3.479307640049912E-02   3.523071942595239E-02   3.567386732299341E-02
   3.612258933438271E-02   3.657695557384747E-02   3.703703703703706E-02
   3.750290561261611E-02   3.797463409349738E-02   3.845229618821576E-02
   3.893596653244535E-02   3.942572070066147E-02   3.992163521794933E-02
   4.042378757196120E-02   4.093225622502401E-02   4.144712062639929E-02
   4.196846122469729E-02   4.249635948044714E-02   4.303089787882532E-02
   4.357215994254410E-02   4.412023024490216E-02   4.467519442299930E-02
   4.523713919111742E-02   4.580615235426982E-02   4.638232282192092E-02
   4.696574062187851E-02   4.755649691436082E-02   4.815468400624043E-02
   4.876039536546749E-02   4.937372563567419E-02   4.999477065096310E-02
   5.062362745088137E-02   5.126039429558341E-02   5.190517068118421E-02
   5.255805735530585E-02   5.321915633281944E-02   5.388857091178526E-02
   5.456640568959319E-02   5.525276657930633E-02   5.594776082621012E-02
   5.665149702456961E-02   5.736408513459755E-02   5.808563649963591E-02
   5.881626386355348E-02   5.955608138836235E-02   6.030520467205595E-02
   6.106375076667144E-02   6.183183819657939E-02   6.260958697700342E-02
   6.339711863277278E-02   6.419455621731096E-02   6.500202433186295E-02
   6.581964914496441E-02   6.664755841215590E-02   6.748588149594481E-02
   6.833474938601854E-02   6.919429471971197E-02   7.006465180273223E-02
   7.094595663014433E-02   7.183834690762055E-02   7.274196207295733E-02
   7.365694331786270E-02   7.458343361001768E-02   7.552157771541541E-02
   7.647152222098101E-02   7.743341555747617E-02   7.840740802269169E-02
   7.939365180493185E-02   8.039230100679420E-02   8.140351166924825E-02
   8.242744179601737E-02   8.346425137826702E-02   8.451410241960387E-02
   8.557715896138908E-02   8.665358710837008E-02   8.774355505463485E-02
   8.884723310989255E-02   8.996479372608478E-02   9.109641152433151E-02
   9.224226332221599E-02   9.340252816141294E-02   9.457738733566401E-02
   9.576702441910545E-02   9.697162529495193E-02   9.819137818454103E-02
   9.942647367674338E-02   1.006771047577425E-01   1.019434668411891E-01
   1.032257577987352E-01   1.045241779909519E-01   1.058389302986358E-01
   1.071702201545097E-01   1.085182555753223E-01   1.098832471943507E-01
   1.112654082943124E-01   1.126649548406913E-01   1.140821055154827E-01
   1.155170817513627E-01   1.169701077662877E-01   1.184414105985288E-01
   1.199312201421468E-01   1.214397691829139E-01   1.229672934346870E-01
   1.245140315762382E-01   1.260802252885489E-01   1.276661192925732E-01
   1.292719613874757E-01   1.308980024893508E-01   1.325444966704289E-01
   1.342117011987757E-01   1.358998765784906E-01   1.376092865904113E-01
   1.393401983333301E-01   1.410928822657282E-01   1.428676122480362E-01
   1.446646655854242E-01   1.464843230711325E-01   1.483268690303454E-01
   1.501925913646176E-01   1.520817815968598E-01   1.539947349168893E-01
   1.559317502275542E-01   1.578931301914377E-01   1.598791812781499E-01
   1.618902138122133E-01   1.639265420215532E-01   1.659884840865951E-01
   1.680763621899816E-01   1.701905025669145E-01   1.723312355561286E-01
   1.744988956515090E-01   1.766938215543558E-01   1.789163562263067E-01
   1.811668469429262E-01   1.834456453479673E-01   1.857531075083171E-01
   1.880895939696327E-01   1.904554698126773E-01   1.928511047103649E-01
   1.952768729855220E-01   1.977331536693770E-01   2.002203305607841E-01
   2.027387922861927E-01   2.052889323603713E-01   2.078711492478948E-01
   2.104858464254054E-01   2.131334324446568E-01   2.158143209963510E-01
   2.185289309747785E-01   2.212776865432714E-01   2.240610172004796E-01
   2.268793578474811E-01   2.297331488557358E-01   2.326228361358951E-01
   2.355488712074754E-01   2.385117112694097E-01   2.415118192714857E-01
   2.445496639866826E-01   2.476257200844175E-01   2.507404682047141E-01
   2.538943950333030E-01   2.570879933776681E-01   2.603217622440480E-01
   2.635962069154074E-01   2.669118390303878E-01   2.702691766632532E-01
   2.736687444048390E-01   2.771110734445216E-01   2.805967016532166E-01
   2.841261736674235E-01   2.877000409743251E-01   2.913188619979591E-01
   2.949832021864732E-01   2.986936341004768E-01   3.024507375025057E-01
   3.062550994476101E-01   3.101073143750840E-01   3.140079842013473E-01
   3.179577184139962E-01   3.219571341670374E-01   3.260068563773190E-01
   3.301075178221756E-01   3.342597592383010E-01   3.384642294218640E-01
   3.427215853298851E-01   3.470324921828865E-01   3.513976235688344E-01
   3.558176615483892E-01   3.602932967614773E-01   3.648252285352070E-01
   3.694141649931381E-01   3.740608231659280E-01   3.787659291033705E-01
   3.835302179878405E-01   3.883544342491696E-01   3.932393316809634E-01
   3.981856735583837E-01   4.031942327574128E-01   4.082657918756150E-01
   4.134011433544212E-01   4.186010896029477E-01   4.238664431233751E-01
   4.291980266379036E-01   4.345966732173042E-01   4.400632264110891E-01
   4.455985403793163E-01   4.512034800260548E-01   4.568789211345282E-01
   4.626257505039560E-01   4.684448660881197E-01   4.743371771356682E-01
   4.803036043321904E-01   4.863450799440749E-01   4.924625479641773E-01
   4.986569642593221E-01   5.049292967196579E-01   5.112805254098927E-01
   5.177116427224311E-01   5.242236535324373E-01   5.308175753548495E-01
   5.374944385033676E-01   5.442552862514426E-01   5.511011749952905E-01
   5.580331744189553E-01   5.650523676614506E-01   5.721598514860010E-01
   5.793567364514141E-01   5.866441470856083E-01   5.940232220613213E-01
   6.014951143740312E-01   6.090609915221135E-01   6.167220356892649E-01
   6.244794439292237E-01   6.323344283528096E-01   6.402882163173204E-01
   6.483420506183071E-01   6.564971896837648E-01   6.647549077707647E-01
   6.731164951645581E-01   6.815832583801872E-01   6.901565203666302E-01
   6.988376207135145E-01   7.076279158604317E-01   7.165287793088821E-01
   7.255416018368890E-01   7.346677917163086E-01   7.439087749328769E-01
   7.532659954090229E-01   7.627409152294828E-01   7.723350148697562E-01
   7.820497934274306E-01   7.918867688564205E-01   8.018474782041507E-01
   8.119334778517212E-01   8.221463437570981E-01   8.324876717013565E-01
   8.429590775380272E-01   8.535621974455774E-01   8.642986881830638E-01
   8.751702273490084E-01   8.861785136435242E-01   8.973252671337404E-01
   9.086122295225690E-01   9.200411644208463E-01   9.316138576229028E-01
   9.433321173855961E-01   9.551977747108545E-01   9.672126836317770E-01
   9.793787215023260E-01   9.916977892906716E-01   1.004171811876219E+00
   1.016802738350375E+00   1.029592542321099E+00   1.042543222221284E+00
   1.055656801621011E+00   1.068935329543742E+00   1.082380880786480E+00
   1.095995556243962E+00   1.109781483236927E+00   1.123740815844516E+00
   1.137875735240850E+00   1.152188450035840E+00   1.166681196620295E+00
   1.181356239515352E+00   1.196215871726322E+00   1.211262415100969E+00
   1.226498220692308E+00   1.241925669125961E+00   1.257547170972132E+00
   1.273365167122267E+00   1.289382129170446E+00   1.305600559799576E+00
   1.322022993172441E+00   1.338651995327665E+00   1.355490164580667E+00
   1.372540131929652E+00   1.389804561466704E+00   1.407286150794066E+00
   1.424987631445635E+00   1.442911769313777E+00   1.461061365081502E+00
   1.479439254660072E+00   1.498048309632126E+00   1.516891437700364E+00
   1.535971583141881E+00   1.555291727268223E+00   1.574854888891215E+00
   1.594664124794664E+00   1.614722530211983E+00   1.635033239309824E+00
   1.655599425677809E+00   1.676424302824399E+00   1.697511124679018E+00
   1.718863186100481E+00   1.740483823391826E+00   1.762376414821619E+00
   1.784544381151809E+00   1.806991186172239E+00   1.829720337241860E+00
   1.852735385836769E+00   1.876039928105136E+00   1.899637605429101E+00
   1.923532104993758E+00   1.947727160363277E+00   1.972226552064283E+00
   1.997034108176577E+00   2.022153704931270E+00   2.047589267316460E+00
   2.073344769690524E+00   2.099424236403105E+00   2.125831742423935E+00
   2.152571413979557E+00   2.179647429198052E+00   2.207064018761888E+00
   2.234825466568963E+00   2.262936110401977E+00   2.291400342606220E+00
   2.320222610775884E+00   2.349407418449013E+00   2.378959325811181E+00
   2.408882950408037E+00   2.439182967866806E+00   2.469864112626860E+00
   2.500931178679487E+00   2.532389020316969E+00   2.564242552891061E+00
   2.596496753581034E+00   2.629156662171368E+00   2.662227381839225E+00
   2.695714079951840E+00   2.729621988873920E+00   2.763956406785221E+00
   2.798722698508396E+00   2.833926296347255E+00   2.869572700935589E+00
   2.905667482096635E+00   2.942216279713386E+00   2.979224804609826E+00
   3.016698839443265E+00   3.054644239607890E+00   3.093066934149677E+00
   3.131972926692817E+00   3.171368296377802E+00   3.211259198811293E+00
   3.251651867027957E+00   3.292552612464382E+00   3.333967825945255E+00
   3.375903978681942E+00   3.418367623283626E+00   3.461365394781172E+00
   3.504904011663857E+00   3.548990276929147E+00   3.593631079145683E+00
   3.638833393529632E+00   3.684604283034588E+00   3.730950899455153E+00
   3.777880484544436E+00   3.825400371145587E+00   3.873517984337564E+00
   3.922240842595331E+00   3.971576558964613E+00   4.021532842251470E+00
   4.072117498226801E+00   4.123338430846013E+00   4.175203643484045E+00
   4.227721240185891E+00   4.280899426932880E+00   4.334746512924886E+00
   4.389270911878642E+00   4.444481143342425E+00   4.500385834027221E+00
   4.556993719154691E+00   4.614313643822054E+00   4.672354564384155E+00
   4.731125549852923E+00   4.790635783314406E+00   4.850894563363656E+00
   4.911911305557654E+00   4.973695543886500E+00   5.036256932263147E+00
   5.099605246031804E+00   5.163750383495382E+00   5.228702367462112E+00
   5.294471346811630E+00   5.361067598080778E+00   5.428501527069303E+00
   5.496783670465805E+00   5.565924697494110E+00   5.635935411580356E+00
   5.706826752041065E+00   5.778609795792412E+00   5.851295759081022E+00
   5.924895999236544E+00   5.999422016446236E+00   6.074885455551920E+00
   6.151298107869485E+00   6.228671913031318E+00   6.307018960851894E+00
   6.386351493216828E+00   6.466681905995715E+00   6.548022750978980E+00
   6.630386737839142E+00   6.713786736116718E+00   6.798235777231111E+00
   6.883747056516820E+00   6.970333935285203E+00   7.058009942912228E+00
   7.146788778952466E+00   7.236684315279665E+00   7.327710598254281E+00
   7.419881850918216E+00   7.513212475217224E+00   7.607717054251236E+00
   7.703410354552987E+00   7.800307328395354E+00   7.898423116127632E+00
   7.997773048541270E+00   8.098372649265340E+00   8.200237637192117E+00
   8.303383928933226E+00   8.407827641306596E+00   8.513585093854779E+00
   8.620672811394899E+00   8.729107526600689E+00   8.838906182617025E+00
   8.950085935707287E+00   9.062664157934096E+00   9.176658439873716E+00
   9.292086593364614E+00   9.408966654290632E+00   9.527316885399072E+00
   9.647155779154334E+00   9.768502060627380E+00   9.891374690421561E+00
   1.001579286763529E+01   1.014177603286187E+01   1.026934387122719E+01
   1.039851631546554E+01   1.052931354903411E+01   1.066175600926678E+01
   1.079586439056741E+01   1.093165964764343E+01   1.106916299878002E+01
   1.120839592915555E+01   1.134938019419868E+01   1.149213782298765E+01
   1.163669112169239E+01   1.178306267705993E+01   1.193127535994357E+01
   1.208135232887659E+01   1.223331703369070E+01   1.238719321918020E+01
   1.254300492881213E+01   1.270077650848313E+01   1.286053261032351E+01
   1.302229819654922E+01   1.318609854336220E+01   1.335195924489991E+01
   1.351990621723440E+01   1.368996570242181E+01   1.386216427260267E+01
   1.403652883415392E+01   1.421308663189305E+01   1.439186525333514E+01
   1.457289263300356E+01   1.475619705679467E+01   1.494180716639761E+01
   1.512975196376965E+01   1.532006081566773E+01   1.551276345823718E+01
   1.570789000165795E+01   1.590547093484942E+01   1.610553713023440E+01
   1.630811984856292E+01   1.651325074379693E+01   1.672096186805613E+01
   1.693128567662627E+01   1.714425503303035E+01   1.735990321416359E+01
   1.757826391549305E+01   1.779937125632257E+01   1.802325978512399E+01
   1.824996448493544E+01   1.847952077882748E+01   1.871196453543811E+01
   1.894733207457719E+01   1.918566017290157E+01   1.942698606966150E+01
   1.967134747251930E+01   1.991878256344137E+01   2.016933000466405E+01
   2.042302894473479E+01   2.067991902462911E+01   2.094004038394464E+01
   2.120343366717302E+01   2.147014003005061E+01   2.174020114598924E+01
   2.201365921258771E+01   2.229055695822527E+01   2.257093764873806E+01
   2.285484509417940E+01   2.314232365566524E+01   2.343341825230571E+01
   2.372817436822374E+01   2.402663805966217E+01   2.432885596217999E+01
   2.463487529793935E+01   2.494474388308405E+01   2.525851013521094E+01
   2.557622308093532E+01   2.589793236355133E+01   2.622368825078889E+01
   2.655354164266814E+01   2.688754407945264E+01   2.722574774970272E+01
   2.756820549842989E+01   2.791497083535415E+01   2.826609794326487E+01
   2.862164168648703E+01   2.898165761945392E+01   2.934620199538749E+01
   2.971533177508814E+01   3.008910463583496E+01   3.046757898039787E+01
   3.085081394616326E+01   3.123886941437420E+01   3.163180601948713E+01
   3.202968515864599E+01   3.243256900127577E+01   3.284052049879661E+01
   3.325360339445994E+01   3.367188223330863E+01   3.409542237226226E+01
   3.452428999032919E+01   3.495855209894737E+01   3.539827655245472E+01
   3.584353205869176E+01   3.629438818973719E+01   3.675091539277875E+01
   3.721318500112078E+01   3.768126924533004E+01   3.815524126452203E+01