<UPF version="2.0.1">
  <PP_INFO>
    Generated using "atomic" code by A. Dal Corso  v.7.2
    Author: ADC
    Generation date:  9Jun2023
    Pseudopotential type: USPP
    Element: Fe
    Functional: REVPBE
    Suggested minimum cutoff for wavefunctions:  46. Ry
    Suggested minimum cutoff for charge density: 237. Ry
    The Pseudo was generated with a Fully-Relativistic Calculation
    Local Potential by smoothing AE potential with Bessel fncs, cutoff radius:   2.1000
    Pseudopotential contains additional information for spin-orbit calculations.
    Valence configuration: 
    nl pn  l   occ       Rcut    Rcut US       E pseu
    4S  1  0  1.70      1.300      2.200    -0.358757
    4P  2  1  0.00      1.300      2.200    -0.086060
    4P  2  1  0.00      1.300      2.200    -0.083376
    3D  3  2  4.00      1.300      1.800    -0.459455
    3D  3  2  2.30      1.300      1.800    -0.448673
    Generation configuration:
    4S  1  0  1.70      1.300      2.200    -0.358756
    4S  1  0  0.00      1.300      2.200     6.000000
    4P  2  1  0.00      1.300      2.200    -0.086062
    4P  2  1  0.00      1.300      2.200    -0.083376
    4P  2  1  0.00      1.300      2.200     6.000000
    4P  2  1  0.00      1.300      2.200     6.000000
    3D  3  2  4.00      1.300      1.800    -0.459456
    3D  3  2  2.30      1.300      1.800    -0.448672
    3D  3  2  0.00      1.300      1.800     0.050000
    3D  3  2  0.00      1.300      1.800     0.050000
    Pseudization used: troullier-martins
    <PP_INPUTFILE>
@input
title='Fe',
zed=26.,
rel=2,
config='[Ar] 4s1.7 4p0 3d6.3',
iswitch=3,
dft='REVPBE'
/
@inputp
lpaw=.false.,
pseudotype=3,
file_pseudopw='Fe.rel-revpbe-n-rrkjus_psl.1.0.0.UPF',
author='ADC',
lloc=-1,
rcloc=2.1,
which_augfun='PSQ',
rmatch_augfun_nc=.true.,
nlcc=.true.,
new_core_ps=.true.,
rcore=1.2,
tm=.true.
/
6
4S 1 0 1.70  0.00  1.30  2.20  0.0
4S 1 0 0.00  6.00  1.30  2.20  0.0
4P 2 1 0.00  0.00  1.30  2.20  0.0
4P 2 1 0.00  6.00  1.30  2.20  0.0
3D 3 2 6.30  0.00  1.30  1.80  0.0
3D 3 2 0.00  0.05  1.30  1.80  0.0
    </PP_INPUTFILE>
  </PP_INFO>
    <!-- END OF HUMAN READABLE SECTION -->
  <PP_HEADER generated="Generated using 'atomic' code by A. Dal Corso  v.7.2" author="ADC" date=" 9Jun2023" comment="" element="Fe" pseudo_type="USPP" relativistic="full" is_ultrasoft="true" is_paw="false" is_coulomb="false" has_so="true" has_wfc="false" has_gipaw="false" paw_as_gipaw="false" core_correction="true" functional="REVPBE" z_valence="8.00000000000000" total_psenergy="-60.6987786141060" wfc_cutoff="45.8018988825723" rho_cutoff="237.082169186793" l_max="2" l_max_rho="4" l_local="-1" mesh_size="1191" number_of_wfc="5" number_of_proj="10"/>
  <PP_MESH mesh="1191" dx="1.250000000000000E-002" xmin="-7.00000000000000" rmax="100.000000000000" zmesh="26.0000000000000">
    <PP_R>
   3.507238329055831E-05   3.551353956419316E-05   3.596024490063778E-05
   3.641256909850977E-05   3.687058283438538E-05   3.733435767384265E-05
   3.780396608264379E-05   3.827948143805812E-05   3.876097804032732E-05
   3.924853112427518E-05   3.974221687106296E-05   4.024211242009302E-05
   4.074829588106193E-05   4.126084634616526E-05   4.177984390245608E-05
   4.230536964435839E-05   4.283750568633858E-05   4.337633517573586E-05
   4.392194230575413E-05   4.447441232861761E-05   4.503383156889132E-05
   4.560028743696972E-05   4.617386844273465E-05   4.675466420938518E-05
   4.734276548744158E-05   4.793826416892498E-05   4.854125330171594E-05
   4.915182710409325E-05   4.977008097945569E-05   5.039611153122924E-05
   5.103001657796121E-05   5.167189516860488E-05   5.232184759799592E-05
   5.297997542252373E-05   5.364638147599995E-05   5.432116988572622E-05
   5.500444608876440E-05   5.569631684841137E-05   5.639689027088089E-05
   5.710627582219565E-05   5.782458434529124E-05   5.855192807733583E-05
   5.928842066726732E-05   6.003417719355124E-05   6.078931418216220E-05
   6.155394962479094E-05   6.232820299728103E-05   6.311219527829716E-05
   6.390604896822823E-05   6.470988810832850E-05   6.552383830009900E-05
   6.634802672491317E-05   6.718258216388922E-05   6.802763501801234E-05
   6.888331732851038E-05   6.974976279748520E-05   7.062710680880412E-05
   7.151548644925388E-05   7.241504052996067E-05   7.332590960807986E-05
   7.424823600875805E-05   7.518216384737181E-05   7.612783905204602E-05
   7.708540938645534E-05   7.805502447291284E-05   7.903683581574842E-05
   8.003099682498190E-05   8.103766284029362E-05   8.205699115529647E-05
   8.308914104211363E-05   8.413427377626481E-05   8.519255266186604E-05
   8.626414305714629E-05   8.734921240028488E-05   8.844793023557446E-05
   8.956046823991207E-05   9.068700024962434E-05   9.182770228762974E-05
   9.298275259094244E-05   9.415233163852242E-05   9.533662217947532E-05
   9.653580926160763E-05   9.775008026034071E-05   9.897962490798846E-05
   1.002246353234038E-04   1.014853060419970E-04   1.027618340461327E-04
   1.040544187959087E-04   1.053632622603219E-04   1.066885689488265E-04
   1.080305459432890E-04   1.093894029303449E-04   1.107653522341632E-04
   1.121586088496218E-04   1.135693904759018E-04   1.149979175505023E-04
   1.164444132836852E-04   1.179091036933517E-04   1.193922176403580E-04
   1.208939868642762E-04   1.224146460196026E-04   1.239544327124241E-04
   1.255135875375442E-04   1.270923541160762E-04   1.286909791335105E-04
   1.303097123782581E-04   1.319488067806821E-04   1.336085184526174E-04
   1.352891067273896E-04   1.369908342003358E-04   1.387139667698358E-04
   1.404587736788594E-04   1.422255275570358E-04   1.440145044632531E-04
   1.458259839287926E-04   1.476602490010063E-04   1.495175862875435E-04
   1.513982860011340E-04   1.533026420049343E-04   1.552309518584446E-04
   1.571835168640026E-04   1.591606421138630E-04   1.611626365378684E-04
   1.631898129517208E-04   1.652424881058592E-04   1.673209827349526E-04
   1.694256216080156E-04   1.715567335791539E-04   1.737146516389487E-04
   1.758997129664874E-04   1.781122589820479E-04   1.803526354004466E-04
   1.826211922850568E-04   1.849182841025073E-04   1.872442697780678E-04
   1.895995127517328E-04   1.919843810350083E-04   1.943992472684159E-04
   1.968444887797175E-04   1.993204876428740E-04   2.018276307377456E-04
   2.043663098105414E-04   2.069369215350316E-04   2.095398675745280E-04
   2.121755546446451E-04   2.148443945768500E-04   2.175468043828118E-04
   2.202832063195610E-04   2.230540279554672E-04   2.258597022370482E-04
   2.287006675566190E-04   2.315773678207907E-04   2.344902525198322E-04
   2.374397767979041E-04   2.404264015241754E-04   2.434505933648364E-04
   2.465128248560147E-04   2.496135744776110E-04   2.527533267280623E-04
   2.559325722000452E-04   2.591518076571333E-04   2.624115361114164E-04
   2.657122669020974E-04   2.690545157750776E-04   2.724388049635430E-04
   2.758656632695653E-04   2.793356261467266E-04   2.828492357837860E-04
   2.864070411893978E-04   2.900095982778950E-04   2.936574699561523E-04
   2.973512262115412E-04   3.010914442009913E-04   3.048787083411732E-04
   3.087136103998136E-04   3.125967495881619E-04   3.165287326546166E-04
   3.205101739795311E-04   3.245416956712130E-04   3.286239276631284E-04
   3.327575078123321E-04   3.369430819991319E-04   3.411813042280099E-04
   3.454728367298125E-04   3.498183500652237E-04   3.542185232295438E-04
   3.586740437587818E-04   3.631856078370851E-04   3.677539204055197E-04
   3.723796952722186E-04   3.770636552239164E-04   3.818065321388851E-04
   3.866090671012918E-04   3.914720105169953E-04   3.963961222307977E-04
   4.013821716451733E-04   4.064309378404867E-04   4.115432096967280E-04
   4.167197860167754E-04   4.219614756512107E-04   4.272690976247041E-04
   4.326434812639871E-04   4.380854663274376E-04   4.435959031362935E-04
   4.491756527075170E-04   4.548255868883315E-04   4.605465884924470E-04
   4.663395514380038E-04   4.722053808872480E-04   4.781449933879647E-04
   4.841593170166923E-04   4.902492915237334E-04   4.964158684799951E-04
   5.026600114256727E-04   5.089826960208050E-04   5.153849101977242E-04
   5.218676543154205E-04   5.284319413158517E-04   5.350787968822166E-04
   5.418092595992201E-04   5.486243811153560E-04   5.555252263072261E-04
   5.625128734459316E-04   5.695884143655543E-04   5.767529546337578E-04
   5.840076137245364E-04   5.913535251931320E-04   5.987918368531573E-04
   6.063237109559423E-04   6.139503243721388E-04   6.216728687756106E-04
   6.294925508296318E-04   6.374105923754329E-04   6.454282306231143E-04
   6.535467183449641E-04   6.617673240712070E-04   6.700913322882121E-04
   6.785200436391985E-04   6.870547751274635E-04   6.956968603221653E-04
   7.044476495666992E-04   7.133085101896879E-04   7.222808267186311E-04
   7.313660010962406E-04   7.405654528994973E-04   7.498806195614613E-04
   7.593129565958762E-04   7.688639378245934E-04   7.785350556078612E-04
   7.883278210775099E-04   7.982437643730670E-04   8.082844348808473E-04
   8.184514014760452E-04   8.287462527678759E-04   8.391705973477989E-04
   8.497260640408632E-04   8.604143021602155E-04   8.712369817648066E-04
   8.821957939203434E-04   8.932924509635221E-04   9.045286867695810E-04
   9.159062570232261E-04   9.274269394929567E-04   9.390925343088475E-04
   9.509048642438230E-04   9.628657749984672E-04   9.749771354894209E-04
   9.872408381414012E-04   9.996587991828979E-04   1.012232958945589E-03
   1.024965282167519E-03   1.037857758300096E-03   1.050912401818945E-03
   1.064131252538676E-03   1.077516375931608E-03   1.091069863450504E-03
   1.104793832855363E-03   1.118690428544326E-03   1.132761821888742E-03
   1.147010211572450E-03   1.161437823935327E-03   1.176046913321157E-03
   1.190839762429880E-03   1.205818682674265E-03   1.220986014541075E-03
   1.236344127956772E-03   1.251895422657824E-03   1.267642328565668E-03
   1.283587306166388E-03   1.299732846895175E-03   1.316081473525617E-03
   1.332635740563886E-03   1.349398234647886E-03   1.366371574951422E-03
   1.383558413593449E-03   1.400961436052471E-03   1.418583361586154E-03
   1.436426943656216E-03   1.454494970358657E-03   1.472790264859410E-03
   1.491315685835462E-03   1.510074127921531E-03   1.529068522162358E-03
   1.548301836470687E-03   1.567777076091009E-03   1.587497284069136E-03
   1.607465541727689E-03   1.627684969147551E-03   1.648158725655392E-03
   1.668890010317322E-03   1.689882062438747E-03   1.711138162070520E-03
   1.732661630521455E-03   1.754455830877285E-03   1.776524168526159E-03
   1.798870091690730E-03   1.821497091966959E-03   1.844408704869672E-03
   1.867608510384999E-03   1.891100133529753E-03   1.914887244917844E-03
   1.938973561333822E-03   1.963362846313631E-03   1.988058910732669E-03
   2.013065613401247E-03   2.038386861667532E-03   2.064026612028082E-03
   2.089988870746057E-03   2.116277694477201E-03   2.142897190903709E-03
   2.169851519376053E-03   2.197144891562896E-03   2.224781572109172E-03
   2.252765879302443E-03   2.281102185747644E-03   2.309794919050307E-03
   2.338848562508384E-03   2.368267655812779E-03   2.398056795756671E-03
   2.428220636953785E-03   2.458763892565677E-03   2.489691335038175E-03
   2.521007796847091E-03   2.552718171253292E-03   2.584827413067300E-03
   2.617340539423470E-03   2.650262630563946E-03   2.683598830632449E-03
   2.717354348478061E-03   2.751534458469125E-03   2.786144501317365E-03
   2.821189884912390E-03   2.856676085166689E-03   2.892608646871246E-03
   2.928993184561937E-03   2.965835383396798E-03   3.003141000044353E-03
   3.040915863583103E-03   3.079165876412329E-03   3.117897015174357E-03
   3.157115331688417E-03   3.196826953896253E-03   3.237038086819631E-03
   3.277755013529878E-03   3.318984096129636E-03   3.360731776746939E-03
   3.403004578541820E-03   3.445809106725566E-03   3.489152049592789E-03
   3.533040179566497E-03   3.577480354256290E-03   3.622479517529873E-03
   3.668044700598064E-03   3.714183023113416E-03   3.760901694282696E-03
   3.808208013993321E-03   3.856109373953990E-03   3.904613258849657E-03
   3.953727247511015E-03   4.003459014098719E-03   4.053816329302477E-03
   4.104807061555239E-03   4.156439178262666E-03   4.208720747048035E-03
   4.261659937012842E-03   4.315265020013222E-03   4.369544371952453E-03
   4.424506474089708E-03   4.480159914365268E-03   4.536513388742404E-03
   4.593575702566141E-03   4.651355771939104E-03   4.709862625114690E-03
   4.769105403907740E-03   4.829093365122971E-03   4.889835882001371E-03
   4.951342445684778E-03   5.013622666698912E-03   5.076686276455009E-03
   5.140543128770402E-03   5.205203201408182E-03   5.270676597636249E-03
   5.336973547805973E-03   5.404104410950698E-03   5.472079676404369E-03
   5.540909965440512E-03   5.610606032931824E-03   5.681178769030648E-03
   5.752639200870580E-03   5.824998494289484E-03   5.898267955574173E-03
   5.972459033227039E-03   6.047583319754911E-03   6.123652553480395E-03
   6.200678620376030E-03   6.278673555921478E-03   6.357649546984099E-03
   6.437618933723175E-03   6.518594211518083E-03   6.600588032920722E-03
   6.683613209632506E-03   6.767682714506214E-03   6.852809683573019E-03
   6.939007418095032E-03   7.026289386643642E-03   7.114669227204013E-03
   7.204160749306043E-03   7.294777936182128E-03   7.386534946952083E-03
   7.479446118835522E-03   7.573525969392080E-03   7.668789198789817E-03
   7.765250692102133E-03   7.862925521633618E-03   7.961828949275104E-03
   8.061976428888380E-03   8.163383608720891E-03   8.266066333850795E-03
   8.370040648662806E-03   8.475322799355150E-03   8.581929236478072E-03
   8.689876617504267E-03   8.799181809431634E-03   8.909861891418803E-03
   9.021934157453757E-03   9.135416119056085E-03   9.250325508013163E-03
   9.366680279150800E-03   9.484498613138713E-03   9.603798919331292E-03
   9.724599838644097E-03   9.846920246466544E-03   9.970779255611215E-03
   1.009619621930028E-02   1.022319073418949E-02   1.035178264343015E-02
   1.048199203976972E-02   1.061383926869128E-02   1.074734493159259E-02
   1.088252988900511E-02   1.101941526385347E-02   1.115802244475598E-02
   1.129837308936665E-02   1.144048912775926E-02   1.158439276585393E-02
   1.173010648888690E-02   1.187765306492384E-02   1.202705554841746E-02
   1.217833728380974E-02   1.233152190917964E-02   1.248663335993653E-02
   1.264369587256016E-02   1.280273398838768E-02   1.296377255744825E-02
   1.312683674234591E-02   1.329195202219133E-02   1.345914419658290E-02
   1.362843938963803E-02   1.379986405407507E-02   1.397344497534659E-02
   1.414920927582471E-02   1.432718441903896E-02   1.450739821396758E-02
   1.468987881938266E-02   1.487465474825005E-02   1.506175487218458E-02
   1.525120842596127E-02   1.544304501208334E-02   1.563729460540766E-02
   1.583398755782841E-02   1.603315460301956E-02   1.623482686123714E-02
   1.643903584418180E-02   1.664581345992259E-02   1.685519201788267E-02
   1.706720423388769E-02   1.728188323527776E-02   1.749926256608361E-02
   1.771937619226792E-02   1.794225850703263E-02   1.816794433619288E-02
   1.839646894361862E-02   1.862786803674472E-02   1.886217777215024E-02
   1.909943476120806E-02   1.933967607580543E-02   1.958293925413651E-02
   1.982926230656786E-02   2.007868372157754E-02   2.033124247176913E-02
   2.058697801996117E-02   2.084593032535336E-02   2.110813984977026E-02
   2.137364756398352E-02   2.164249495411369E-02   2.191472402811243E-02
   2.219037732232642E-02   2.246949790814369E-02   2.275212939872366E-02
   2.303831595581176E-02   2.332810229663975E-02   2.362153370091300E-02
   2.391865601788540E-02   2.421951567352347E-02   2.452415967776052E-02
   2.483263563184201E-02   2.514499173576337E-02   2.546127679580132E-02
   2.578154023213998E-02   2.610583208659287E-02   2.643420303042202E-02
   2.676670437225547E-02   2.710338806610437E-02   2.744430671948088E-02
   2.778951360161817E-02   2.813906265179393E-02   2.849300848775839E-02
   2.885140641426854E-02   2.921431243172957E-02   2.958178324494503E-02
   2.995387627197712E-02   3.033064965311834E-02   3.071216225997605E-02
   3.109847370467126E-02   3.148964434915316E-02   3.188573531463080E-02
   3.228680849112337E-02   3.269292654713071E-02   3.310415293942531E-02
   3.352055192296762E-02   3.394218856094599E-02   3.436912873494292E-02
   3.480143915522923E-02   3.523918737118761E-02   3.568244178186743E-02
   3.613127164667216E-02   3.658574709618132E-02   3.704593914310855E-02
   3.751191969339743E-02   3.798376155745699E-02   3.846153846153848E-02
   3.894532505925519E-02   3.943519694324728E-02   3.993123065699329E-02
   4.043350370677017E-02   4.094209457376384E-02   4.145708272633200E-02
   4.197854863242124E-02   4.250657377214032E-02   4.304124065049157E-02
   4.358263281026257E-02   4.413083484507972E-02   4.468593241262629E-02
   4.524801224802658E-02   4.581716217739840E-02   4.639347113157620E-02
   4.697702916000655E-02   4.756792744481866E-02   4.816625831507172E-02
   4.877211526118153E-02   4.938559294952854E-02   5.000678723724968E-02
   5.063579518721624E-02   5.127271508320012E-02   5.191764644523091E-02
   5.257069004514604E-02   5.323194792233661E-02   5.390152339969130E-02
   5.457952109974069E-02   5.526604696100480E-02   5.596120825454623E-02
   5.666511360073138E-02   5.737787298620273E-02   5.809959778106435E-02
   5.883040075628383E-02   5.957039610131284E-02   6.031969944192959E-02
   6.107842785830554E-02   6.184669990329937E-02   6.262463562098118E-02
   6.341235656538957E-02   6.420998581952475E-02   6.501764801458046E-02
   6.583546934941789E-02   6.666357761028446E-02   6.750210219078075E-02
   6.835117411207843E-02   6.921092604339267E-02   7.008149232271191E-02
   7.096300897778848E-02   7.185561374739320E-02   7.275944610283733E-02
   7.367464726976526E-02   7.460136025022134E-02   7.553972984499414E-02
   7.648990267624203E-02   7.745202721040298E-02   7.842625378139292E-02
   7.941273461409566E-02   8.041162384814833E-02   8.142307756202599E-02
   8.244725379742923E-02   8.348431258397859E-02   8.453441596421933E-02
   8.559772801894111E-02   8.667441489281574E-02   8.776464482035787E-02
   8.886858815221174E-02   8.998641738176892E-02   9.111830717212081E-02
   9.226443438334996E-02   9.342497810016497E-02   9.460011965988271E-02
   9.579004268076276E-02   9.699493309069805E-02   9.821497915626647E-02
   9.945037151214797E-02   1.007013031909116E-01   1.019679696531772E-01
   1.032505688181566E-01   1.045493010945787E-01   1.058643694120041E-01
   1.071959792525328E-01   1.085443386829116E-01   1.099096583870448E-01
   1.112921516989139E-01   1.126920346359116E-01   1.141095259325949E-01
   1.155448470748629E-01   1.169982223345640E-01   1.184698788045397E-01
   1.199600464341074E-01   1.214689580649911E-01   1.229968494677030E-01
   1.245439593783832E-01   1.261105295361029E-01   1.276968047206365E-01
   1.293030327907089E-01   1.309294647227239E-01   1.325763546499799E-01
   1.342439599023786E-01   1.359325410466335E-01   1.376423619269839E-01
   1.393736897064209E-01   1.411267949084326E-01   1.429019514592733E-01
   1.446994367307659E-01   1.465195315836409E-01   1.483625204114222E-01
   1.502286911848636E-01   1.521183354969453E-01   1.540317486084356E-01
   1.559692294940260E-01   1.579310808890467E-01   1.599176093367696E-01
   1.619291252363063E-01   1.639659428911084E-01   1.660283805580787E-01
   1.681167604972985E-01   1.702314090223822E-01   1.723726565514641E-01
   1.745408376588271E-01   1.767362911271804E-01   1.789593600005951E-01
   1.812103916381055E-01   1.834897377679848E-01   1.857977545427031E-01
   1.881348025945772E-01   1.905012470921199E-01   1.928974577970985E-01
   1.953238091223109E-01   1.977806801900880E-01   2.002684548915327E-01
   2.027875219465036E-01   2.053382749643530E-01   2.079211125054296E-01
   2.105364381433539E-01   2.131846605280779E-01   2.158661934497369E-01
   2.185814559033056E-01   2.213308721540667E-01   2.241148718039029E-01
   2.269338898584238E-01   2.297883667949357E-01   2.326787486312673E-01
   2.356054869954611E-01   2.385690391963411E-01   2.415698682949680E-01
   2.446084431769937E-01   2.476852386259255E-01   2.508007353973121E-01
   2.539554202938627E-01   2.571497862415105E-01   2.603843323664338E-01
   2.636595640730455E-01   2.669759931229630E-01   2.703341377149729E-01
   2.737345225659999E-01   2.771776789930950E-01   2.806641449964552E-01
   2.841944653434866E-01   2.877691916539263E-01   2.913888824860326E-01
   2.950541034238628E-01   2.987654271656453E-01   3.025234336132652E-01
   3.063287099628760E-01   3.101818507966491E-01   3.140834581756791E-01
   3.180341417340567E-01   3.220345187741257E-01   3.260852143629376E-01
   3.301868614299191E-01   3.343401008657695E-01   3.385455816226005E-01
   3.428039608153362E-01   3.471159038243895E-01   3.514820843996280E-01
   3.559031847656499E-01   3.603798957283821E-01   3.649129167830204E-01
   3.695029562233272E-01   3.741507312523034E-01   3.788569680942535E-01
   3.836224021082587E-01   3.884477779030791E-01   3.933338494535002E-01
   3.982813802181421E-01   4.032911432587530E-01   4.083639213610004E-01
   4.135005071567831E-01   4.187017032480825E-01   4.239683223323694E-01
   4.293011873295913E-01   4.347011315107535E-01   4.401689986281203E-01
   4.457056430470537E-01   4.513119298795082E-01   4.569887351192079E-01
   4.627369457785208E-01   4.685574600270569E-01   4.744511873320100E-01
   4.804190486002620E-01   4.864619763222782E-01   4.925809147178093E-01
   4.987768198834285E-01   5.050506599419240E-01   5.114034151935688E-01
   5.178360782692960E-01   5.243496542857986E-01   5.309451610025808E-01
   5.376236289809861E-01   5.443861017452234E-01   5.512336359454206E-01
   5.581673015227279E-01   5.651881818764980E-01   5.722973740335709E-01
   5.794959888196843E-01   5.867851510330448E-01   5.941659996200779E-01
   6.016396878533915E-01   6.092073835119779E-01   6.168702690636798E-01
   6.246295418499556E-01   6.324864142729639E-01   6.404421139850058E-01
   6.484978840803477E-01   6.566549832894562E-01   6.649146861756788E-01
   6.732782833343958E-01   6.817470815946789E-01   6.903224042234866E-01
   6.990055911324257E-01   7.077979990871175E-01   7.167010019191929E-01
   7.257159907409574E-01   7.348443741627561E-01   7.440875785130699E-01
   7.534470480613847E-01   7.629242452438589E-01   7.725206508918336E-01
   7.822377644632161E-01   7.920771042767706E-01   8.020402077493622E-01
   8.121286316361780E-01   8.223439522739752E-01   8.326877658273872E-01
   8.431616885383258E-01   8.537673569785249E-01   8.645064283052548E-01
   8.753805805202591E-01   8.863915127319457E-01   8.975409454208739E-01
   9.088306207085857E-01   9.202623026298136E-01   9.318377774081150E-01
   9.435588537349755E-01   9.554273630524173E-01   9.674451598391683E-01
   9.796141219004267E-01   9.919361506612721E-01   1.004413171463769E+00
   1.017047133867800E+00   1.029840011955697E+00   1.042793804640689E+00
   1.055910535979235E+00   1.069192255487295E+00   1.082641038460564E+00
   1.096258986298742E+00   1.110048226833886E+00   1.124010914662883E+00
   1.138149231484114E+00   1.152465386438347E+00   1.166961616453920E+00
   1.181640186596267E+00   1.196503390421834E+00   1.211553550336460E+00
   1.226793017958250E+00   1.242224174485027E+00   1.257849431066391E+00
   1.273671229180474E+00   1.289692041015421E+00   1.305914369855676E+00
   1.322340750473123E+00   1.338973749523156E+00   1.355815965945714E+00
   1.372870031371381E+00   1.390138610532575E+00   1.407624401679924E+00
   1.425330137003869E+00   1.443258583061578E+00   1.461412541209222E+00
   1.479794848039698E+00   1.498408375825846E+00   1.517256032969252E+00
   1.536340764454690E+00   1.555665552310285E+00   1.575233416073455E+00
   1.595047413262722E+00   1.615110639855462E+00   1.635426230771646E+00
   1.655997360363690E+00   1.676827242912444E+00   1.697919133129433E+00
   1.719276326665418E+00   1.740902160625338E+00   1.762800014089750E+00
   1.784973308642808E+00   1.807425508906896E+00   1.830160123083989E+00
   1.853180703503801E+00   1.876490847178863E+00   1.900094196366547E+00
   1.923994439138184E+00   1.948195309955333E+00   1.972700590253297E+00
   1.997514109031980E+00   2.022639743454172E+00   2.048081419451371E+00
   2.073843112337214E+00   2.099928847428626E+00   2.126342700674786E+00
   2.153088799294006E+00   2.180171322418608E+00   2.207594501747932E+00
   2.235362622209540E+00   2.263480022628746E+00   2.291951096406577E+00
   2.320780292206231E+00   2.349972114648207E+00   2.379531125014152E+00
   2.409461941959572E+00   2.439769242235513E+00   2.470457761419304E+00
   2.501532294654500E+00   2.532997697400144E+00   2.564858886189431E+00
   2.597120839397929E+00   2.629788598021467E+00   2.662867266463794E+00
   2.696362013334151E+00   2.730278072254882E+00   2.764620742679195E+00
   2.799395390719218E+00   2.834607449984456E+00   2.870262422430807E+00
   2.906365879220257E+00   2.942923461591380E+00   2.979940881740804E+00
   3.017423923715737E+00   3.055378444317746E+00   3.093810374017897E+00
   3.132725717883390E+00   3.172130556515886E+00   3.212031047001588E+00
   3.252433423873311E+00   3.293344000084641E+00   3.334769167996342E+00
   3.376715400375187E+00   3.419189251405320E+00   3.462197357712381E+00
   3.505746439400478E+00   3.549843301102226E+00   3.594494833041987E+00
   3.639708012112467E+00   3.685489902964883E+00   3.731847659112825E+00
   3.778788524050003E+00   3.826319832382072E+00   3.874449010972659E+00
   3.923183580103838E+00   3.972531154651187E+00   4.022499445273624E+00
   4.073096259618228E+00   4.124329503540175E+00   4.176207182338065E+00
   4.228737402004755E+00   4.281928370493937E+00   4.335788399002663E+00
   4.390325903269963E+00   4.445549404891837E+00   4.501467532652766E+00
   4.558089023873975E+00   4.615422725778672E+00   4.673477596874422E+00
   4.732262708352947E+00   4.791787245507518E+00   4.852060509168161E+00
   4.913091917154959E+00   4.974891005749575E+00   5.037467431185335E+00
   5.100830971156025E+00   5.164991526343674E+00   5.229959121965576E+00
   5.295743909340720E+00   5.362356167475974E+00   5.429806304672192E+00
   5.498104860150539E+00   5.567262505699270E+00   5.637290047341200E+00
   5.708198427022182E+00   5.779998724320807E+00   5.852702158179601E+00
   5.926320088658030E+00   6.000864018707504E+00   6.076345595968754E+00
   6.152776614591795E+00   6.230169017078783E+00   6.308534896150070E+00
   6.387886496633697E+00   6.468236217378676E+00   6.549596613192351E+00
   6.631980396802090E+00   6.715400440841704E+00   6.799869779862787E+00
   6.885401612371417E+00   6.972009302890437E+00   7.059706384047692E+00
   7.148506558690544E+00   7.238423702026942E+00   7.329471863793468E+00
   7.421665270450638E+00   7.515018327405806E+00   7.609545621264060E+00
   7.705261922107378E+00   7.802182185802502E+00   7.900321556337821E+00
   7.999695368189640E+00   8.100319148718253E+00   8.202208620594080E+00
   8.305379704254396E+00   8.409848520390931E+00   8.515631392468737E+00
   8.622744849276812E+00   8.731205627510697E+00   8.841030674387655E+00
   8.952237150294703E+00   9.064842431469947E+00   9.178864112717680E+00
   9.294320010157568E+00   9.411228164008484E+00   9.529606841407320E+00
   9.649474539263254E+00   9.770849987147963E+00   9.893752150222115E+00
   1.001820023219873E+01   1.014421367834382E+01   1.027181217851470E+01
   1.040101567023664E+01   1.053184434181810E+01   1.066431863550516E+01
   1.079845925067575E+01   1.093428714707388E+01   1.107182354808473E+01
   1.121108994405078E+01   1.135210809562971E+01   1.149490003719464E+01
   1.163948808027692E+01   1.178589481705247E+01   1.193414312387178E+01
   1.208425616483440E+01   1.223625739540839E+01   1.239017056609525E+01
   1.254601972614108E+01   1.270382922729419E+01   1.286362372761021E+01
   1.302542819530491E+01   1.318926791265555E+01   1.335516847995134E+01
   1.352315581949341E+01   1.369325617964536E+01   1.386549613893453E+01
   1.403990261020496E+01   1.421650284482265E+01   1.439532443693355E+01
   1.457639532777523E+01   1.475974381004278E+01   1.494539853230957E+01
   1.513338850350370E+01   1.532374309744061E+01   1.551649205741290E+01
   1.571166550083771E+01   1.590929392396265E+01   1.610940820663092E+01
   1.631203961710633E+01   1.651721981695901E+01   1.672498086601264E+01
   1.693535522735380E+01   1.714837577240451E+01   1.736407578605829E+01
   1.758248897188113E+01   1.780364945737768E+01   1.802759179932373E+01
   1.825435098916586E+01   1.848396245848882E+01   1.871646208455183E+01
   1.895188619589449E+01   1.919027157801316E+01   1.943165547910881E+01
   1.967607561590708E+01   1.992357017955163E+01   2.017417784157156E+01
   2.042793775992389E+01   2.068488958511219E+01   2.094507346638190E+01
   2.120853005799382E+01   2.147530052557638E+01   2.174542655255789E+01
   2.201895034667967E+01   2.229591464659102E+01   2.257636272852729E+01
   2.286033841307185E+01   2.314788607200316E+01   2.343905063522799E+01
   2.373387759780168E+01   2.403241302703698E+01   2.433470356970208E+01
   2.464079645930926E+01   2.495073952349532E+01   2.526458119149461E+01
   2.558237050170624E+01   2.590415710935652E+01   2.622999129425752E+01
   2.655992396866361E+01   2.689400668522638E+01   2.723229164505000E+01
   2.757483170584769E+01   2.792168039020082E+01   2.827289189392205E+01
   2.862852109452335E+01   2.898862355979085E+01   2.935325555646737E+01
   2.972247405904423E+01   3.009633675866369E+01   3.047490207213315E+01
   3.085822915105307E+01   3.124637789105939E+01   3.163940894118240E+01
   3.203738371332339E+01   3.244036439185014E+01   3.284841394331355E+01
   3.326159612628622E+01   3.367997550132485E+01   3.410361744105801E+01
   3.453258814040070E+01   3.496695462689743E+01   3.540678477119543E+01
   3.585214729764955E+01   3.630311179506073E+01   3.675974872754914E+01
   3.722212944556452E+01   3.769032619703478E+01   3.816441213865485E+01
   3.864446134731773E+01   3.913054883168889E+01   3.962275054392672E+01