<UPF version="2.0.1">
  <PP_INFO>
    Generated using "atomic" code by A. Dal Corso  v.7.2
    Author: ADC
    Generation date:  9Jun2023
    Pseudopotential type: USPP
    Element: Hg
    Functional: PBE
    Suggested minimum cutoff for wavefunctions:  43. Ry
    Suggested minimum cutoff for charge density: 415. Ry
    The Pseudo was generated with a Fully-Relativistic Calculation
    Local Potential by smoothing AE potential with Bessel fncs, cutoff radius:   2.4000
    Pseudopotential contains additional information for spin-orbit calculations.
    Valence configuration: 
    nl pn  l   occ       Rcut    Rcut US       E pseu
    6S  1  0  2.00      1.900      2.100    -0.501906
    6P  2  1  0.00      2.300      2.500    -0.114190
    6P  2  1  0.00      2.300      2.500    -0.066096
    5D  3  2  4.00      1.000      2.200    -0.808094
    5D  3  2  6.00      1.000      2.200    -0.673247
    Generation configuration:
    6S  1  0  2.00      1.900      2.100    -0.501904
    6S  1  0  0.00      1.900      2.100     4.400000
    6P  2  1  0.00      2.300      2.500    -0.114191
    6P  2  1  0.00      2.300      2.500    -0.066095
    6P  2  1  0.00      2.300      2.500     6.400000
    6P  2  1  0.00      2.300      2.500     6.400000
    5D  3  2  4.00      1.000      2.200    -0.808094
    5D  3  2  6.00      1.000      2.200    -0.673246
    5D  3  2  0.00      1.000      2.200     0.800000
    5D  3  2  0.00      1.000      2.200     0.800000
    Pseudization used: troullier-martins
    <PP_INPUTFILE>
@input
title='Hg',
zed=80.,
rel=2,
config='[Xe] 4f14 6s2 6p0 5d10',
iswitch=3,
dft='PBE'
/
@inputp
lpaw=.false.,
pseudotype=3,
file_pseudopw='Hg.rel-pbe-n-rrkjus_psl.1.0.0.UPF',
author='ADC',
lloc=-1,
rcloc=2.4,
which_augfun='PSQ',
rmatch_augfun_nc=.true.,
nlcc=.true.,
new_core_ps=.true.,
rcore=1.6,
tm=.true.
/
6
6S  1  0  2.00  0.00  1.90  2.10  0.0
6S  1  0  0.00  4.40  1.90  2.10  0.0
6P  2  1  0.00  0.00  2.30  2.50  0.0
6P  2  1  0.00  6.40  2.30  2.50  0.0
5D  3  2 10.00  0.00  1.00  2.20  0.0
5D  3  2  0.00  0.80  1.00  2.20  0.0
    </PP_INPUTFILE>
  </PP_INFO>
    <!-- END OF HUMAN READABLE SECTION -->
  <PP_HEADER generated="Generated using 'atomic' code by A. Dal Corso  v.7.2" author="ADC" date=" 9Jun2023" comment="" element="Hg" pseudo_type="USPP" relativistic="full" is_ultrasoft="true" is_paw="false" is_coulomb="false" has_so="true" has_wfc="false" has_gipaw="false" paw_as_gipaw="false" core_correction="true" functional="PBE" z_valence="12.0000000000000" total_psenergy="-99.6498771534443" wfc_cutoff="42.7326300105032" rho_cutoff="415.445811701631" l_max="2" l_max_rho="4" l_local="-1" mesh_size="1279" number_of_wfc="5" number_of_proj="10"/>
  <PP_MESH mesh="1279" dx="1.250000000000000E-002" xmin="-7.00000000000000" rmax="100.000000000000" zmesh="80.0000000000000">
    <PP_R>
   1.139852456943145E-05   1.154190035836278E-05   1.168707959270728E-05
   1.183408495701567E-05   1.198293942117525E-05   1.213366624399886E-05
   1.228628897685923E-05   1.244083146736889E-05   1.259731786310638E-05
   1.275577261538943E-05   1.291622048309546E-05   1.307868653653023E-05
   1.324319616134513E-05   1.340977506250371E-05   1.357844926829822E-05
   1.374924513441648E-05   1.392218934806004E-05   1.409730893211415E-05
   1.427463124937009E-05   1.445418400680072E-05   1.463599525988968E-05
   1.482009341701516E-05   1.500650724388876E-05   1.519526586805018E-05
   1.538639878341851E-05   1.557993585490062E-05   1.577590732305768E-05
   1.597434380883031E-05   1.617527631832310E-05   1.637873624764950E-05
   1.658475538783739E-05   1.679336592979659E-05   1.700460046934867E-05
   1.721849201232021E-05   1.743507397969999E-05   1.765438021286102E-05
   1.787644497884843E-05   1.810130297573370E-05   1.832898933803629E-05
   1.855953964221358E-05   1.879298991221966E-05   1.902937662513415E-05
   1.926873671686188E-05   1.951110758790415E-05   1.975652710920271E-05
   2.000503362805705E-05   2.025666597411633E-05   2.051146346544658E-05
   2.076946591467418E-05   2.103071363520677E-05   2.129524744753218E-05
   2.156310868559678E-05   2.183433920326400E-05   2.210898138085401E-05
   2.238707813176587E-05   2.266867290918269E-05   2.295380971286134E-05
   2.324253309600751E-05   2.353488817223722E-05   2.383092062262596E-05
   2.413067670284637E-05   2.443420325039584E-05   2.474154769191496E-05
   2.505275805059799E-05   2.536788295369667E-05   2.568697164011824E-05
   2.601007396811912E-05   2.633724042309543E-05   2.666852212547135E-05
   2.700397083868693E-05   2.734363897728606E-05   2.768757961510646E-05
   2.803584649357254E-05   2.838849403009258E-05   2.874557732656170E-05
   2.910715217797142E-05   2.947327508112791E-05   2.984400324347967E-05
   3.021939459205629E-05   3.059950778251979E-05   3.098440220832948E-05
   3.137413801002248E-05   3.176877608461073E-05   3.216837809509625E-05
   3.257300648010623E-05   3.298272446364902E-05   3.339759606499313E-05
   3.381768610867033E-05   3.424306023460461E-05   3.467378490836860E-05
   3.510992743156891E-05   3.555155595236209E-05   3.599873947610304E-05
   3.645154787612710E-05   3.691005190466808E-05   3.737432320391326E-05
   3.784443431719769E-05   3.832045870033929E-05   3.880247073311636E-05
   3.929054573088976E-05   3.978475995637083E-05   4.028519063153783E-05
   4.079191594970185E-05   4.130501508772478E-05   4.182456821839090E-05
   4.235065652293390E-05   4.288336220372168E-05   4.342276849710067E-05
   4.396895968640161E-05   4.452202111510912E-05   4.508203920019663E-05
   4.564910144562929E-05   4.622329645603665E-05   4.680471395055725E-05
   4.739344477685760E-05   4.798958092532705E-05   4.859321554345163E-05
   4.920444295036854E-05   4.982335865160363E-05   5.045005935399448E-05
   5.108464298080083E-05   5.172720868700546E-05   5.237785687480724E-05
   5.303668920930925E-05   5.370380863440425E-05   5.437931938885961E-05
   5.506332702260508E-05   5.575593841322502E-05   5.645726178265833E-05
   5.716740671410841E-05   5.788648416916557E-05   5.861460650514514E-05
   5.935188749264347E-05   6.009844233331487E-05   6.085438767787204E-05
   6.161984164431314E-05   6.239492383637772E-05   6.317975536223518E-05
   6.397445885340820E-05   6.477915848393406E-05   6.559397998976731E-05
   6.641905068842594E-05   6.725449949888525E-05   6.810045696172161E-05
   6.895705525950964E-05   6.982442823747624E-05   7.070271142441385E-05
   7.159204205385732E-05   7.249255908552683E-05   7.340440322704066E-05
   7.432771695590118E-05   7.526264454175699E-05   7.620933206894548E-05
   7.716792745931885E-05   7.813858049535701E-05   7.912144284357183E-05
   8.011666807820479E-05   8.112441170522359E-05   8.214483118662024E-05
   8.317808596501467E-05   8.422433748856834E-05   8.528374923621034E-05
   8.635648674318165E-05   8.744271762690021E-05   8.854261161315148E-05
   8.965634056260874E-05   9.078407849768614E-05   9.192600162973045E-05
   9.308228838655430E-05   9.425311944031587E-05   9.543867773574952E-05
   9.663914851875088E-05   9.785471936532217E-05   9.908558021088128E-05
   1.003319233799394E-04   1.015939436161526E-04   1.028718381127504E-04
   1.041658065433476E-04   1.054760510931442E-04   1.068027764905167E-04
   1.081461900390079E-04   1.095065016497179E-04   1.108839238741032E-04
   1.122786719371891E-04   1.136909637711977E-04   1.151210200496017E-04
   1.165690642216041E-04   1.180353225470526E-04   1.195200241317939E-04
   1.210234009634711E-04   1.225456879477729E-04   1.240871229451377E-04
   1.256479468079198E-04   1.272284034180235E-04   1.288287397250093E-04
   1.304492057846813E-04   1.320900547981582E-04   1.337515431514366E-04
   1.354339304554520E-04   1.371374795866435E-04   1.388624567280288E-04
   1.406091314107958E-04   1.423777765564172E-04   1.441686685192954E-04
   1.459820871299430E-04   1.478183157387077E-04   1.496776412600453E-04
   1.515603542173512E-04   1.534667487883556E-04   1.553971228510885E-04
   1.573517780304250E-04   1.593310197452134E-04   1.613351572559984E-04
   1.633645037133436E-04   1.654193762067616E-04   1.675000958142603E-04
   1.696069876525117E-04   1.717403809276518E-04   1.739006089867204E-04
   1.760880093697465E-04   1.783029238624907E-04   1.805456985498485E-04
   1.828166838699278E-04   1.851162346688052E-04   1.874447102559713E-04
   1.898024744604743E-04   1.921898956877679E-04   1.946073469772761E-04
   1.970552060606813E-04   1.995338554209451E-04   2.020436823520734E-04
   2.045850790196304E-04   2.071584425220157E-04   2.097641749525121E-04
   2.124026834621133E-04   2.150743803231423E-04   2.177796829936689E-04
   2.205190141827395E-04   2.232928019164256E-04   2.261014796047037E-04
   2.289454861091772E-04   2.318252658116486E-04   2.347412686835551E-04
   2.376939503562782E-04   2.406837721923366E-04   2.437112013574749E-04
   2.467767108936598E-04   2.498807797929929E-04   2.530238930725549E-04
   2.562065418501907E-04   2.594292234212468E-04   2.626924413362754E-04
   2.659967054797147E-04   2.693425321495597E-04   2.727304441380347E-04
   2.761609708132805E-04   2.796346482020700E-04   2.831520190735621E-04
   2.867136330241116E-04   2.903200465631447E-04   2.939718232001138E-04
   2.976695335325485E-04   3.014137553352109E-04   3.052050736503754E-04
   3.090440808792425E-04   3.129313768745018E-04   3.168675690340618E-04
   3.208532723959554E-04   3.248891097344418E-04   3.289757116573164E-04
   3.331137167044436E-04   3.373037714475311E-04   3.415465305911571E-04
   3.458426570750697E-04   3.501928221777728E-04   3.545977056214137E-04
   3.590579956779929E-04   3.635743892769059E-04   3.681475921138411E-04
   3.727783187610464E-04   3.774672927789813E-04   3.822152468293762E-04
   3.870229227897112E-04   3.918910718691361E-04   3.968204547258494E-04
   4.018118415859508E-04   4.068660123637929E-04   4.119837567838421E-04
   4.171658745040760E-04   4.224131752409320E-04   4.277264788958254E-04
   4.331066156832628E-04   4.385544262605630E-04   4.440707618592121E-04
   4.496564844178708E-04   4.553124667170530E-04   4.610395925155002E-04
   4.668387566882703E-04   4.727108653665636E-04   4.786568360793083E-04
   4.846775978965251E-04   4.907740915744977E-04   4.969472697027665E-04
   5.031980968529732E-04   5.095275497295778E-04   5.159366173224693E-04
   5.224263010614990E-04   5.289976149729540E-04   5.356515858380023E-04
   5.423892533531297E-04   5.492116702925928E-04   5.561199026729190E-04
   5.631150299194728E-04   5.701981450351175E-04   5.773703547710015E-04
   5.846327797994872E-04   5.919865548892616E-04   5.994328290826435E-04
   6.069727658751247E-04   6.146075433971698E-04   6.223383545982993E-04
   6.301664074334923E-04   6.380929250519302E-04   6.461191459881173E-04
   6.542463243554051E-04   6.624757300419478E-04   6.708086489091267E-04
   6.792463829924687E-04   6.877902507050903E-04   6.964415870437053E-04
   7.052017437972171E-04   7.140720897579412E-04   7.230540109354810E-04
   7.321489107732941E-04   7.413582103679843E-04   7.506833486913497E-04
   7.601257828152247E-04   7.696869881391530E-04   7.793684586209178E-04
   7.891717070099800E-04   7.990982650838450E-04   8.091496838874069E-04
   8.193275339753045E-04   8.296334056573200E-04   8.400689092468723E-04
   8.506356753126278E-04   8.613353549332823E-04   8.721696199555458E-04
   8.831401632553700E-04   8.942486990024658E-04   9.054969629281437E-04
   9.168867125965267E-04   9.284197276791739E-04   9.400978102331551E-04
   9.519227849826295E-04   9.638964996039592E-04   9.760208250144146E-04
   9.882976556645085E-04   1.000728909834007E-03   1.013316529931666E-03
   1.026062482798735E-03   1.038968760016282E-03   1.052037378216380E-03
   1.065270379397210E-03   1.078669831242132E-03   1.092237827442755E-03
   1.105976488026091E-03   1.119887959685809E-03   1.133974416117656E-03
   1.148238058359112E-03   1.162681115133294E-03   1.177305843197209E-03
   1.192114527694371E-03   1.207109482511860E-03   1.222293050641876E-03
   1.237667604547829E-03   1.253235546535047E-03   1.268999309126139E-03
   1.284961355441080E-03   1.301124179582084E-03   1.317490307023305E-03
   1.334062295005453E-03   1.350842732935366E-03   1.367834242790612E-03
   1.385039479529174E-03   1.402461131504297E-03   1.420101920884547E-03
   1.437964604079155E-03   1.456051972168712E-03   1.474366851341282E-03
   1.492912103333996E-03   1.511690625880209E-03   1.530705353162274E-03
   1.549959256270015E-03   1.569455343664966E-03   1.589196661650446E-03
   1.609186294847553E-03   1.629427366677146E-03   1.649923039847878E-03
   1.670676516850381E-03   1.691691040457659E-03   1.712969894231781E-03
   1.734516403036941E-03   1.756333933558977E-03   1.778425894831420E-03
   1.800795738768166E-03   1.823446960702843E-03   1.846383099934961E-03
   1.869607740282939E-03   1.893124510644083E-03   1.916937085561606E-03
   1.941049185798788E-03   1.965464578920346E-03   1.990187079881129E-03
   2.015220551622210E-03   2.040568905674480E-03   2.066236102769832E-03
   2.092226153460032E-03   2.118543118743377E-03   2.145191110699235E-03
   2.172174293130565E-03   2.199496882214520E-03   2.227163147161231E-03
   2.255177410880885E-03   2.283544050659184E-03   2.312267498841304E-03
   2.341352243524464E-03   2.370802829259192E-03   2.400623857759427E-03
   2.430819988621545E-03   2.461395940052426E-03   2.492356489606691E-03
   2.523706474933193E-03   2.555450794530926E-03   2.587594408514408E-03
   2.620142339388724E-03   2.653099672834289E-03   2.686471558501508E-03
   2.720263210815412E-03   2.754479909790424E-03   2.789127001855373E-03
   2.824209900688887E-03   2.859734088065281E-03   2.895705114711111E-03
   2.932128601172471E-03   2.969010238693227E-03   3.006355790104278E-03
   3.044171090724010E-03   3.082462049270082E-03   3.121234648782670E-03
   3.160494947559332E-03   3.200249080101627E-03   3.240503258073645E-03
   3.281263771272592E-03   3.322536988611583E-03   3.364329359114799E-03
   3.406647412925159E-03   3.449497762324665E-03   3.492887102767592E-03
   3.536822213926662E-03   3.581309960752377E-03   3.626357294545693E-03
   3.671971254044162E-03   3.718158966521759E-03   3.764927648902528E-03
   3.812284608888242E-03   3.860237246100249E-03   3.908793053235673E-03
   3.957959617238166E-03   4.007744620483384E-03   4.058155841979372E-03
   4.109201158582053E-03   4.160888546225996E-03   4.213226081170680E-03
   4.266221941262422E-03   4.319884407212182E-03   4.374221863889444E-03
   4.429242801632360E-03   4.484955817574397E-03   4.541369616987642E-03
   4.598493014643030E-03   4.656334936187664E-03   4.714904419539463E-03
   4.774210616299363E-03   4.834262793181267E-03   4.895070333459988E-03
   4.956642738437413E-03   5.018989628927085E-03   5.082120746757490E-03
   5.146045956294232E-03   5.210775245981357E-03   5.276318729902070E-03
   5.342686649359085E-03   5.409889374474843E-03   5.477937405811867E-03
   5.546841376013500E-03   5.616612051465272E-03   5.687260333977171E-03
   5.758797262487075E-03   5.831234014785606E-03   5.904581909262686E-03
   5.978852406676053E-03   6.054057111942033E-03   6.130207775948829E-03
   6.207316297392621E-03   6.285394724636764E-03   6.364455257594367E-03
   6.444510249634554E-03   6.525572209512702E-03   6.607653803324969E-03
   6.690767856487380E-03   6.774927355739842E-03   6.860145451175333E-03
   6.946435458294644E-03   7.033810860086949E-03   7.122285309136540E-03
   7.211872629756086E-03   7.302586820146700E-03   7.394442054585190E-03
   7.487452685638820E-03   7.581633246407921E-03   7.676998452796725E-03
   7.773563205812755E-03   7.871342593895127E-03   7.970351895272169E-03
   8.070606580348654E-03   8.172122314123094E-03   8.274914958635428E-03
   8.379000575445494E-03   8.484395428142683E-03   8.591115984887156E-03
   8.699178920983028E-03   8.808601121483921E-03   8.919399683831285E-03
   9.031591920525906E-03   9.145195361833027E-03   9.260227758521478E-03
   9.376707084637276E-03   9.494651540312111E-03   9.614079554607136E-03
   9.735009788392566E-03   9.857461137263461E-03   9.981452734492217E-03
   1.010700395401816E-02   1.023413441347478E-02   1.036286397725501E-02
   1.049321275961510E-02   1.062520112781748E-02   1.075884970531323E-02
   1.089417937496448E-02   1.103121128230745E-02   1.116996683885645E-02
   1.131046772544950E-02   1.145273589563598E-02   1.159679357910691E-02
   1.174266328516845E-02   1.189036780625893E-02   1.203993022151028E-02
   1.219137390035416E-02   1.234472250617352E-02   1.250000000000001E-02
   1.265723064425794E-02   1.281643900655537E-02   1.297764996352282E-02
   1.314088870470031E-02   1.330618073647325E-02   1.347355188605790E-02
   1.364302830553690E-02   1.381463647594560E-02   1.398840321140976E-02
   1.416435566333533E-02   1.434252132465091E-02   1.452292803410354E-02
   1.470560398060864E-02   1.489057770765448E-02   1.507787811776226E-02
   1.526753447700213E-02   1.545957641956607E-02   1.565403395239831E-02
   1.585093745988400E-02   1.605031770859678E-02   1.625220585210614E-02
   1.645663343584528E-02   1.666363240204004E-02   1.687323509470005E-02
   1.708547426467246E-02   1.730038307475940E-02   1.751799510489967E-02
   1.773834435741572E-02   1.796146526232656E-02   1.818739268272752E-02
   1.841616192023770E-02   1.864780872051589E-02   1.888236927884591E-02
   1.911988024579224E-02   1.936037873292667E-02   1.960390231862712E-02
   1.985048905394930E-02   2.010017746857230E-02   2.035300657681888E-02
   2.060901588375161E-02   2.086824539134554E-02   2.113073560473865E-02
   2.139652753856081E-02   2.166566272334245E-02   2.193818321200374E-02
   2.221413158642549E-02   2.249355096410262E-02   2.277648500488137E-02
   2.306297791778126E-02   2.335307446790279E-02   2.364681998342213E-02
   2.394426036267371E-02   2.424544208132193E-02   2.455041219962310E-02
   2.485921836977866E-02   2.517190884338097E-02   2.548853247895270E-02
   2.580913874958109E-02   2.613377775064821E-02   2.646250020765845E-02
   2.679535748416450E-02   2.713240158979304E-02   2.747368518837128E-02
   2.781926160615586E-02   2.816918484016512E-02   2.852350956661630E-02
   2.888229114946881E-02   2.924558564907490E-02   2.961344983093927E-02
   2.998594117458874E-02   3.036311788255362E-02   3.074503888946188E-02
   3.113176387124790E-02   3.152335325447687E-02   3.191986822578660E-02
   3.232137074144809E-02   3.272792353704627E-02   3.313959013728260E-02
   3.355643486590089E-02   3.397852285573808E-02   3.440592005890132E-02
   3.483869325707314E-02   3.527691007194627E-02   3.572063897578957E-02
   3.616994930214702E-02   3.662491125667128E-02   3.708559592809336E-02
   3.755207529933043E-02   3.802442225873331E-02   3.850271061147541E-02
   3.898701509108492E-02   3.947741137112211E-02   3.997397607700347E-02
   4.047678679797453E-02   4.098592209923344E-02   4.150146153420686E-02
   4.202348565698038E-02   4.255207603488526E-02   4.308731526124345E-02
   4.362928696827303E-02   4.417807584015589E-02   4.473376762626975E-02
   4.529644915458680E-02   4.586620834524058E-02   4.644313422426382E-02
   4.702731693749890E-02   4.761884776468328E-02   4.821781913371220E-02
   4.882432463508067E-02   4.943845903650724E-02   5.006031829774158E-02
   5.068999958555846E-02   5.132760128894018E-02   5.197322303445012E-02
   5.262696570179953E-02   5.328893143961024E-02   5.395922368137558E-02
   5.463794716162200E-02   5.532520793227420E-02   5.602111337922584E-02
   5.672577223911881E-02   5.743929461633364E-02   5.816179200019341E-02
   5.889337728238429E-02   5.963416477459507E-02   6.038427022637851E-02
   6.114381084323759E-02   6.191290530493897E-02   6.269167378405702E-02
   6.348023796475104E-02   6.427872106177859E-02   6.508724783974815E-02
   6.590594463261368E-02   6.673493936341474E-02   6.757436156426462E-02
   6.842434239659002E-02   6.928501467162532E-02   7.015651287116451E-02
   7.103897316857433E-02   7.193253345007167E-02   7.283733333626845E-02
   7.375351420398775E-02   7.468121920835409E-02   7.562059330516187E-02
   7.657178327352486E-02   7.753493773881084E-02   7.851020719586459E-02
   7.949774403252294E-02   8.049770255342578E-02   8.151023900412643E-02
   8.253551159550537E-02   8.357368052849092E-02   8.462490801909099E-02
   8.568935832373978E-02   8.676719776496297E-02   8.785859475736621E-02
   8.896371983394999E-02   9.008274567275590E-02   9.121584712384793E-02
   9.236320123663316E-02   9.352498728752603E-02   9.470138680796061E-02
   9.589258361275542E-02   9.709876382883473E-02   9.832011592431120E-02
   9.955683073793471E-02   1.008091015089109E-01   1.020771239070957E-01
   1.033610960635684E-01   1.046612186015909E-01   1.059776946679547E-01
   1.073107299647237E-01   1.086605327813751E-01   1.100273140273452E-01
   1.114112872649843E-01   1.128126687429266E-01   1.142316774298791E-01
   1.156685350488362E-01   1.171234661117242E-01   1.185966979544816E-01
   1.200884607725814E-01   1.215989876569986E-01   1.231285146306324E-01
   1.246772806851841E-01   1.262455278185007E-01   1.278335010723876E-01
   1.294414485708962E-01   1.310696215590947E-01   1.327182744423251E-01
   1.343876648259545E-01   1.360780535556268E-01   1.377897047580200E-01
   1.395228858821172E-01   1.412778677409949E-01   1.430549245541391E-01
   1.448543339902925E-01   1.466763772108402E-01   1.485213389137426E-01
   1.503895073780192E-01   1.522811745087935E-01   1.541966358829033E-01
   1.561361907950852E-01   1.581001423047404E-01   1.600887972832880E-01
   1.621024664621143E-01   1.641414644811253E-01   1.662061099379099E-01
   1.682967254375212E-01   1.704136376428846E-01   1.725571773258388E-01
   1.747276794188205E-01   1.769254830671976E-01   1.791509316822617E-01
   1.814043729948866E-01   1.836861591098619E-01   1.859966465609106E-01
   1.883361963663974E-01   1.907051740857396E-01   1.931039498765253E-01
   1.955328985523522E-01   1.979923996413928E-01   2.004828374456959E-01
   2.030046011012356E-01   2.055580846387133E-01   2.081436870451269E-01
   2.107618123261130E-01   2.134128695690733E-01   2.160972730070956E-01
   2.188154420836786E-01   2.215678015182706E-01   2.243547813726331E-01
   2.271768171180383E-01   2.300343497033132E-01   2.329278256237377E-01
   2.358576969908111E-01   2.388244216028957E-01   2.418284630167477E-01
   2.448702906199500E-01   2.479503797042542E-01   2.510692115398460E-01
   2.542272734505452E-01   2.574250588899504E-01   2.606630675185427E-01
   2.639418052817578E-01   2.672617844890419E-01   2.706235238939009E-01
   2.740275487749559E-01   2.774743910180206E-01   2.809645891992078E-01
   2.844986886690842E-01   2.880772416378824E-01   2.917008072617840E-01
   2.953699517302903E-01   2.990852483546894E-01   3.028472776576374E-01
   3.066566274638670E-01   3.105138929920356E-01   3.144196769477297E-01
   3.183745896176387E-01   3.223792489649134E-01   3.264342807257247E-01
   3.305403185070350E-01   3.346980038856017E-01   3.389079865082238E-01
   3.431709241932514E-01   3.474874830333710E-01   3.518583374996832E-01
   3.562841705470912E-01   3.607656737210129E-01   3.653035472654369E-01
   3.698985002323371E-01   3.745512505924628E-01   3.792625253475242E-01
   3.840330606437867E-01   3.888636018870960E-01   3.937549038593494E-01
   3.987077308364314E-01   4.037228567076337E-01   4.088010650965772E-01
   4.139431494836541E-01   4.191499133300119E-01   4.244221702030946E-01
   4.297607439037650E-01   4.351664685950256E-01   4.406401889323570E-01
   4.461827601956987E-01   4.517950484230869E-01   4.574779305459751E-01
   4.632322945262574E-01   4.690590394950127E-01   4.749590758929972E-01
   4.809333256129019E-01   4.869827221433998E-01   4.931082107150069E-01
   4.993107484477745E-01   5.055913045008427E-01   5.119508602238728E-01
   5.183904093103846E-01   5.249109579530251E-01   5.315135250007851E-01
   5.381991421181993E-01   5.449688539465442E-01   5.518237182670657E-01
   5.587648061662607E-01   5.657932022032348E-01   5.729100045791686E-01
   5.801163253089124E-01   5.874132903947413E-01   5.948020400022963E-01
   6.022837286387355E-01   6.098595253331305E-01   6.175306138191277E-01
   6.252981927199096E-01   6.331634757354834E-01   6.411276918323215E-01
   6.491920854353934E-01   6.573579166226059E-01   6.656264613216956E-01
   6.739990115095946E-01   6.824768754143036E-01   6.910613777193054E-01
   6.997538597705519E-01   7.085556797860477E-01   7.174682130680780E-01
   7.264928522181004E-01   7.356310073543426E-01   7.448841063321374E-01
   7.542535949670250E-01   7.637409372606672E-01   7.733476156295993E-01
   7.830751311368608E-01   7.929250037265418E-01   8.028987724612737E-01
   8.129979957627127E-01   8.232242516550470E-01   8.335791380115651E-01
   8.440642728043268E-01   8.546812943569769E-01   8.654318616007330E-01
   8.763176543335991E-01   8.873403734828367E-01   8.985017413707383E-01
   9.098035019837459E-01   9.212474212449481E-01   9.328352872900123E-01
   9.445689107465836E-01   9.564501250171986E-01   9.684807865657612E-01
   9.806627752076145E-01   9.929979944032675E-01   1.005488371555816E+00
   1.018135858312102E+00   1.030942430867663E+00   1.043910090275516E+00
   1.057040862758826E+00   1.070336800027508E+00   1.083799979598811E+00
   1.097432505121936E+00   1.111236506706729E+00   1.125214141256524E+00
   1.139367592805156E+00   1.153699072858223E+00   1.168210820738646E+00
   1.182905103936552E+00   1.197784218463587E+00   1.212850489211668E+00
   1.228106270316251E+00   1.243553945524173E+00   1.259195928566114E+00
   1.275034663533747E+00   1.291072625261636E+00   1.307312319713928E+00
   1.323756284375924E+00   1.340407088650557E+00   1.357267334259871E+00
   1.374339655651545E+00   1.391626720410529E+00   1.409131229675865E+00
   1.426855918562738E+00   1.444803556589847E+00   1.462976948112149E+00
   1.481378932759042E+00   1.500012385878068E+00   1.518880218984187E+00
   1.537985380214708E+00   1.557330854789943E+00   1.576919665479652E+00
   1.596754873075362E+00   1.616839576868612E+00   1.637176915135234E+00
   1.657770065625708E+00   1.678622246061694E+00   1.699736714638812E+00
   1.721116770535734E+00   1.742765754429691E+00   1.764687049018463E+00
   1.786884079548925E+00   1.809360314352263E+00   1.832119265385890E+00
   1.855164488782209E+00   1.878499585404262E+00   1.902128201408370E+00
   1.926054028813860E+00   1.950280806079939E+00   1.974812318689845E+00
   1.999652399742333E+00   2.024804930550604E+00   2.050273841248773E+00
   2.076063111405952E+00   2.102176770648070E+00   2.128618899287514E+00
   2.155393628960679E+00   2.182505143273554E+00   2.209957678455406E+00
   2.237755524020710E+00   2.265903023439392E+00   2.294404574815500E+00
   2.323264631574427E+00   2.352487703158756E+00   2.382078355732877E+00
   2.412041212896457E+00   2.442380956406887E+00   2.473102326910820E+00
   2.504210124684898E+00   2.535709210385813E+00   2.567604505809792E+00
   2.599900994661633E+00   2.632603723333432E+00   2.665717801693076E+00
   2.699248403882679E+00   2.733200769127052E+00   2.767580202552339E+00
   2.802392076014963E+00   2.837641828940976E+00   2.873334969175988E+00
   2.909477073845779E+00   2.946073790227733E+00   2.983130836633246E+00
   3.020654003301209E+00   3.058649153302758E+00   3.097122223457379E+00
   3.136079225260557E+00   3.175526245823088E+00   3.215469448822187E+00
   3.255915075464588E+00   3.296869445461740E+00   3.338338958017277E+00
   3.380330092826910E+00   3.422849411090882E+00   3.465903556539177E+00
   3.509499256469619E+00   3.553643322799012E+00   3.598342653127538E+00
   3.643604231816502E+00   3.689435131079656E+00   3.735842512088257E+00
   3.782833626089998E+00   3.830415815542054E+00   3.878596515258330E+00
   3.927383253571181E+00   3.976783653507726E+00   4.026805433980956E+00
   4.077456410995850E+00   4.128744498870612E+00   4.180677711473317E+00
   4.233264163474095E+00   4.286512071613055E+00   4.340429755984184E+00
   4.395025641335360E+00   4.450308258384743E+00   4.506286245153722E+00
   4.562968348316611E+00   4.620363424567361E+00   4.678480442003402E+00
   4.737328481526949E+00   4.796916738263903E+00   4.857254523000610E+00
   4.918351263638701E+00   4.980216506668199E+00   5.042859918659194E+00
   5.106291287772256E+00   5.170520525287860E+00   5.235557667155049E+00
   5.301412875559557E+00   5.368096440511679E+00   5.435618781454108E+00
   5.503990448889986E+00   5.573222126031465E+00   5.643324630468944E+00
   5.714308915861367E+00   5.786186073647745E+00   5.858967334780212E+00
   5.932664071478905E+00   6.007287799008867E+00   6.082850177479346E+00
   6.159363013665709E+00   6.236838262854276E+00   6.315288030710363E+00
   6.394724575169803E+00   6.475160308354281E+00   6.556607798510756E+00
   6.639079771975264E+00   6.722589115161462E+00   6.807148876574118E+00
   6.892772268847990E+00   6.979472670812325E+00   7.067263629581315E+00
   7.156158862670893E+00   7.246172260142080E+00   7.337317886771368E+00
   7.429609984248353E+00   7.523062973401028E+00   7.617691456449096E+00
   7.713510219285546E+00   7.810534233787019E+00   7.908778660153176E+00
   8.008258849275510E+00   8.108990345135981E+00   8.210988887235747E+00
   8.314270413054530E+00   8.418851060540868E+00   8.524747170633693E+00
   8.631975289815673E+00   8.740552172698573E+00   8.850494784641251E+00
   8.961820304400499E+00   9.074546126815267E+00   9.188689865524667E+00
   9.304269355720088E+00   9.421302656932024E+00   9.539808055851896E+00
   9.659804069189374E+00   9.781309446565697E+00   9.904343173443277E+00
   1.002892447409225E+01   1.015507281459430E+01   1.028280790588428E+01
   1.041214970683010E+01   1.054311842735129E+01   1.067573453157690E+01
   1.081001874104302E+01   1.094599203793057E+01   1.108367566834385E+01
   1.122309114563023E+01   1.136426025374166E+01   1.150720505063851E+01
   1.165194787173610E+01   1.179851133339474E+01   1.194691833645347E+01
   1.209719206980847E+01   1.224935601403630E+01   1.240343394506283E+01
   1.255944993787826E+01   1.271742837029889E+01   1.287739392677618E+01