<UPF version="2.0.1">
  <PP_INFO>
    Generated using "atomic" code by A. Dal Corso  v.7.2
    Author: ADC
    Generation date:  9Jun2023
    Pseudopotential type: USPP
    Element: Na
    Functional: REVPBE
    Suggested minimum cutoff for wavefunctions:  66. Ry
    Suggested minimum cutoff for charge density: 323. Ry
    The Pseudo was generated with a Scalar-Relativistic Calculation
    Local Potential by smoothing AE potential with Bessel fncs, cutoff radius:   1.0000
    Valence configuration: 
    nl pn  l   occ       Rcut    Rcut US       E pseu
    2S  1  0  2.00      1.000      1.250    -4.178957
    3S  2  0  1.00      1.000      1.250    -0.199330
    2P  2  1  6.00      0.900      1.300    -2.106304
    Generation configuration:
    2S  1  0  2.00      1.000      1.250    -4.178972
    3S  2  0  1.00      1.000      1.250    -0.199332
    2P  2  1  6.00      0.900      1.300    -2.106314
    3P  2  1  0.00      0.900      1.300    -1.800000
    Pseudization used: troullier-martins
    <PP_INPUTFILE>
@input
title='Na',
zed=11.,
rel=1,
config='[Ne] 3s1 3p0',
iswitch=3,
dft='REVPBE'
/
@inputp
lpaw=.false.,
pseudotype=3,
file_pseudopw='Na.revpbe-spnl-rrkjus_psl.1.0.0.UPF',
author='ADC',
lloc=-1,
rcloc=1.0
which_augfun='PSQ',
rmatch_augfun_nc=.true.,
nlcc=.true.,
new_core_ps=.true.,
rcore=0.7,
tm=.true.
/
4
2S  1  0  2.00  0.00  1.00  1.25  0.0
3S  2  0  1.00  0.00  1.00  1.25  0.0
2P  2  1  6.00  0.00  0.90  1.30  0.0
3P  2  1  0.00 -1.80  0.90  1.30  0.0
    </PP_INPUTFILE>
  </PP_INFO>
    <!-- END OF HUMAN READABLE SECTION -->
  <PP_HEADER generated="Generated using 'atomic' code by A. Dal Corso  v.7.2" author="ADC" date=" 9Jun2023" comment="" element="Na" pseudo_type="USPP" relativistic="scalar" is_ultrasoft="true" is_paw="false" is_coulomb="false" has_so="false" has_wfc="false" has_gipaw="false" paw_as_gipaw="false" core_correction="true" functional="REVPBE" z_valence="9.00000000000000" total_psenergy="-96.5102358321545" wfc_cutoff="66.1370681293053" rho_cutoff="323.474281851317" l_max="1" l_max_rho="2" l_local="-1" mesh_size="1121" number_of_wfc="3" number_of_proj="4"/>
  <PP_MESH mesh="1121" dx="1.250000000000000E-002" xmin="-7.00000000000000" rmax="100.000000000000" zmesh="11.0000000000000">
    <PP_R>
   8.289836050495602E-05   8.394109351536566E-05   8.499694249241656E-05
   8.606607241465945E-05   8.714865033581999E-05   8.824484541090081E-05
   8.935482892261261E-05   9.047877430813739E-05   9.161685718622822E-05
   9.276925538465042E-05   9.393614896796701E-05   9.511772026567441E-05
   9.631415390069183E-05   9.752563681820880E-05   9.875235831489617E-05
   9.999451006848348E-05   1.012522861677094E-04   1.025258831426484E-04
   1.038154999954189E-04   1.051213382312780E-04   1.064436018901068E-04
   1.077824975782921E-04   1.091382345010092E-04   1.105110244949104E-04
   1.119010820612255E-04   1.133086243992772E-04   1.147338714404195E-04
   1.161770458824022E-04   1.176383732241680E-04   1.191180818010873E-04
   1.206164028206356E-04   1.221335703985206E-04   1.236698215952631E-04
   1.252253964532379E-04   1.268005380341817E-04   1.283954924571710E-04
   1.300105089370795E-04   1.316458398235178E-04   1.333017406402639E-04
   1.349784701251897E-04   1.366762902706884E-04   1.383954663646120E-04
   1.401362670317228E-04   1.418989642756666E-04   1.436838335214743E-04
   1.454911536585968E-04   1.473212070844824E-04   1.491742797487024E-04
   1.510506611976304E-04   1.529506446196856E-04   1.548745268911431E-04
   1.568226086225220E-04   1.587951942055563E-04   1.607925918607564E-04
   1.628151136855700E-04   1.648630757031468E-04   1.669367979117188E-04
   1.690366043346001E-04   1.711628230708161E-04   1.733157863463706E-04
   1.754958305661554E-04   1.777032963665152E-04   1.799385286684724E-04
   1.822018767316217E-04   1.844936942087031E-04   1.868143392008599E-04
   1.891641743135936E-04   1.915435667134213E-04   1.939528881852462E-04
   1.963925151904504E-04   1.988628289257168E-04   2.013642153825924E-04
   2.038970654078003E-04   2.064617747643097E-04   2.090587441931760E-04
   2.116883794761558E-04   2.143510914991121E-04   2.170472963162158E-04
   2.197774152149549E-04   2.225418747819621E-04   2.253411069696690E-04
   2.281755491637999E-04   2.310456442517144E-04   2.339518406916091E-04
   2.368945925825907E-04   2.398743597356292E-04   2.428916077454046E-04
   2.459468080630570E-04   2.490404380698517E-04   2.521729811517717E-04
   2.553449267750466E-04   2.585567705626334E-04   2.618090143716584E-04
   2.651021663718334E-04   2.684367411248588E-04   2.718132596648236E-04
   2.752322495796196E-04   2.786942450933766E-04   2.821997871499372E-04
   2.857494234973800E-04   2.893437087736061E-04   2.929832045930024E-04
   2.966684796341953E-04   3.004001097289075E-04   3.041786779519338E-04
   3.080047747122465E-04   3.118789978452486E-04   3.158019527061867E-04
   3.197742522647389E-04   3.237965172007936E-04   3.278693760014300E-04
   3.319934650591221E-04   3.361694287711756E-04   3.403979196404164E-04
   3.446795983771461E-04   3.490151340023785E-04   3.534052039523755E-04
   3.578504941844985E-04   3.623516992843901E-04   3.669095225745053E-04
   3.715246762240061E-04   3.761978813600397E-04   3.809298681804163E-04
   3.857213760677037E-04   3.905731537047581E-04   3.954859591917063E-04
   4.004605601644005E-04   4.054977339143638E-04   4.105982675102424E-04
   4.157629579207884E-04   4.209926121393860E-04   4.262880473101465E-04
   4.316500908555889E-04   4.370795806059263E-04   4.425773649299785E-04
   4.481443028677320E-04   4.537812642645652E-04   4.594891299071649E-04
   4.652687916611505E-04   4.711211526104295E-04   4.770471271983077E-04
   4.830476413703705E-04   4.891236327191655E-04   4.952760506307027E-04
   5.015058564327974E-04   5.078140235452818E-04   5.142015376321008E-04
   5.206693967553259E-04   5.272186115311043E-04   5.338502052875684E-04
   5.405652142247358E-04   5.473646875764145E-04   5.542496877741489E-04
   5.612212906132279E-04   5.682805854207783E-04   5.754286752259770E-04
   5.826666769323985E-04   5.899957214925352E-04   5.974169540845109E-04
   6.049315342910158E-04   6.125406362804970E-04   6.202454489906207E-04
   6.280471763140484E-04   6.359470372865470E-04   6.439462662774653E-04
   6.520461131826090E-04   6.602478436195355E-04   6.685527391253124E-04
   6.769620973567585E-04   6.854772322932062E-04   6.940994744418147E-04
   7.028301710454610E-04   7.116706862932521E-04   7.206224015336820E-04
   7.296867154904685E-04   7.388650444811101E-04   7.481588226381845E-04
   7.575695021334372E-04   7.670985534046853E-04   7.767474653855764E-04
   7.865177457382394E-04   7.964109210888571E-04   8.064285372662053E-04
   8.165721595431931E-04   8.268433728814378E-04   8.372437821789219E-04
   8.477750125207569E-04   8.584387094331101E-04   8.692365391403194E-04
   8.801701888252440E-04   8.912413668928934E-04   9.024518032373647E-04
   9.138032495121442E-04   9.252974794038070E-04   9.369362889091582E-04
   9.487214966158640E-04   9.606549439866049E-04   9.727384956468116E-04
   9.849740396760146E-04   9.973634879028616E-04   1.009908776203846E-03
   1.022611864805788E-03   1.035474738592125E-03   1.048499407413058E-03
   1.061687906399586E-03   1.075042296281511E-03   1.088564663709420E-03
   1.102257121580736E-03   1.116121809369859E-03   1.130160893462462E-03
   1.144376567494000E-03   1.158771052692461E-03   1.173346598225443E-03
   1.188105481551590E-03   1.203050008776448E-03   1.218182515012803E-03
   1.233505364745540E-03   1.249020952201104E-03   1.264731701721603E-03
   1.280640068143611E-03   1.296748537181751E-03   1.313059625817080E-03
   1.329575882690384E-03   1.346299888500401E-03   1.363234256407064E-03
   1.380381632439813E-03   1.397744695911039E-03   1.415326159834735E-03
   1.433128771350409E-03   1.451155312152328E-03   1.469408598924170E-03
   1.487891483779130E-03   1.506606854705569E-03   1.525557636018270E-03
   1.544746788815370E-03   1.564177311441035E-03   1.583852239953956E-03
   1.603774648601742E-03   1.623947650301277E-03   1.644374397125118E-03
   1.665058080794016E-03   1.686001933175626E-03   1.707209226789492E-03
   1.728683275318387E-03   1.750427434126085E-03   1.772445100781636E-03
   1.794739715590253E-03   1.817314762130857E-03   1.840173767800399E-03
   1.863320304365024E-03   1.886757988518158E-03   1.910490482445639E-03
   1.934521494397925E-03   1.958854779269525E-03   1.983494139185707E-03
   2.008443424096586E-03   2.033706532378691E-03   2.059287411444088E-03
   2.085190058357176E-03   2.111418520459234E-03   2.137976896000828E-03
   2.164869334782171E-03   2.192100038801534E-03   2.219673262911821E-03
   2.247593315485400E-03   2.275864559087286E-03   2.304491411156813E-03
   2.333478344697857E-03   2.362829888977759E-03   2.392550630235028E-03
   2.422645212395953E-03   2.453118337800226E-03   2.483974767935688E-03
   2.515219324182325E-03   2.546856888565620E-03   2.578892404519373E-03
   2.611330877658130E-03   2.644177376559316E-03   2.677437033555208E-03
   2.711115045534883E-03   2.745216674756227E-03   2.779747249668191E-03
   2.814712165743354E-03   2.850116886320990E-03   2.885966943460723E-03
   2.922267938806915E-03   2.959025544463948E-03   2.996245503882488E-03
   3.033933632756916E-03   3.072095819934051E-03   3.110738028333275E-03
   3.149866295878275E-03   3.189486736440458E-03   3.229605540794270E-03
   3.270228977584515E-03   3.311363394305840E-03   3.353015218294547E-03
   3.395190957732875E-03   3.437897202665917E-03   3.481140626031333E-03
   3.524927984702001E-03   3.569266120541802E-03   3.614161961474665E-03
   3.659622522567077E-03   3.705654907124202E-03   3.752266307799777E-03
   3.799464007719992E-03   3.847255381621483E-03   3.895647897003654E-03
   3.944649115295489E-03   3.994266693037038E-03   4.044508383075775E-03
   4.095382035777984E-03   4.146895600255400E-03   4.199057125607284E-03
   4.251874762178089E-03   4.305356762830993E-03   4.359511484237407E-03
   4.414347388182725E-03   4.469873042888508E-03   4.526097124351268E-03
   4.583028417698125E-03   4.640675818559492E-03   4.699048334459035E-03
   4.758155086221128E-03   4.818005309395985E-03   4.878608355702739E-03
   4.939973694490681E-03   5.002110914218839E-03   5.065029723954221E-03
   5.128739954888852E-03   5.193251561875936E-03   5.258574624985316E-03
   5.324719351078503E-03   5.391696075403522E-03   5.459515263209816E-03
   5.528187511383452E-03   5.597723550102931E-03   5.668134244515766E-03
   5.739430596436218E-03   5.811623746064327E-03   5.884724973726596E-03
   5.958745701638579E-03   6.033697495689600E-03   6.109592067249980E-03
   6.186441275000929E-03   6.264257126787507E-03   6.343051781494879E-03
   6.422837550948145E-03   6.503626901836115E-03   6.585432457659227E-03
   6.668267000702013E-03   6.752143474030355E-03   6.837074983513855E-03
   6.923074799873669E-03   7.010156360756067E-03   7.098333272832106E-03
   7.187619313923699E-03   7.278028435156413E-03   7.369574763139389E-03
   7.462272602172621E-03   7.556136436482051E-03   7.651180932482764E-03
   7.747420941070621E-03   7.844871499942776E-03   7.943547835947312E-03
   8.043465367462484E-03   8.144639706805883E-03   8.247086662673864E-03
   8.350822242611721E-03   8.455862655514866E-03   8.562224314161516E-03
   8.669923837777241E-03   8.778978054631710E-03   8.889404004668190E-03
   9.001218942166031E-03   9.114440338436704E-03   9.229085884553736E-03
   9.345173494116945E-03   9.462721306051518E-03   9.581747687442218E-03
   9.702271236403291E-03   9.824310784984483E-03   9.947885402113539E-03
   1.007301439657581E-02   1.019971732003125E-02   1.032801397006943E-02
   1.045792439330295E-02   1.058946888849972E-02   1.072266800975477E-02
   1.085754256970179E-02   1.099411364276515E-02   1.113240256845290E-02
   1.127243095469102E-02   1.141422068119975E-02   1.155779390291233E-02
   1.170317305343675E-02   1.185038084856106E-02   1.199944028980275E-02
   1.215037466800277E-02   1.230320756696479E-02   1.245796286714023E-02
   1.261466474935957E-02   1.277333769861074E-02   1.293400650786487E-02
   1.309669628195030E-02   1.326143244147522E-02   1.342824072679971E-02
   1.359714720205774E-02   1.376817825922969E-02   1.394136062226623E-02
   1.411672135126391E-02   1.429428784669342E-02   1.447408785368094E-02
   1.465614946634334E-02   1.484050113217804E-02   1.502717165650787E-02
   1.521619020698205E-02   1.540758631813365E-02   1.560138989599443E-02
   1.579763122276774E-02   1.599634096156014E-02   1.619755016117259E-02
   1.640129026095189E-02   1.660759309570315E-02   1.681649090066403E-02
   1.702801631654155E-02   1.724220239461230E-02   1.745908260188674E-02
   1.767869082633851E-02   1.790106138219946E-02   1.812622901532138E-02
   1.835422890860504E-02   1.858509668749764E-02   1.881886842555933E-02
   1.905558065009981E-02   1.929527034788574E-02   1.953797497092006E-02
   1.978373244229390E-02   2.003258116211218E-02   2.028456001349363E-02
   2.053970836864645E-02   2.079806609502023E-02   2.105967356153535E-02
   2.132457164489070E-02   2.159280173595074E-02   2.186440574621293E-02
   2.213942611435643E-02   2.241790581287332E-02   2.269988835478306E-02
   2.298541780043150E-02   2.327453876437547E-02   2.356729642235378E-02
   2.386373651834612E-02   2.416390537172061E-02   2.446784988447126E-02
   2.477561754854661E-02   2.508725645327029E-02   2.540281529285522E-02
   2.572234337401208E-02   2.604589062365365E-02   2.637350759669595E-02
   2.670524548395754E-02   2.704115612015824E-02   2.738129199201838E-02
   2.772570624645994E-02   2.807445269891090E-02   2.842758584171399E-02
   2.878516085264121E-02   2.914723360351552E-02   2.951386066894089E-02
   2.988509933514220E-02   3.026100760891633E-02   3.064164422669586E-02
   3.102706866372671E-02   3.141734114336132E-02   3.181252264646868E-02
   3.221267492096262E-02   3.261786049145016E-02   3.302814266900103E-02
   3.344358556104022E-02   3.386425408136483E-02   3.429021396028700E-02
   3.472153175490446E-02   3.515827485950012E-02   3.560051151607264E-02
   3.604831082499937E-02   3.650174275583334E-02   3.696087815823629E-02
   3.742578877304897E-02   3.789654724350078E-02   3.837322712656051E-02
   3.885590290442971E-02   3.934464999618068E-02   3.983954476954085E-02
   4.034066455282546E-02   4.084808764702016E-02   4.136189333801579E-02
   4.188216190899691E-02   4.240897465298623E-02   4.294241388554681E-02
   4.348256295764402E-02   4.402950626866933E-02   4.458332927962785E-02
   4.514411852649179E-02   4.571196163372192E-02   4.628694732795904E-02
   4.686916545188766E-02   4.745870697827419E-02   4.805566402418159E-02
   4.866012986536276E-02   4.927219895083521E-02   4.989196691763878E-02
   5.051953060577923E-02   5.115498807335963E-02   5.179843861190211E-02
   5.244998276186244E-02   5.310972232833964E-02   5.377776039698320E-02
   5.445420135010051E-02   5.513915088296670E-02   5.583271602033982E-02
   5.653500513318366E-02   5.724612795560093E-02   5.796619560197942E-02
   5.869532058435385E-02   5.943361682998614E-02   6.018119969916675E-02
   6.093818600323996E-02   6.170469402285587E-02   6.248084352645204E-02
   6.326675578896747E-02   6.406255361079215E-02   6.486836133695480E-02
   6.568430487655204E-02   6.651051172242201E-02   6.734711097106529E-02
   6.819423334281655E-02   6.905201120226989E-02   6.992057857896099E-02
   7.080007118830957E-02   7.169062645282517E-02   7.259238352357976E-02
   7.350548330195025E-02   7.443006846163475E-02   7.536628347094552E-02
   7.631427461538252E-02   7.727419002049077E-02   7.824617967500529E-02
   7.923039545428710E-02   8.022699114405417E-02   8.123612246441055E-02
   8.225794709417818E-02   8.329262469553436E-02   8.434031693895938E-02
   8.540118752849783E-02   8.647540222733767E-02   8.756312888371111E-02
   8.866453745712119E-02   8.977980004489834E-02   9.090909090909095E-02
   9.205258650369408E-02   9.321046550222084E-02   9.438290882562050E-02
   9.557009967054769E-02   9.677222353798726E-02   9.798946826223927E-02
   9.922202404026838E-02   1.004700834614226E-01   1.017338415375255E-01
   1.030134957333479E-01   1.043092459974612E-01   1.056212947934803E-01
   1.069498471316992E-01   1.082951106011235E-01   1.096572954019074E-01
   1.110366143781973E-01   1.124332830513896E-01   1.138475196538059E-01
   1.152795451627927E-01   1.167295833352493E-01   1.181978607425901E-01
   1.196846068061475E-01   1.211900538330185E-01   1.227144370523640E-01
   1.242579946521634E-01   1.258209678164320E-01   1.274036007629067E-01
   1.290061407812053E-01   1.306288382714659E-01   1.322719467834729E-01
   1.339357230562742E-01   1.356204270582974E-01   1.373263220279703E-01
   1.390536745148527E-01   1.408027544212849E-01   1.425738350445609E-01
   1.443671931196313E-01   1.461831088623440E-01   1.480218660132282E-01
   1.498837518818299E-01   1.517690573916040E-01   1.536780771253720E-01
   1.556111093713514E-01   1.575684561697633E-01   1.595504233600272E-01
   1.615573206285490E-01   1.635894615571100E-01   1.656471636718645E-01
   1.677307484929546E-01   1.698405415847476E-01   1.719768726067064E-01
   1.741400753648997E-01   1.763304878641595E-01   1.785484523608953E-01
   1.807943154165721E-01   1.830684279518616E-01   1.853711453014742E-01
   1.877028272696807E-01   1.900638381865324E-01   1.924545469647887E-01
   1.948753271575600E-01   1.973265570166767E-01   1.998086195517912E-01
   2.023219025902244E-01   2.048667988375645E-01   2.074437059390277E-01
   2.100530265415914E-01   2.126951683569084E-01   2.153705442250128E-01
   2.180795721788272E-01   2.208226755094808E-01   2.236002828324501E-01
   2.264128281545301E-01   2.292607509416499E-01   2.321444961875389E-01
   2.350645144832589E-01   2.380212620876093E-01   2.410152009984189E-01
   2.440467990247338E-01   2.471165298599133E-01   2.502248731556460E-01
   2.533723145968956E-01   2.565593459777911E-01   2.597864652784695E-01
   2.630541767428874E-01   2.663629909576093E-01   2.697134249315881E-01
   2.731060021769486E-01   2.765412527907877E-01   2.800197135380030E-01
   2.835419279351630E-01   2.871084463354335E-01   2.907198260145706E-01
   2.943766312579966E-01   2.980794334489705E-01   3.018288111578681E-01
   3.056253502325846E-01   3.094696438900746E-01   3.133622928090433E-01
   3.173039052238039E-01   3.212950970193156E-01   3.253364918274164E-01
   3.294287211242676E-01   3.335724243290224E-01   3.377682489037369E-01
   3.420168504545374E-01   3.463188928340602E-01   3.506750482451796E-01
   3.550859973460412E-01   3.595524293564163E-01   3.640750421653933E-01
   3.686545424404251E-01   3.732916457377468E-01   3.779870766141827E-01
   3.827415687403602E-01   3.875558650153472E-01   3.924307176827315E-01
   3.973668884481600E-01   4.023651485983578E-01   4.074262791216425E-01
   4.125510708299550E-01   4.177403244824264E-01   4.229948509104975E-01
   4.283154711446130E-01   4.337030165425096E-01   4.391583289191164E-01
   4.446822606780916E-01   4.502756749450107E-01   4.559394457022329E-01
   4.616744579254621E-01   4.674816077220262E-01   4.733618024708956E-01
   4.793159609644631E-01   4.853450135521072E-01   4.914499022855608E-01
   4.976315810661092E-01   5.038910157936387E-01   5.102291845175601E-01
   5.166470775896315E-01   5.231456978187030E-01   5.297260606274069E-01
   5.363891942108200E-01   5.431361396971206E-01   5.499679513102681E-01
   5.568856965347263E-01   5.638904562822608E-01   5.709833250608334E-01
   5.781654111456214E-01   5.854378367521874E-01   5.928017382118287E-01
   6.002582661491300E-01   6.078085856617521E-01   6.154538765024800E-01
   6.231953332635620E-01   6.310341655633671E-01   6.389715982353906E-01
   6.470088715196363E-01   6.551472412564064E-01   6.633879790825304E-01
   6.717323726300594E-01   6.801817257274622E-01   6.887373586033498E-01
   6.974006080927667E-01   7.061728278460707E-01   7.150553885404450E-01
   7.240496780940706E-01   7.331571018829887E-01   7.423790829606959E-01
   7.517170622804976E-01   7.611724989206607E-01   7.707468703123980E-01
   7.804416724707178E-01   7.902584202281826E-01   8.001986474716012E-01
   8.102639073817037E-01   8.204557726758298E-01   8.307758358536662E-01
   8.412257094460817E-01   8.518070262670850E-01   8.625214396689572E-01
   8.733706238005916E-01   8.843562738690807E-01   8.954801064045991E-01
   9.067438595286116E-01   9.181492932254597E-01   9.296981896173641E-01
   9.413923532428814E-01   9.532336113388709E-01   9.652238141260010E-01
   9.773648350978509E-01   9.896585713136495E-01   1.002106943694691E+00
   1.014711897324488E+00   1.027475401752690E+00   1.040399451302830E+00
   1.053486065383945E+00   1.066737288806110E+00   1.080155192099946E+00
   1.093741871840140E+00   1.107499450973044E+00   1.121430079148387E+00
   1.135535933055165E+00   1.149819216761748E+00   1.164282162060277E+00
   1.178927028815376E+00   1.193756105317275E+00   1.208771708639344E+00
   1.223976185000154E+00   1.239371910130070E+00   1.254961289642464E+00
   1.270746759409604E+00   1.286730785943255E+00   1.302915866780085E+00
   1.319304530871902E+00   1.335899338980814E+00   1.352702884079349E+00
   1.369717791755617E+00   1.386946720623561E+00   1.404392362738366E+00
   1.422057444017107E+00   1.439944724664675E+00   1.458056999605061E+00
   1.476397098918077E+00   1.494967888281551E+00   1.513772269419105E+00
   1.532813180553549E+00   1.552093596865987E+00   1.571616530960696E+00
   1.591385033335845E+00   1.611402192860150E+00   1.631671137255513E+00
   1.652195033585733E+00   1.672977088751369E+00   1.694020549990820E+00
   1.715328705387717E+00   1.736904884384696E+00   1.758752458303620E+00
   1.780874840872364E+00   1.803275488758212E+00   1.825957902107970E+00
   1.848925625094875E+00   1.872182246472367E+00   1.895731400134856E+00
   1.919576765685512E+00   1.943722069011214E+00   1.968171082864733E+00
   1.992927627454225E+00   2.017995571040150E+00   2.043378830539693E+00
   2.069081372138794E+00   2.095107211911872E+00   2.121460416449338E+00
   2.148145103493021E+00   2.175165442579559E+00   2.202525655691908E+00
   2.230230017919033E+00   2.258282858123895E+00   2.286688559619853E+00
   2.315451560855554E+00   2.344576356108461E+00   2.374067496187089E+00
   2.403929589142073E+00   2.434167300986194E+00   2.464785356423446E+00
   2.495788539587283E+00   2.527181694788153E+00   2.558969727270423E+00
   2.591157603978845E+00   2.623750354334640E+00   2.656753071021359E+00
   2.690170910780634E+00   2.724009095217911E+00   2.758272911618358E+00
   2.792967713772994E+00   2.828098922815243E+00   2.863672028067996E+00
   2.899692587901320E+00   2.936166230600972E+00   2.973098655247834E+00
   3.010495632608393E+00   3.048363006036450E+00   3.086706692386143E+00
   3.125532682936473E+00   3.164847044327459E+00   3.204655919508051E+00
   3.244965528695991E+00   3.285782170349723E+00   3.327112222152546E+00
   3.368962142009145E+00   3.411338469054638E+00   3.454247824676344E+00
   3.497696913548377E+00   3.541692524679271E+00   3.586241532472778E+00
   3.631350897801996E+00   3.677027669097038E+00   3.723278983446348E+00
   3.770112067711888E+00   3.817534239658364E+00   3.865552909096619E+00
   3.914175579041449E+00   3.963409846883957E+00   4.013263405578659E+00
   4.063744044845532E+00   4.114859652387162E+00   4.166618215121226E+00
   4.219027820428455E+00   4.272096657416300E+00   4.325833018198519E+00
   4.380245299190803E+00   4.435342002422767E+00   4.491131736866383E+00
   4.547623219781161E+00   4.604825278076242E+00   4.662746849689611E+00
   4.721396984984679E+00   4.780784848164407E+00   4.840919718703240E+00
   4.901810992797052E+00   4.963468184831298E+00   5.025900928867676E+00
   5.089118980149468E+00   5.153132216625802E+00   5.217950640495112E+00
   5.283584379768003E+00   5.350043689849764E+00   5.417338955142817E+00
   5.485480690669273E+00   5.554479543713943E+00   5.624346295487995E+00
   5.695091862813533E+00   5.766727299829395E+00   5.839263799718354E+00
   5.912712696456092E+00   5.987085466582159E+00   6.062393730993201E+00
   6.138649256758741E+00   6.215863958959832E+00   6.294049902550785E+00
   6.373219304244357E+00   6.453384534420630E+00   6.534558119059915E+00
   6.616752741699970E+00   6.699981245417804E+00   6.784256634836453E+00
   6.869592078156971E+00   6.956000909215990E+00   7.043496629569173E+00
   7.132092910600832E+00   7.221803595660128E+00   7.312642702224119E+00
   7.404624424088013E+00   7.497763133583003E+00   7.592073383821934E+00
   7.687569910973280E+00   7.784267636563697E+00   7.882181669809537E+00
   7.981327309977714E+00   8.081720048776212E+00   8.183375572774718E+00
   8.286309765855677E+00   8.390538711696172E+00   8.496078696281060E+00
   8.602946210447650E+00   8.711157952462450E+00   8.820730830630312E+00
   8.931681965936370E+00   9.044028694721261E+00   9.157788571389920E+00
   9.272979371154525E+00   9.389619092811897E+00   9.507725961555838E+00
   9.627318431824902E+00   9.748415190185868E+00   9.871035158253608E+00
   9.995197495647600E+00   1.012092160298567E+01   1.024822712491538E+01
   1.037713395318355E+01   1.050766222974434E+01   1.063983234990654E+01
   1.077366496552030E+01   1.090918098820413E+01   1.104640159261227E+01
   1.118534821974333E+01   1.132604258029050E+01   1.146850665803383E+01
   1.161276271327536E+01   1.175883328631718E+01   1.190674120098352E+01
   1.205650956818697E+01   1.220816178953959E+01   1.236172156100954E+01
   1.251721287662352E+01   1.267466003221594E+01   1.283408762922518E+01
   1.299552057853764E+01   1.315898410438009E+01   1.332450374826102E+01
   1.349210537296152E+01   1.366181516657645E+01   1.383365964660633E+01
   1.400766566410080E+01   1.418386040785410E+01   1.436227140865342E+01
   1.454292654358061E+01   1.472585404036803E+01   1.491108248180926E+01
   1.509864081022510E+01   1.528855833198596E+01   1.548086472209101E+01
   1.567559002880494E+01   1.587276467835312E+01   1.607241947967568E+01
   1.627458562924153E+01   1.647929471592285E+01   1.668657872593091E+01
   1.689647004781401E+01   1.710900147751823E+01   1.732420622351183E+01
   1.754211791197423E+01   1.776277059205009E+01   1.798619874116960E+01
   1.821243727043562E+01   1.844152153007864E+01   1.867348731498031E+01
   1.890837087026642E+01   1.914620889697041E+01   1.938703855776782E+01
   1.963089748278312E+01   1.987782377546947E+01   2.012785601856247E+01
   2.038103328010883E+01   2.063739511957074E+01   2.089698159400719E+01
   2.115983326433293E+01   2.142599120165624E+01   2.169549699369633E+01
   2.196839275128152E+01   2.224472111492915E+01   2.252452526150821E+01
   2.280784891098587E+01   2.309473633325882E+01   2.338523235507045E+01
   2.367938236701518E+01   2.397723233063084E+01   2.427882878558020E+01
   2.458421885692298E+01   2.489345026247914E+01   2.520657132028493E+01
   2.552363095614269E+01   2.584467871126554E+01   2.616976475001846E+01
   2.649893986775638E+01   2.683225549876114E+01   2.716976372427823E+01
   2.751151728065453E+01   2.785756956757857E+01   2.820797465642422E+01
   2.856278729869950E+01   2.892206293460164E+01   2.928585770167969E+01
   2.965422844360619E+01   3.002723271905899E+01   3.040492881071503E+01
   3.078737573435705E+01   3.117463324809495E+01   3.156676186170316E+01
   3.196382284607535E+01   3.236587824279813E+01   3.277299087384525E+01
   3.318522435139354E+01   3.360264308776263E+01   3.402531230547929E+01
   3.445329804746871E+01   3.488666718737384E+01   3.532548744000444E+01
   3.576982737191783E+01   3.621975641213236E+01   3.667534486297595E+01
   3.713666391107096E+01   3.760378563845716E+01   3.807678303385490E+01
   3.855573000406951E+01   3.904070138553949E+01   3.953177295602988E+01
   4.002902144647263E+01   4.053252455295610E+01   4.104236094886505E+01
   4.155861029717358E+01   4.208135326289269E+01   4.261067152567427E+01
   4.314664779257386E+01   4.368936581097358E+01   4.423891038166796E+01
   4.479536737211425E+01   4.535882372984928E+01   4.592936749607536E+01
   4.650708781941675E+01   4.709207496984931E+01   4.768442035280550E+01
   4.828421652345646E+01   4.889155720117427E+01   4.950653728417540E+01
   5.012925286434902E+01   5.075980124227146E+01   5.139828094240956E+01
   5.204479172851558E+01   5.269943461921513E+01   5.336231190379176E+01
   5.403352715816984E+01   5.471318526109838E+01   5.540139241053888E+01
   5.609825614025851E+01   5.680388533663286E+01   5.751839025565946E+01
   5.824188254018554E+01   5.897447523735259E+01   5.971628281625998E+01
   6.046742118585112E+01   6.122800771302450E+01   6.199816124097232E+01
   6.277800210775035E+01   6.356765216508052E+01   6.436723479739091E+01
   6.517687494109454E+01   6.599669910411103E+01   6.682683538563394E+01
   6.766741349614610E+01   6.851856477768746E+01   6.938042222437743E+01
   7.025312050319545E+01   7.113679597502325E+01   7.203158671595109E+01
   7.293763253885271E+01   7.385507501523126E+01   7.478405749734021E+01
   7.572472514058255E+01   7.667722492619123E+01   7.764170568419567E+01
   7.861831811667652E+01   7.960721482131326E+01   8.060855031522804E+01
   8.162248105912894E+01   8.264916548175755E+01   8.368876400464373E+01
   8.474143906717167E+01   8.580735515196172E+01   8.688667881057069E+01
   8.797957868951613E+01   8.908622555662765E+01   9.020679232772966E+01
   9.134145409366009E+01   9.249038814762829E+01   9.365377401291771E+01
   9.483179347093673E+01   9.602463058962229E+01   9.723247175220121E+01
   9.845550568631238E+01   9.969392349349633E+01
    </PP_R>
    <PP_RAB>
   1.036229506311950E-06   1.049263668942071E-06   1.062461781155207E-06
   1.075825905183243E-06   1.089358129197750E-06   1.103060567636260E-06
   1.116935361532658E-06   1.130984678851717E-06   1.145210714827853E-06
   1.159615692308130E-06   1.174201862099588E-06   1.188971503320930E-06
   1.203926923758648E-06   1.219070460227610E-06   1.234404478936202E-06
   1.249931375856044E-06   1.265653577096367E-06   1.281573539283105E-06