<UPF version="2.0.1">
  <PP_INFO>
    Generated using "atomic" code by A. Dal Corso  v.7.2
    Author: ADC
    Generation date:  9Jun2023
    Pseudopotential type: USPP
    Element:  S
    Functional: PBE
    Suggested minimum cutoff for wavefunctions:  39. Ry
    Suggested minimum cutoff for charge density: 157. Ry
    The Pseudo was generated with a Fully-Relativistic Calculation
    L component and cutoff radius for Local Potential:  2   1.6000
    Pseudopotential contains additional information for spin-orbit calculations.
    Valence configuration: 
    nl pn  l   occ       Rcut    Rcut US       E pseu
    3S  1  0  2.00      1.500      1.700    -1.267372
    3P  2  1  2.00      1.500      1.700    -0.518488
    3P  2  1  2.00      1.500      1.700    -0.512346
    Generation configuration:
    3S  1  0  2.00      1.500      1.700    -1.267368
    3S  1  0  0.00      1.500      1.700     6.000000
    3P  2  1  2.00      1.500      1.700    -0.518489
    3P  2  1  2.00      1.500      1.700    -0.512340
    3P  2  1  0.00      1.500      1.700     3.000000
    3P  2  1  0.00      1.500      1.700     3.000000
    3D  3  2  0.00      1.600      1.600     1.500000
    3D  3  2  0.00      1.600      1.600     1.500000
    Pseudization used: troullier-martins
    <PP_INPUTFILE>
@input
title='S',
zed=16.,
rel=2,
config='[Ne] 3s2 3p4 3d-1',
iswitch=3,
dft='PBE'
/
@inputp
lpaw=.false.,
pseudotype=3,
file_pseudopw='S.rel-pbe-nl-rrkjus_psl.1.0.0.UPF',
author='ADC',
lloc=2,
which_augfun='PSQ',
rmatch_augfun_nc=.true.,
nlcc=.true.,
new_core_ps=.true.,
rcore=1.5,
tm=.true.
/
5
3S  1  0  2.00  0.00  1.50  1.70  0.0
3S  1  0  0.00  6.00  1.50  1.70  0.0
3P  2  1  4.00  0.00  1.50  1.70  0.0
3P  2  1  0.00  3.00  1.50  1.70  0.0
3D  3  2  0.00  1.50  1.60  1.60  0.0
    </PP_INPUTFILE>
  </PP_INFO>
    <!-- END OF HUMAN READABLE SECTION -->
  <PP_HEADER generated="Generated using 'atomic' code by A. Dal Corso  v.7.2" author="ADC" date=" 9Jun2023" comment="" element=" S" pseudo_type="USPP" relativistic="full" is_ultrasoft="true" is_paw="false" is_coulomb="false" has_so="true" has_wfc="false" has_gipaw="false" paw_as_gipaw="false" core_correction="true" functional="PBE" z_valence="6.00000000000000" total_psenergy="-20.6377252982227" wfc_cutoff="39.2512912384833" rho_cutoff="157.005164953933" l_max="2" l_max_rho="4" l_local="2" mesh_size="1151" number_of_wfc="3" number_of_proj="6"/>
  <PP_MESH mesh="1151" dx="1.250000000000000E-002" xmin="-7.00000000000000" rmax="100.000000000000" zmesh="16.0000000000000">
    <PP_R>
   5.699262284715727E-05   5.770950179181389E-05   5.843539796353638E-05
   5.917042478507837E-05   5.991469710587624E-05   6.066833121999431E-05
   6.143144488429617E-05   6.220415733684446E-05   6.298658931553190E-05
   6.377886307694716E-05   6.458110241547731E-05   6.539343268265116E-05
   6.621598080672563E-05   6.704887531251855E-05   6.789224634149112E-05
   6.874622567208239E-05   6.961094674030020E-05   7.048654466057077E-05
   7.137315624685047E-05   7.227092003400361E-05   7.317997629944840E-05
   7.410046708507580E-05   7.503253621944380E-05   7.597632934025092E-05
   7.693199391709256E-05   7.789967927450309E-05   7.887953661528841E-05
   7.987171904415153E-05   8.087638159161550E-05   8.189368123824750E-05
   8.292377693918697E-05   8.396682964898293E-05   8.502300234674337E-05
   8.609246006160107E-05   8.717536989849992E-05   8.827190106430510E-05
   8.938222489424215E-05   9.050651487866847E-05   9.164494669018144E-05
   9.279769821106793E-05   9.396494956109827E-05   9.514688312567072E-05
   9.634368358430939E-05   9.755553793952077E-05   9.878263554601357E-05
   1.000251681402853E-04   1.012833298705817E-04   1.025573173272329E-04
   1.038473295733709E-04   1.051535681760338E-04   1.064762372376609E-04
   1.078155434279839E-04   1.091716960163200E-04   1.105449069042700E-04
   1.119353906588294E-04   1.133433645459135E-04   1.147690485643067E-04
   1.162126654800376E-04   1.176744408611861E-04   1.191546031131298E-04
   1.206533835142318E-04   1.221710162519792E-04   1.237077384595748E-04
   1.252637902529899E-04   1.268394147684834E-04   1.284348582005912E-04
   1.300503698405956E-04   1.316862021154771E-04   1.333426106273568E-04
   1.350198541934347E-04   1.367181948864303E-04   1.384378980755323E-04
   1.401792324678627E-04   1.419424701504629E-04   1.437278866328085E-04
   1.455357608898571E-04   1.473663754056396E-04   1.492200162173983E-04
   1.510969729602815E-04   1.529975389125989E-04   1.549220110416474E-04
   1.568706900501124E-04   1.588438804230536E-04   1.608418904754812E-04
   1.628650324005311E-04   1.649136223182451E-04   1.669879803249657E-04
   1.690884305433517E-04   1.712153011730230E-04   1.733689245418430E-04
   1.755496371578445E-04   1.777577797618105E-04   1.799936973805152E-04
   1.822577393806355E-04   1.845502595233404E-04   1.868716160195663E-04
   1.892221715859885E-04   1.916022935016964E-04   1.940123536655818E-04
   1.964527286544488E-04   1.989237997818542E-04   2.014259531576891E-04
   2.039595797485093E-04   2.065250754386239E-04   2.091228410919545E-04
   2.117532826146695E-04   2.144168110186084E-04   2.171138424855034E-04
   2.198447984320080E-04   2.226101055755456E-04   2.254101960009832E-04
   2.282455072281465E-04   2.311164822801833E-04   2.340235697527863E-04
   2.369672238842880E-04   2.399479046266352E-04   2.429660777172581E-04
   2.460222147518427E-04   2.491167932580182E-04   2.522502967699724E-04
   2.554232149040042E-04   2.586360434350273E-04   2.618892843740362E-04
   2.651834460465463E-04   2.685190431720212E-04   2.718965969442981E-04
   2.753166351130254E-04   2.787796920661251E-04   2.822863089132917E-04
   2.858370335705421E-04   2.894324208458279E-04   2.930730325257257E-04
   2.967594374632174E-04   3.004922116665744E-04   3.042719383893602E-04
   3.080992082215657E-04   3.119746191818886E-04   3.158987768111759E-04
   3.198722942670410E-04   3.238957924196703E-04   3.279698999488365E-04
   3.320952534421297E-04   3.362724974944263E-04   3.405022848086081E-04
   3.447852762975482E-04   3.491221411873812E-04   3.535135571220693E-04
   3.579602102692866E-04   3.624627954276342E-04   3.670220161352033E-04
   3.716385847795059E-04   3.763132227087849E-04   3.810466603447274E-04
   3.858396372965942E-04   3.906929024767851E-04   3.956072142178592E-04
   4.005833403910239E-04   4.056220585261179E-04   4.107241559331012E-04
   4.158904298250734E-04   4.211216874428417E-04   4.264187461810517E-04
   4.317824337159083E-04   4.372135881345011E-04   4.427130580657574E-04
   4.482817028130437E-04   4.539203924884307E-04   4.596300081486523E-04
   4.654114419327715E-04   4.712655972015793E-04   4.771933886787476E-04
   4.831957425937544E-04   4.892735968266108E-04   4.954279010544064E-04
   5.016596168996971E-04   5.079697180807632E-04   5.143591905637519E-04
   5.208290327167381E-04   5.273802554657211E-04   5.340138824525837E-04
   5.407309501950396E-04   5.475325082485893E-04   5.544196193705161E-04
   5.613933596859453E-04   5.684548188559885E-04   5.756051002480088E-04
   5.828453211080204E-04   5.901766127352632E-04   5.976001206589696E-04
   6.051170048173552E-04   6.127284397388642E-04   6.204356147256882E-04
   6.282397340395991E-04   6.361420170901173E-04   6.441436986250463E-04
   6.522460289234065E-04   6.604502739907909E-04   6.687577157571830E-04
   6.771696522772601E-04   6.856873979332173E-04   6.943122836401441E-04
   7.030456570539791E-04   7.118888827820861E-04   7.208433425964770E-04
   7.299104356497152E-04   7.390915786935386E-04   7.483882063002264E-04
   7.578017710867562E-04   7.673337439417780E-04   7.769856142554426E-04
   7.867588901521249E-04   7.966550987260668E-04   8.066757862799920E-04
   8.168225185667182E-04   8.270968810338080E-04   8.375004790713018E-04
   8.480349382625584E-04   8.587019046382590E-04   8.695030449336020E-04
   8.804400468487327E-04   8.915146193124535E-04   9.027284927492424E-04
   9.140834193496389E-04   9.255811733440258E-04   9.372235512798564E-04
   9.490123723023716E-04   9.609494784388395E-04   9.730367348863806E-04
   9.852760303034063E-04   9.976692771047255E-04   1.010218411760367E-03
   1.022925395098152E-03   1.035792212610078E-03   1.048820874762561E-03
   1.062013417310567E-03   1.075371901615711E-03   1.088898414968345E-03
   1.102595070913698E-03   1.116464009582128E-03   1.130507398023519E-03
   1.144727430545886E-03   1.159126329058243E-03   1.173706343417776E-03
   1.188469751781391E-03   1.203418860961683E-03   1.218556006787375E-03
   1.233883554468299E-03   1.249403898964964E-03   1.265119465362774E-03
   1.281032709250954E-03   1.297146117106234E-03   1.313462206681377E-03
   1.329983527398573E-03   1.346712660747798E-03   1.363652220690173E-03
   1.380804854066403E-03   1.398173241010350E-03   1.415760095367811E-03
   1.433568165120558E-03   1.451600232815723E-03   1.469859116000569E-03
   1.488347667662742E-03   1.507068776676055E-03   1.526025368251877E-03
   1.545220404396212E-03   1.564656884372509E-03   1.584337845170309E-03
   1.604266361979777E-03   1.624445548672209E-03   1.644878558286582E-03
   1.665568583522218E-03   1.686518857237655E-03   1.707732652955786E-03
   1.729213285375349E-03   1.750964110888864E-03   1.772988528107069E-03
   1.795289978389965E-03   1.817871946384530E-03   1.840737960569206E-03
   1.863891593805232E-03   1.887336463894906E-03   1.911076234146881E-03
   1.935114613948556E-03   1.959455359345681E-03   1.984102273629247E-03
   2.009059207929754E-03   2.034330061818964E-03   2.059918783919210E-03
   2.085829372520380E-03   2.112065876204660E-03   2.138632394479127E-03
   2.165533078416314E-03   2.192772131302815E-03   2.220353809296060E-03
   2.248282422089354E-03   2.276562333585265E-03   2.305197962577501E-03
   2.334193783441351E-03   2.363554326832818E-03   2.393284180396541E-03
   2.423387989482626E-03   2.453870457872489E-03   2.484736348513832E-03
   2.515990484264866E-03   2.547637748647889E-03   2.579683086612347E-03
   2.612131505307495E-03   2.644988074864770E-03   2.678257929190012E-03
   2.711946266765648E-03   2.746058351462964E-03   2.780599513364595E-03
   2.815575149597364E-03   2.850990725175588E-03   2.886851773855008E-03
   2.923163898997436E-03   2.959932774446308E-03   2.997164145413217E-03
   3.034863829375623E-03   3.073037716985849E-03   3.111691772991497E-03
   3.150832037167461E-03   3.190464625259651E-03   3.230595729940587E-03
   3.271231621777026E-03   3.312378650209739E-03   3.354043244545633E-03
   3.396231914962343E-03   3.438951253525452E-03   3.482207935218527E-03
   3.526008718986086E-03   3.570360448789706E-03   3.615270054677405E-03
   3.660744553866471E-03   3.706791051839922E-03   3.753416743456748E-03
   3.800628914076123E-03   3.848434940695765E-03   3.896842293104589E-03
   3.945858535049900E-03   3.995491325419225E-03   4.045748419437035E-03
   4.096637669876523E-03   4.148167028286600E-03   4.200344546234362E-03
   4.253178376563139E-03   4.306676774666411E-03   4.360848099777729E-03
   4.415700816276850E-03   4.471243495012329E-03   4.527484814640719E-03
   4.584433562982633E-03   4.642098638395869E-03   4.700489051165775E-03
   4.759613924913147E-03   4.819482498019796E-03   4.880104125072073E-03
   4.941488278322543E-03   5.003644549170034E-03   5.066582649658330E-03
   5.130312413993677E-03   5.194843800081410E-03   5.260186891081900E-03
   5.326351896986052E-03   5.393349156210659E-03   5.461189137213777E-03
   5.529882440130457E-03   5.599439798429045E-03   5.669872080588282E-03
   5.741190291795558E-03   5.813405575666471E-03   5.886529215986043E-03
   5.960572638471853E-03   6.035547412559301E-03   6.111465253209380E-03
   6.188338022739146E-03   6.266177732675234E-03   6.344996545630693E-03
   6.424806777205400E-03   6.505620897910418E-03   6.587451535116524E-03
   6.670311475027263E-03   6.754213664676832E-03   6.839171213953058E-03
   6.925197397645869E-03   7.012305657521487E-03   7.100509604422735E-03
   7.189823020395777E-03   7.280259860843560E-03   7.371834256706408E-03
   7.464560516669980E-03   7.558453129401043E-03   7.653526765811372E-03
   7.749796281350077E-03   7.847276718324829E-03   7.945983308252228E-03
   8.045931474237765E-03   8.147136833385731E-03   8.249615199239389E-03
   8.353382584251903E-03   8.458455202288296E-03   8.564849471158905E-03
   8.672582015184706E-03   8.781669667794884E-03   8.892129474157101E-03
   9.003978693840831E-03   9.117234803514214E-03   9.231915499674804E-03
   9.348038701414693E-03   9.465622553220412E-03   9.584685427808031E-03
   9.705245928993939E-03   9.827322894601729E-03   9.950935399405643E-03
   1.007610275811105E-02   1.020284452837240E-02   1.033118051384916E-02
   1.046113076730016E-02   1.059271559371688E-02   1.072595555349617E-02
   1.086087146565282E-02   1.099748441107260E-02   1.113581573580616E-02
   1.127588705440443E-02   1.141772025329592E-02   1.156133749420652E-02
   1.170676121762232E-02   1.185401414629596E-02   1.200311928879714E-02
   1.215409994310772E-02   1.230697970026213E-02   1.246178244803345E-02
   1.261853237466597E-02   1.277725397265463E-02   1.293797204257204E-02
   1.310071169694362E-02   1.326549836417145E-02   1.343235779250754E-02
   1.360131605407706E-02   1.377239954895212E-02   1.394563500927687E-02
   1.412104950344443E-02   1.429867044032641E-02   1.447852557355555E-02
   1.466064300586236E-02   1.484505119346614E-02   1.503177895052139E-02
   1.522085545362005E-02   1.541231024635041E-02   1.560617324391335E-02
   1.580247473779666E-02   1.600124540050813E-02   1.620251629036823E-02
   1.640631885636296E-02   1.661268494305792E-02   1.682164679557399E-02
   1.703323706462579E-02   1.724748881162333E-02   1.746443551383796E-02
   1.768411106963331E-02   1.790654980376188E-02   1.813178647272846E-02
   1.835985627022081E-02   1.859079483260879E-02   1.882463824451264E-02
   1.906142304444121E-02   1.930118623050125E-02   1.954396526617837E-02
   1.978979808619083E-02   2.003872310241692E-02   2.029077920989686E-02
   2.054600579291026E-02   2.080444273112998E-02   2.106613040585340E-02
   2.133110970631211E-02   2.159942203606091E-02   2.187110931944722E-02
   2.214621400816180E-02   2.242477908787198E-02   2.270684808493821E-02
   2.299246507321515E-02   2.328167468093832E-02   2.357452209769732E-02
   2.387105308149682E-02   2.417131396590633E-02   2.447535166729994E-02
   2.478321369218706E-02   2.509494814463542E-02   2.541060373378745E-02
   2.573022978147116E-02   2.605387622990678E-02   2.638159364951035E-02
   2.671343324679543E-02   2.704944687237421E-02   2.738968702905934E-02
   2.773420688006750E-02   2.808306025732636E-02   2.843630166988586E-02
   2.879398631243537E-02   2.915617007392803E-02   2.952290954631343E-02
   2.989426203338027E-02   3.027028555971016E-02   3.065103887974414E-02
   3.103658148696311E-02   3.142697362318382E-02   3.182227628797184E-02
   3.222255124817277E-02   3.262786104756351E-02   3.303826901662484E-02
   3.345383928243690E-02   3.387463677869921E-02   3.430072725587666E-02
   3.473217729147322E-02   3.516905430043474E-02   3.561142654568270E-02
   3.605936314878043E-02   3.651293410073350E-02   3.697221027292595E-02
   3.743726342819410E-02   3.790816623203960E-02   3.838499226398363E-02
   3.886781602906377E-02   3.935671296947564E-02   3.985175947636085E-02
   4.035303290174327E-02   4.086061157061547E-02   4.137457479317714E-02
   4.189500287722747E-02   4.242197714071341E-02   4.295557992443578E-02
   4.349589460491514E-02   4.404300560741960E-02   4.459699841915642E-02
   4.515795960262953E-02   4.572597680916513E-02   4.630113879260739E-02
   4.688353542318638E-02   4.747325770156055E-02   4.807039777303568E-02
   4.867504894196283E-02   4.928730568631731E-02   4.990726367246109E-02
   5.053501977009080E-02   5.117067206737388E-02   5.181431988627504E-02
   5.246606379807548E-02   5.312600563908740E-02   5.379424852656613E-02
   5.447089687482239E-02   5.515605641153724E-02   5.584983419428225E-02
   5.655233862724750E-02   5.726367947817988E-02   5.798396789553457E-02
   5.871331642584226E-02   5.945183903129465E-02   6.019965110755138E-02
   6.095686950177082E-02   6.172361253086761E-02   6.250000000000003E-02
   6.328615322128968E-02   6.408219503277683E-02   6.488824981761410E-02
   6.570444352350154E-02   6.653090368236624E-02   6.736775943028950E-02
   6.821514152768451E-02   6.907318237972801E-02   6.994201605704881E-02
   7.082177831667667E-02   7.171260662325454E-02   7.261464017051772E-02
   7.352801990304318E-02   7.445288853827241E-02   7.538939058881132E-02
   7.633767238501064E-02   7.729788209783033E-02   7.827016976199155E-02
   7.925468729941999E-02   8.025158854298388E-02   8.126102926053072E-02
   8.228316717922639E-02   8.331816201020020E-02   8.436617547350023E-02
   8.542737132336231E-02   8.650191537379699E-02   8.758997552449836E-02
   8.869172178707861E-02   8.980732631163281E-02   9.093696341363762E-02
   9.208080960118850E-02   9.323904360257944E-02   9.441184639422957E-02
   9.559940122896121E-02   9.680189366463336E-02   9.801951159313559E-02
   9.925244526974650E-02   1.005008873428615E-01   1.017650328840944E-01
   1.030450794187581E-01   1.043412269567277E-01   1.056536780236933E-01
   1.069826376928041E-01   1.083283136167122E-01   1.096909160600187E-01
   1.110706579321274E-01   1.124677548205131E-01   1.138824250244069E-01
   1.153148895889063E-01   1.167653723395140E-01   1.182340999171106E-01
   1.197213018133686E-01   1.212272104066097E-01   1.227520609981155E-01
   1.242960918488933E-01   1.258595442169048E-01   1.274426623947635E-01
   1.290456937479054E-01   1.306688887532410E-01   1.323125010382922E-01
   1.339767874208225E-01   1.356620079489652E-01   1.373684259418564E-01
   1.390963080307793E-01   1.408459242008256E-01   1.426175478330815E-01
   1.444114557473441E-01   1.462279282453745E-01   1.480672491546963E-01
   1.499297058729437E-01   1.518155894127681E-01   1.537251944473094E-01
   1.556588193562395E-01   1.576167662723843E-01   1.595993411289330E-01
   1.616068537072405E-01   1.636396176852314E-01   1.656979506864130E-01
   1.677821743295045E-01   1.698926142786904E-01   1.720296002945066E-01
   1.741934662853657E-01   1.763845503597314E-01   1.786031948789478E-01
   1.808497465107351E-01   1.831245562833564E-01   1.854279796404668E-01
   1.877603764966522E-01   1.901221112936666E-01   1.925135530573771E-01
   1.949350754554246E-01   1.973870568556106E-01   1.998698803850173E-01
   2.023839339898726E-01   2.049296104961672E-01   2.075073076710343E-01
   2.101174282849019E-01   2.127603801744263E-01   2.154365763062173E-01
   2.181464348413652E-01   2.208903792007794E-01   2.236688381313488E-01
   2.264822457729340E-01   2.293310417262029E-01   2.322156711213191E-01
   2.351365846874945E-01   2.380942388234164E-01   2.410890956685610E-01
   2.441216231754034E-01   2.471922951825362E-01   2.503015914887079E-01
   2.534499979277923E-01   2.566380064447009E-01   2.598661151722506E-01
   2.631348285089977E-01   2.664446571980512E-01   2.697961184068779E-01
   2.731897358081100E-01   2.766260396613710E-01   2.801055668961292E-01
   2.836288611955941E-01   2.871964730816682E-01   2.908089600009671E-01
   2.944668864119215E-01   2.981708238729753E-01   3.019213511318926E-01
   3.057190542161879E-01   3.095645265246948E-01   3.134583689202851E-01
   3.174011898237552E-01   3.213936053088930E-01   3.254362391987407E-01
   3.295297231630684E-01   3.336746968170737E-01   3.378718078213231E-01
   3.421217119829501E-01   3.464250733581266E-01   3.507825643558225E-01
   3.551948658428716E-01   3.596626672503583E-01   3.641866666813423E-01
   3.687675710199387E-01   3.734060960417704E-01   3.781029665258093E-01
   3.828589163676243E-01   3.876746886940542E-01   3.925510359793229E-01
   3.974887201626147E-01   4.024885127671289E-01   4.075511950206322E-01
   4.126775579775269E-01   4.178684026424546E-01   4.231245400954550E-01
   4.284467916186989E-01   4.338359888248149E-01   4.392929737868310E-01
   4.448185991697499E-01   4.504137283637795E-01   4.560792356192397E-01
   4.618160061831658E-01   4.676249364376302E-01   4.735069340398030E-01
   4.794629180637771E-01   4.854938191441736E-01   4.916005796215560E-01
   4.977841536896735E-01   5.040455075445547E-01   5.103856195354785E-01
   5.168054803178421E-01   5.233060930079543E-01   5.298884733397736E-01
   5.365536498236185E-01   5.433026639068755E-01   5.501365701367258E-01
   5.570564363249213E-01   5.640633437146330E-01   5.711583871493955E-01
   5.783426752441811E-01   5.856173305586210E-01   5.929834897724081E-01
   6.004423038629068E-01   6.079949382849930E-01   6.156425731531618E-01
   6.233864034259204E-01   6.312276390925036E-01   6.391675053619378E-01
   6.472072428544809E-01   6.553481077954737E-01   6.635913722116257E-01
   6.719383241297725E-01   6.803902677781341E-01   6.889485237901003E-01
   6.976144294105858E-01   7.063893387049743E-01   7.152746227706954E-01
   7.242716699514623E-01   7.333818860542008E-01   7.426066945687129E-01
   7.519475368900962E-01   7.614058725439674E-01   7.709831794145163E-01
   7.806809539754258E-01   7.905007115237020E-01   8.004439864164401E-01
   8.105123323105713E-01   8.207073224056265E-01   8.310305496895493E-01
   8.414836271876061E-01   8.520681882144228E-01   8.627858866291939E-01
   8.736383970941025E-01   8.846274153359880E-01   8.957546584113085E-01
   9.070218649744328E-01   9.184307955493093E-01   9.299832328045528E-01
   9.416809818319870E-01   9.535258704286979E-01   9.655197493826266E-01
   9.776644927617612E-01   9.899619982069641E-01   1.002414187228480E+00
   1.015023005506178E+00   1.027790423193566E+00   1.040718435225634E+00
   1.053809061630565E+00   1.067064347845366E+00   1.080486365035478E+00
   1.094077210418393E+00   1.107839007591353E+00   1.121773906863166E+00
   1.135884085590192E+00   1.150171748516566E+00   1.164639128118689E+00
   1.179288484954056E+00   1.194122108014479E+00   1.209142315083739E+00
   1.224351453099750E+00   1.239751898521271E+00   1.255346057699230E+00
   1.271136367252726E+00   1.287125294449752E+00   1.303315337592714E+00
   1.319709026408789E+00   1.336308922445210E+00   1.353117619469504E+00
   1.370137743874779E+00   1.387371955090103E+00   1.404822945996039E+00
   1.422493443345421E+00   1.440386208189412E+00   1.458504036308920E+00
   1.476849758651452E+00   1.495426241773447E+00   1.514236388288187E+00
   1.533283137319335E+00   1.552569464960178E+00   1.572098384738648E+00
   1.591872948088193E+00   1.611896244824567E+00   1.632171403628624E+00
   1.652701592535175E+00   1.673490019428008E+00   1.694539932541119E+00
   1.715854620966257E+00   1.737437415166855E+00   1.759291687498416E+00
   1.781420852735456E+00   1.803828368605065E+00   1.826517736327185E+00
   1.849492501161686E+00   1.872756252962314E+00   1.896312626737621E+00
   1.920165303218933E+00   1.944318009435480E+00   1.968774519296747E+00
   1.993538654182157E+00   2.018614283538168E+00   2.044005325482886E+00
   2.069715747418270E+00   2.095749566650059E+00   2.122110851015473E+00
   2.148803719518825E+00   2.175832342975128E+00   2.203200944661785E+00
   2.230913800978493E+00   2.258975242115434E+00   2.287389652729876E+00
   2.316161472631287E+00   2.345295197475064E+00   2.374795379464986E+00
   2.404666628064509E+00   2.434913610716999E+00   2.465541053575035E+00
   2.496553742238872E+00   2.527956522504213E+00   2.559754301119364E+00
   2.591952046551923E+00   2.624554789765126E+00   2.657567625003925E+00
   2.690995710590996E+00   2.724844269732721E+00   2.759118591335328E+00
   2.793824030831304E+00   2.828966011016174E+00   2.864550022895843E+00
   2.900581626544562E+00   2.937066451973707E+00   2.974010200011481E+00
   3.011418643193677E+00   3.049297626665652E+00   3.087653069095639E+00
   3.126490963599548E+00   3.165817378677417E+00   3.205638459161608E+00
   3.245960427176967E+00   3.286789583113030E+00   3.328132306608478E+00
   3.369995057547973E+00   3.412384377071518E+00   3.455306888596527E+00
   3.498769298852760E+00   3.542778398930239E+00   3.587341065340390E+00
   3.632464261090502E+00   3.678155036771713E+00   3.724420531660687E+00
   3.771267974835125E+00   3.818704686303336E+00   3.866738078147996E+00
   3.915375655684304E+00   3.964625018632709E+00   4.014493862306368E+00
   4.064989978813563E+00   4.116121258275235E+00   4.167895690057826E+00
   4.220321364021634E+00   4.273406471784885E+00   4.327159308003665E+00
   4.381588271667995E+00   4.436701867414183E+00   4.492508706853692E+00
   4.549017509918730E+00   4.606237106224740E+00   4.664176436450061E+00
   4.722844553732918E+00   4.782250625085993E+00   4.842403932828806E+00
   4.903313876038072E+00   4.964989972016338E+00   5.027441857779082E+00
   5.090679291560509E+00   5.154712154338315E+00   5.219550451377580E+00
   5.285204313794130E+00   5.351684000137541E+00   5.418999897994056E+00
   5.487162525609678E+00   5.556182533533645E+00   5.626070706282619E+00
   5.696837964025778E+00   5.768495364291118E+00   5.841054103693229E+00
   5.914525519682759E+00   5.988921092317935E+00   6.064252446058340E+00
   6.140531351581254E+00   6.217769727620866E+00   6.295979642830570E+00
   6.375173317668736E+00   6.455363126308178E+00   6.536561598569639E+00
   6.618781421879620E+00   6.702035443252785E+00   6.786336671299356E+00
   6.871698278257726E+00   6.958133602052647E+00   7.045656148379327E+00
   7.134279592813690E+00   7.224017782949235E+00   7.314884740560744E+00
   7.406894663795208E+00   7.500061929390341E+00   7.594401094920936E+00
   7.689926901073540E+00   7.786654273949716E+00   7.884598327398261E+00
   7.983774365376807E+00   8.084197884343061E+00   8.185884575676170E+00
   8.288850328128541E+00   8.393111230308470E+00   8.498683573194061E+00
   8.605583852678670E+00   8.713828772148457E+00   8.823435245092313E+00
   8.934420397744626E+00   9.046801571761312E+00   9.160596326929449E+00
   9.275822443911046E+00   9.392497927021312E+00   9.510641007041851E+00
   9.630270144069298E+00   9.751404030399694E+00   9.874061593449225E+00
   9.998261998711667E+00   1.012402465275302E+01   1.025136920624387E+01
   1.038031555702976E+01   1.051088385324035E+01   1.064309449643757E+01
   1.077696814480340E+01   1.091252571636777E+01   1.104978839227703E+01
   1.118877762010355E+01   1.132951511719696E+01   1.147202287407750E+01
   1.161632315787213E+01   1.176243851579378E+01   1.191039177866439E+01
   1.206020606448229E+01   1.221190478203443E+01   1.236551163455410E+01
   1.252105062342449E+01   1.267854605192907E+01   1.283802252904896E+01
   1.299950497330816E+01   1.316301861666716E+01   1.332858900846538E+01
   1.349624201941339E+01   1.366600384563526E+01   1.383790101276170E+01
   1.401196038007482E+01   1.418820914470488E+01   1.436667484587994E+01
   1.454738536922889E+01   1.473036895113866E+01   1.491565418316623E+01
   1.510327001650605E+01   1.529324576651379E+01   1.548561111728690E+01
   1.568039612630279E+01   1.587763122911544E+01   1.607734724411094E+01
   1.627957537732294E+01   1.648434722730870E+01   1.669169479008638E+01
   1.690165046413455E+01   1.711424705545441E+01   1.732951778269589E+01
   1.754749628234810E+01   1.776821661399506E+01   1.799171326563769E+01
   1.821802115908251E+01   1.844717565539828E+01   1.867921256044129E+01
   1.891416813044999E+01   1.915207907771027E+01   1.939298257629165E+01
   1.963691626785591E+01   1.988391826753863E+01   2.013402716990478E+01
   2.038728205497925E+01   2.064372249435306E+01   2.090338855736658E+01
   2.116632081737047E+01   2.143256035806527E+01   2.170214877992092E+01
   2.197512820667680E+01   2.225154129192371E+01   2.253143122576861E+01
   2.281484174158306E+01   2.310181712283681E+01   2.339240221001701E+01
   2.368664240763474E+01   2.398458369131951E+01   2.428627261500305E+01
   2.459175631819351E+01   2.490108253334100E+01   2.521429959329597E+01
   2.553145643886128E+01   2.585260262643930E+01   2.617778833577525E+01
   2.650706437779779E+01   2.684048220255839E+01   2.717809390727054E+01
   2.751995224444993E+01   2.786611063015732E+01   2.821662315234472E+01
   2.857154457930683E+01   2.893093036823872E+01   2.929483667390106E+01
   2.966332035739453E+01   3.003643899504434E+01   3.041425088739673E+01
   3.079681506832855E+01   3.118419131427138E+01   3.157644015355181E+01
   3.197362287584901E+01   3.237580154177140E+01   3.278303899255378E+01
   3.319539885987632E+01   3.361294557580731E+01   3.403574438287059E+01
   3.446386134423995E+01   3.489736335406162E+01   3.533631814790657E+01
   3.578079431335446E+01   3.623086130071040E+01   3.668658943385684E+01
   3.714804992124176E+01   3.761531486700514E+01   3.808845728224548E+01
   3.856755109642773E+01   3.905267116893509E+01   3.954389330076588E+01
   4.004129424637755E+01   4.054495172567990E+01   4.105494443617874E+01
   4.157135206527265E+01   4.209425530270434E+01   4.262373585316847E+01
   4.315987644907836E+01   4.370276086349286E+01   4.425247392320625E+01
   4.480910152200249E+01   4.537273063407633E+01   4.594344932762333E+01
   4.652134677860044E+01   4.710651328466012E+01   4.769904027925948E+01
   4.829902034594687E+01   4.890654723282849E+01   4.952171586721638E+01
   5.014462237046124E+01   5.077536407297150E+01   5.141403952942140E+01
   5.206074853415050E+01   5.271559213675647E+01   5.337867265788452E+01
   5.405009370521511E+01   5.472996018965287E+01   5.541837834171928E+01
   5.611545572815115E+01   5.682130126870832E+01   5.753602525319256E+01
   5.825973935868052E+01   5.899255666697368E+01   5.973459168226735E+01
   6.048596034904234E+01   6.124678007018152E+01   6.201716972531414E+01
   6.279724968939131E+01   6.358714185149445E+01   6.438696963388092E+01
   6.519685801126900E+01   6.601693353036532E+01   6.684732432963833E+01
   6.768816015933976E+01   6.853957240177873E+01   6.940169409185032E+01
   7.027465993782253E+01   7.115860634238500E+01   7.205367142396179E+01
   7.295999503829289E+01   7.387771880028700E+01   7.480698610614897E+01