
     Program PWSCF v.7.3 starts on 17Mar2024 at  8: 0:36 

     This program is part of the open-source Quantum ESPRESSO suite
     for quantum simulation of materials; please cite
         "P. Giannozzi et al., J. Phys.:Condens. Matter 21 395502 (2009);
         "P. Giannozzi et al., J. Phys.:Condens. Matter 29 465901 (2017);
         "P. Giannozzi et al., J. Chem. Phys. 152 154105 (2020);
          URL http://www.quantum-espresso.org", 
     in publications or presentations arising from this work. More details at
     http://www.quantum-espresso.org/quote

     Parallel version (MPI & OpenMP), running on      36 processor cores
     Number of MPI processes:                36
     Threads/MPI process:                     1

     MPI processes distributed on     1 nodes
     557387 MiB available memory on the printing compute node when the environment starts
 
     Waiting for input...
     Reading input from standard input
Warning: card &CELL ignored
Warning: card / ignored

     Current dimensions of program PWSCF are:
     Max number of different atomic species (ntypx) = 10
     Max number of k-points (npk) =  40000
     Max angular momentum in pseudopotentials (lmaxx) =  4
     file Mo.pbe-spn-kjpaw_psl.1.0.0.UPF: wavefunction(s)  4S 4D renormalized
     file S.pbe-n-kjpaw_psl.1.0.0.UPF: wavefunction(s)  3S 3P renormalized
     file Pd.pbe-spn-kjpaw_psl.1.0.0.UPF: wavefunction(s)  4S 5S 4D renormalized
     file Pt.pbe-spfn-kjpaw_psl.1.0.0.UPF: wavefunction(s)  5P 4F renormalized
 
     R & G space division:  proc/nbgrp/npool/nimage =      36
     Subspace diagonalization in iterative solution of the eigenvalue problem:
     one sub-group per band group will be used
     scalapack distributed-memory algorithm (size of sub-group:  6*  6 procs)

 
     Parallelization info
     --------------------
     sticks:   dense  smooth     PW     G-vecs:    dense   smooth      PW
     Min         585     334     89               198743    85850   11735
     Max         586     335     90               198750    85861   11748
     Sum       21073   12049   3205              7154885  3090769  422587
 
     Using Slab Decomposition
 


     bravais-lattice index     =            0
     lattice parameter (alat)  =      23.8199  a.u.
     unit-cell volume          =   33861.0370 (a.u.)^3
     number of atoms/cell      =          194
     number of atomic types    =            4
     number of electrons       =      1714.00
     number of Kohn-Sham states=         1028
     kinetic-energy cutoff     =      77.0000  Ry
     charge density cutoff     =     539.0000  Ry
     scf convergence threshold =      1.0E-06
     mixing beta               =       0.2000
     number of iterations used =            8  plain     mixing
     energy convergence thresh.=      1.0E-04
     force convergence thresh. =      1.0E-03
     Exchange-correlation= SLA  PW   PBX  PBC
                           (   1   4   3   4   0   0   0)
     nstep                     =         1000


     Effective Screening Medium Method
     =================================
     Boundary Conditions: Vacuum-Slab-Vacuum
     total charge in unit cell        =   0.0000
     grid points for fit at edges     =        4 
 

     celldm(1)=  23.819920  celldm(2)=   0.000000  celldm(3)=   0.000000
     celldm(4)=   0.000000  celldm(5)=   0.000000  celldm(6)=   0.000000

     crystal axes: (cart. coord. in units of alat)
               a(1) = (   1.000000   0.000000   0.000000 )  
               a(2) = (  -0.499999   0.866026   0.000000 )  
               a(3) = (   0.000000   0.000000   2.893000 )  

     reciprocal axes: (cart. coord. in units 2 pi/alat)
               b(1) = (  1.000000  0.577349  0.000000 )  
               b(2) = (  0.000000  1.154700  0.000000 )  
               b(3) = (  0.000000  0.000000  0.345662 )  


     PseudoPot. # 1 for Mo read from file:
     ./pseudo/Mo.pbe-spn-kjpaw_psl.1.0.0.UPF
     MD5 check sum: 317bf72632116215fd98f72de1686f13
     Pseudo is Projector augmented-wave + core cor, Zval = 14.0
     Generated using 'atomic' code by A. Dal Corso  v.7.2
     Shape of augmentation charge: PSQ
     Using radial grid of 1229 points,  6 beta functions with: 
                l(1) =   0
                l(2) =   0
                l(3) =   1
                l(4) =   1
                l(5) =   2
                l(6) =   2
     Q(r) pseudized with 0 coefficients 


     PseudoPot. # 2 for S  read from file:
     ./pseudo/S.pbe-n-kjpaw_psl.1.0.0.UPF
     MD5 check sum: 8b7b5302570d38d5e87fed6a1065abda
     Pseudo is Projector augmented-wave + core cor, Zval =  6.0
     Generated using 'atomic' code by A. Dal Corso  v.7.2
     Shape of augmentation charge: PSQ
     Using radial grid of 1151 points,  6 beta functions with: 
                l(1) =   0
                l(2) =   0
                l(3) =   1
                l(4) =   1
                l(5) =   2
                l(6) =   2
     Q(r) pseudized with 0 coefficients 


     PseudoPot. # 3 for Pd read from file:
     ./pseudo/Pd.pbe-spn-kjpaw_psl.1.0.0.UPF
     MD5 check sum: a60571a671f2502b8a6a4569d20a6edb
     Pseudo is Projector augmented-wave + core cor, Zval = 18.0
     Generated using 'atomic' code by A. Dal Corso  v.7.2
     Shape of augmentation charge: PSQ
     Using radial grid of 1235 points,  6 beta functions with: 
                l(1) =   0
                l(2) =   0
                l(3) =   1
                l(4) =   1
                l(5) =   2
                l(6) =   2
     Q(r) pseudized with 0 coefficients 


     PseudoPot. # 4 for Pt read from file:
     ./pseudo/Pt.pbe-spfn-kjpaw_psl.1.0.0.UPF
     MD5 check sum: 620096ebf4e6ebacc94de60fd67efcb5
     Pseudo is Projector augmented-wave + core cor, Zval = 32.0
     Generated using 'atomic' code by A. Dal Corso  v.7.2
     Shape of augmentation charge: PSQ
     Using radial grid of 1277 points,  8 beta functions with: 
                l(1) =   0
                l(2) =   0
                l(3) =   1
                l(4) =   1
                l(5) =   2
                l(6) =   2
                l(7) =   3
                l(8) =   3
     Q(r) pseudized with 0 coefficients 


     atomic species   valence    mass     pseudopotential
     Mo               14.00    95.95000     Mo( 1.00)
     S                 6.00    32.06000     S ( 1.00)
     Pd               18.00   106.42000     Pd( 1.00)
     Pt               32.00   195.08400     Pt( 1.00)

     No symmetry found



   Cartesian axes

     site n.     atom                  positions (alat units)
         1        Mo     tau(   1) = (   0.0000010   0.1443372  -0.7272732  )
         2        Mo     tau(   2) = (   0.1249995   0.0721706  -0.2424038  )
         3        S      tau(   3) = (   0.0000015   0.1443386  -0.3667807  )
         4        S      tau(   4) = (   0.1250010   0.0721682  -0.6030489  )
         5        S      tau(   5) = (   0.1250010   0.0721683  -0.8514963  )
         6        S      tau(   6) = (   0.0000015   0.1443389  -0.1180260  )
         7        Mo     tau(   7) = (   0.0000007   0.1443589   0.2424205  )
         8        Mo     tau(   8) = (   0.1250041   0.0720322   0.7266168  )
         9        S      tau(   9) = (   0.0000742   0.1444871   0.6020949  )
        10        S      tau(  10) = (   0.1250024   0.0721701   0.3667478  )
        11        S      tau(  11) = (   0.1250035   0.0721876   0.1180348  )
        12        S      tau(  12) = (  -0.0004118   0.1430864   0.8514340  )
        13        Mo     tau(  13) = (  -0.1249989   0.3608437  -0.7272732  )
        14        Mo     tau(  14) = (   0.0000030   0.2886752  -0.2424042  )
        15        S      tau(  15) = (  -0.1249977   0.3608450  -0.3667802  )
        16        S      tau(  16) = (   0.0000012   0.2886747  -0.6030489  )
        17        S      tau(  17) = (   0.0000012   0.2886748  -0.8514963  )
        18        S      tau(  18) = (  -0.1249977   0.3608454  -0.1180274  )
        19        Mo     tau(  19) = (  -0.1249729   0.3608584   0.2424608  )
        20        Mo     tau(  20) = (  -0.0007193   0.2876626   0.7275440  )
        21        S      tau(  21) = (  -0.1251115   0.3607789   0.6027257  )
        22        S      tau(  22) = (   0.0000621   0.2887099   0.3668377  )
        23        S      tau(  23) = (  -0.0000096   0.2886902   0.1180527  )
        24        S      tau(  24) = (  -0.1254673   0.3605734   0.8517408  )
        25        Mo     tau(  25) = (  -0.2499987   0.5773502  -0.7272732  )
        26        Mo     tau(  26) = (  -0.1249977   0.5051839  -0.2424055  )
        27        S      tau(  27) = (  -0.2499981   0.5773518  -0.3667809  )
        28        S      tau(  28) = (  -0.1249986   0.5051812  -0.6030489  )
        29        S      tau(  29) = (  -0.1249986   0.5051813  -0.8514963  )
        30        S      tau(  30) = (  -0.2499979   0.5773512  -0.1180266  )
        31        Mo     tau(  31) = (  -0.2499795   0.5773389   0.2424205  )
        32        Mo     tau(  32) = (  -0.1262356   0.5050639   0.7275441  )
        33        S      tau(  33) = (  -0.2498323   0.5773390   0.6020948  )
        34        S      tau(  34) = (  -0.1249376   0.5052159   0.3668377  )
        35        S      tau(  35) = (  -0.1249905   0.5051638   0.1180531  )
        36        S      tau(  36) = (  -0.2512883   0.5776183   0.8514340  )
        37        Mo     tau(  37) = (  -0.3749985   0.7938567  -0.7272732  )
        38        Mo     tau(  38) = (  -0.2500001   0.7216874  -0.2424031  )
        39        S      tau(  39) = (  -0.3749980   0.7938584  -0.3667800  )
        40        S      tau(  40) = (  -0.2499984   0.7216877  -0.6030489  )
        41        S      tau(  41) = (  -0.2499984   0.7216878  -0.8514963  )
        42        S      tau(  42) = (  -0.3749982   0.7938585  -0.1180264  )
        43        Mo     tau(  43) = (  -0.3749962   0.7938568   0.2423838  )
        44        Mo     tau(  44) = (  -0.2501148   0.7217588   0.7266170  )
        45        S      tau(  45) = (  -0.3749945   0.7938590   0.6021274  )
        46        S      tau(  46) = (  -0.2499958   0.7216877   0.3667488  )
        47        S      tau(  47) = (  -0.2499810   0.7216794   0.1180323  )
        48        S      tau(  48) = (  -0.3749953   0.7938585   0.8511588  )
        49        Mo     tau(  49) = (   0.2500010   0.1443372  -0.7272732  )
        50        Mo     tau(  50) = (   0.3750034   0.0721723  -0.2424032  )
        51        S      tau(  51) = (   0.2500017   0.1443391  -0.3667788  )
        52        S      tau(  52) = (   0.3750010   0.0721682  -0.6030489  )
        53        S      tau(  53) = (   0.3750010   0.0721683  -0.8514963  )
        54        S      tau(  54) = (   0.2500016   0.1443391  -0.1180271  )
        55        Mo     tau(  55) = (   0.2500054   0.1443594   0.2424211  )
        56        Mo     tau(  56) = (   0.3749279   0.0721263   0.7263991  )
        57        S      tau(  57) = (   0.2499344   0.1444864   0.6020948  )
        58        S      tau(  58) = (   0.3750316   0.0721860   0.3667597  )
        59        S      tau(  59) = (   0.3749924   0.0721644   0.1180346  )
        60        S      tau(  60) = (   0.2504199   0.1430865   0.8514340  )
        61        Mo     tau(  61) = (   0.1250012   0.3608437  -0.7272732  )
        62        Mo     tau(  62) = (   0.2500029   0.2886782  -0.2424031  )
        63        S      tau(  63) = (   0.1250024   0.3608455  -0.3667794  )
        64        S      tau(  64) = (   0.2500012   0.2886747  -0.6030489  )
        65        S      tau(  65) = (   0.2500012   0.2886748  -0.8514963  )
        66        S      tau(  66) = (   0.1250021   0.3608455  -0.1180270  )
        67        Mo     tau(  67) = (   0.1250038   0.3608653   0.2423963  )
        68        Mo     tau(  68) = (   0.2507284   0.2876625   0.7275438  )
        69        S      tau(  69) = (   0.1250046   0.3627170   0.6061948  )
        70        S      tau(  70) = (   0.2499461   0.2887116   0.3668373  )
        71        S      tau(  71) = (   0.2500171   0.2886900   0.1180543  )
        72        S      tau(  72) = (   0.1250046   0.3519103   0.8557806  )
        73        Mo     tau(  73) = (   0.0000014   0.5773502  -0.7272732  )
        74        Mo     tau(  74) = (   0.1250045   0.5051840  -0.2424036  )
        75        S      tau(  75) = (   0.0000030   0.5773520  -0.3667799  )
        76        S      tau(  76) = (   0.1250014   0.5051812  -0.6030489  )
        77        S      tau(  77) = (   0.1250014   0.5051813  -0.8514963  )
        78        S      tau(  78) = (   0.0000026   0.5773517  -0.1180274  )
        79        Mo     tau(  79) = (   0.0000222   0.5773400   0.2423964  )
        80        Mo     tau(  80) = (   0.1250047   0.5051836   0.7321380  )
        81        S      tau(  81) = (   0.0016251   0.5764170   0.6061946  )
        82        S      tau(  82) = (   0.1250047   0.5051815   0.3667777  )
        83        S      tau(  83) = (   0.1250048   0.5051819   0.1179962  )
        84        S      tau(  84) = (  -0.0077335   0.5818202   0.8557807  )
        85        Mo     tau(  85) = (  -0.1249984   0.7938567  -0.7272732  )
        86        Mo     tau(  86) = (   0.0000069   0.7216896  -0.2424039  )
        87        S      tau(  87) = (  -0.1249975   0.7938582  -0.3667782  )
        88        S      tau(  88) = (   0.0000016   0.7216877  -0.6030489  )
        89        S      tau(  89) = (   0.0000016   0.7216878  -0.8514963  )
        90        S      tau(  90) = (  -0.1249973   0.7938582  -0.1180279  )
        91        Mo     tau(  91) = (  -0.1249774   0.7938494   0.2424207  )
        92        Mo     tau(  92) = (  -0.0005116   0.7228241   0.7275438  )
        93        S      tau(  93) = (  -0.1249026   0.7937246   0.6020948  )
        94        S      tau(  94) = (   0.0000043   0.7216209   0.3668361  )
        95        S      tau(  95) = (   0.0000226   0.7216928   0.1180549  )
        96        S      tau(  96) = (  -0.1258721   0.7948451   0.8514341  )
        97        Mo     tau(  97) = (   0.5000010   0.1443372  -0.7272732  )
        98        Mo     tau(  98) = (   0.6250001   0.0721662  -0.2424040  )
        99        S      tau(  99) = (   0.5000017   0.1443386  -0.3667801  )
       100        S      tau( 100) = (   0.6250010   0.0721682  -0.6030489  )
       101        S      tau( 101) = (   0.6250010   0.0721683  -0.8514963  )
       102        S      tau( 102) = (   0.5000020   0.1443388  -0.1180261  )
       103        Mo     tau( 103) = (   0.5000075   0.1443411   0.2423793  )
       104        Mo     tau( 104) = (   0.6250042   0.0723339   0.7270464  )
       105        S      tau( 105) = (   0.5002366   0.1444733   0.6023595  )
       106        S      tau( 106) = (   0.6250029   0.0721787   0.3667562  )
       107        S      tau( 107) = (   0.6250040   0.0721260   0.1180315  )
       108        S      tau( 108) = (   0.4998752   0.1442648   0.8512770  )
       109        Mo     tau( 109) = (   0.3750012   0.3608437  -0.7272732  )
       110        Mo     tau( 110) = (   0.4999991   0.2886761  -0.2424038  )
       111        S      tau( 111) = (   0.3750012   0.3608452  -0.3667804  )
       112        S      tau( 112) = (   0.5000012   0.2886747  -0.6030489  )
       113        S      tau( 113) = (   0.5000012   0.2886748  -0.8514963  )
       114        S      tau( 114) = (   0.3750014   0.3608455  -0.1180261  )
       115        Mo     tau( 115) = (   0.3749795   0.3608597   0.2424601  )
       116        Mo     tau( 116) = (   0.5001461   0.2885951   0.7270464  )
       117        S      tau( 117) = (   0.3751205   0.3607791   0.6027254  )
       118        S      tau( 118) = (   0.5000105   0.2886721   0.3667569  )
       119        S      tau( 119) = (   0.4999655   0.2886989   0.1180297  )
       120        S      tau( 120) = (   0.3754765   0.3605739   0.8517402  )
       121        Mo     tau( 121) = (   0.2500014   0.5773502  -0.7272732  )
       122        Mo     tau( 122) = (   0.3749983   0.5051825  -0.2424043  )
       123        S      tau( 123) = (   0.2500017   0.5773519  -0.3667810  )
       124        S      tau( 124) = (   0.3750014   0.5051812  -0.6030489  )
       125        S      tau( 125) = (   0.3750014   0.5051813  -0.8514963  )
       126        S      tau( 126) = (   0.2500018   0.5773519  -0.1180256  )
       127        Mo     tau( 127) = (   0.2499863   0.5773402   0.2423965  )
       128        Mo     tau( 128) = (   0.3762454   0.5050642   0.7275433  )
       129        S      tau( 129) = (   0.2483844   0.5764169   0.6061944  )
       130        S      tau( 130) = (   0.3749442   0.5052158   0.3668400  )
       131        S      tau( 131) = (   0.3749972   0.5051650   0.1180510  )
       132        S      tau( 132) = (   0.2577438   0.5818204   0.8557797  )
       133        Mo     tau( 133) = (   0.1250016   0.7938567  -0.7272732  )
       134        Mo     tau( 134) = (   0.2499995   0.7216883  -0.2424036  )
       135        S      tau( 135) = (   0.1250024   0.7938578  -0.3667813  )
       136        S      tau( 136) = (   0.2500016   0.7216877  -0.6030489  )
       137        S      tau( 137) = (   0.2500016   0.7216878  -0.8514963  )
       138        S      tau( 138) = (   0.1250024   0.7938579  -0.1180253  )
       139        Mo     tau( 139) = (   0.1250047   0.7938294   0.2424606  )
       140        Mo     tau( 140) = (   0.2505220   0.7228241   0.7275433  )
       141        S      tau( 141) = (   0.1250053   0.7939926   0.6027252  )
       142        S      tau( 142) = (   0.2500048   0.7216200   0.3668387  )
       143        S      tau( 143) = (   0.2499864   0.7216915   0.1180524  )
       144        S      tau( 144) = (   0.1250054   0.7944033   0.8517402  )
       145        Mo     tau( 145) = (   0.7500010   0.1443372  -0.7272732  )
       146        Mo     tau( 146) = (   0.8750038   0.0721696  -0.2424038  )
       147        S      tau( 147) = (   0.7500016   0.1443382  -0.3667789  )
       148        S      tau( 148) = (   0.8750010   0.0721682  -0.6030489  )
       149        S      tau( 149) = (   0.8750010   0.0721683  -0.8514963  )
       150        S      tau( 150) = (   0.7500016   0.1443384  -0.1180279  )
       151        Mo     tau( 151) = (   0.7499986   0.1443409   0.2423802  )
       152        Mo     tau( 152) = (   0.8750804   0.0721266   0.7263988  )
       153        S      tau( 153) = (   0.7497713   0.1444738   0.6023592  )
       154        S      tau( 154) = (   0.8749758   0.0721848   0.3667595  )
       155        S      tau( 155) = (   0.8750127   0.0721632   0.1180342  )
       156        S      tau( 156) = (   0.7501331   0.1442647   0.8512770  )
       157        Mo     tau( 157) = (   0.6250012   0.3608437  -0.7272732  )
       158        Mo     tau( 158) = (   0.7500028   0.2886769  -0.2424041  )
       159        S      tau( 159) = (   0.6250015   0.3608451  -0.3667792  )
       160        S      tau( 160) = (   0.7500012   0.2886747  -0.6030489  )
       161        S      tau( 161) = (   0.7500012   0.2886748  -0.8514963  )
       162        S      tau( 162) = (   0.6250016   0.3608454  -0.1180280  )
       163        Mo     tau( 163) = (   0.6250032   0.3608391   0.2423797  )
       164        Mo     tau( 164) = (   0.7498627   0.2885951   0.7270467  )
       165        S      tau( 165) = (   0.6250046   0.3605769   0.6023590  )
       166        S      tau( 166) = (   0.7499943   0.2886711   0.3667569  )
       167        S      tau( 167) = (   0.7500399   0.2886970   0.1180318  )
       168        S      tau( 168) = (   0.6250043   0.3609947   0.8512770  )
       169        Mo     tau( 169) = (   0.5000014   0.5773502  -0.7272732  )
       170        Mo     tau( 170) = (   0.6250029   0.5051841  -0.2424047  )
       171        S      tau( 171) = (   0.5000014   0.5773518  -0.3667794  )
       172        S      tau( 172) = (   0.6250014   0.5051812  -0.6030489  )
       173        S      tau( 173) = (   0.6250014   0.5051813  -0.8514963  )
       174        S      tau( 174) = (   0.5000016   0.5773516  -0.1180277  )
       175        Mo     tau( 175) = (   0.4999855   0.5773383   0.2424207  )
       176        Mo     tau( 176) = (   0.6250049   0.5052713   0.7263986  )
       177        S      tau( 177) = (   0.4998428   0.5773389   0.6020941  )
       178        S      tau( 178) = (   0.6250030   0.5051500   0.3667588  )
       179        S      tau( 179) = (   0.6250025   0.5051935   0.1180351  )
       180        S      tau( 180) = (   0.5012979   0.5776190   0.8514332  )
       181        Mo     tau( 181) = (   0.3750016   0.7938567  -0.7272732  )
       182        Mo     tau( 182) = (   0.5000025   0.7216901  -0.2424039  )
       183        S      tau( 183) = (   0.3750019   0.7938578  -0.3667793  )
       184        S      tau( 184) = (   0.5000016   0.7216877  -0.6030489  )
       185        S      tau( 185) = (   0.5000016   0.7216878  -0.8514963  )
       186        S      tau( 186) = (   0.3750020   0.7938579  -0.1180272  )
       187        Mo     tau( 187) = (   0.3749848   0.7938487   0.2424206  )
       188        Mo     tau( 188) = (   0.5001249   0.7217591   0.7266160  )
       189        S      tau( 189) = (   0.3749125   0.7937251   0.6020942  )
       190        S      tau( 190) = (   0.5000021   0.7216868   0.3667472  )
       191        S      tau( 191) = (   0.4999874   0.7216780   0.1180346  )
       192        S      tau( 192) = (   0.3758826   0.7948451   0.8514332  )
       193        Pd     tau( 193) = (   0.1250063   0.5051842   0.9601361  )
       194        Pt     tau( 194) = (   0.2505363   0.7228108   0.9707291  )

     --------------------------------------------
     DFT-D3 Dispersion Correction (3-body terms):
     --------------------------------------------
       Reference C6 values for interpolation: 

         atom   Coordination number   C6
         S          0.000           268.01
         S          0.995           261.99
         S          1.990           251.62
         Mo         0.000          1691.79
         Mo         1.942          1004.01
         Mo        11.056           674.22
         Pd         0.000          1217.01
         Pd         1.863           573.90
         Pd         5.710           531.75
         Pt         0.000           782.29
         Pt         1.919           692.72
         Pt         6.667           673.75

       Values used:

         atom   Coordination number  R0_AB[au]  C6      C8
         Mo        10.208            3.547    674.21  77634.20
         Mo        10.221            3.547    674.22  77634.20
         S          3.858            3.128    251.62  12327.25
         S          3.859            3.128    251.62  12327.25
         S          3.758            3.128    251.62  12327.25
         S          3.859            3.128    251.62  12327.25
         Mo        10.220            3.547    674.22  77634.20
         Mo        10.234            3.547    674.22  77634.20
         S          3.847            3.128    251.62  12327.25
         S          3.861            3.128    251.62  12327.25
         S          3.859            3.128    251.62  12327.25
         S          3.806            3.128    251.62  12327.25
         Mo        10.208            3.547    674.22  77634.20
         Mo        10.221            3.547    674.22  77634.20
         S          3.858            3.128    251.62  12327.25
         S          3.859            3.128    251.62  12327.25
         S          3.758            3.128    251.62  12327.25
         S          3.859            3.128    251.62  12327.25
         Mo        10.221            3.547    674.22  77634.20
         Mo        10.191            3.547    674.22  77634.20
         S          3.855            3.128    251.62  12327.25
         S          3.856            3.128    251.62  12327.25
         S          3.859            3.128    251.62  12327.25
         S          3.756            3.128    251.62  12327.25
         Mo        10.208            3.547    674.22  77634.20
         Mo        10.221            3.547    674.22  77634.20
         S          3.858            3.128    251.62  12327.25
         S          3.859            3.128    251.62  12327.25
         S          3.758            3.128    251.62  12327.25
         S          3.859            3.128    251.62  12327.25
         Mo        10.220            3.547    674.22  77634.20
         Mo        10.191            3.547    674.22  77634.20
         S          3.847            3.128    251.62  12327.25
         S          3.856            3.128    251.62  12327.25
         S          3.859            3.128    251.62  12327.25
         S          3.805            3.128    251.62  12327.25
         Mo        10.208            3.547    674.22  77634.20
         Mo        10.221            3.547    674.22  77634.20
         S          3.858            3.128    251.62  12327.25
         S          3.859            3.128    251.62  12327.25
         S          3.758            3.128    251.62  12327.25
         S          3.859            3.128    251.62  12327.25
         Mo        10.219            3.547    674.22  77634.20
         Mo        10.234            3.547    674.22  77634.20
         S          3.856            3.128    251.62  12327.25
         S          3.861            3.128    251.62  12327.25
         S          3.859            3.128    251.62  12327.25
         S          3.782            3.128    251.62  12327.25
         Mo        10.208            3.547    674.22  77634.20
         Mo        10.221            3.547    674.22  77634.20
         S          3.858            3.128    251.62  12327.25
         S          3.859            3.128    251.62  12327.25
         S          3.758            3.128    251.62  12327.25
         S          3.859            3.128    251.62  12327.25
         Mo        10.220            3.547    674.22  77634.20
         Mo        10.244            3.547    674.22  77634.20
         S          3.847            3.128    251.62  12327.25
         S          3.860            3.128    251.62  12327.25
         S          3.859            3.128    251.62  12327.25
         S          3.805            3.128    251.62  12327.25
         Mo        10.208            3.547    674.22  77634.20
         Mo        10.221            3.547    674.22  77634.20
         S          3.858            3.128    251.62  12327.25
         S          3.859            3.128    251.62  12327.25
         S          3.758            3.128    251.62  12327.25
         S          3.859            3.128    251.62  12327.25
         Mo        10.222            3.547    674.22  77634.20
         Mo        10.191            3.547    674.22  77634.20
         S          3.865            3.128    251.62  12327.25
         S          3.856            3.128    251.62  12327.25
         S          3.859            3.128    251.62  12327.25
         S          4.653            3.128    251.62  12327.25
         Mo        10.208            3.547    674.22  77634.20
         Mo        10.221            3.547    674.22  77634.20
         S          3.858            3.128    251.62  12327.25
         S          3.859            3.128    251.62  12327.25
         S          3.758            3.128    251.62  12327.25
         S          3.859            3.128    251.62  12327.25
         Mo        10.222            3.547    674.22  77634.20
         Mo        10.832            3.547    674.22  77634.20
         S          3.865            3.128    251.62  12327.25
         S          3.853            3.128    251.62  12327.25
         S          3.859            3.128    251.62  12327.25
         S          4.663            3.128    251.62  12327.25
         Mo        10.208            3.547    674.22  77634.20
         Mo        10.221            3.547    674.22  77634.20
         S          3.858            3.128    251.62  12327.25
         S          3.859            3.128    251.62  12327.25
         S          3.758            3.128    251.62  12327.25
         S          3.859            3.128    251.62  12327.25
         Mo        10.220            3.547    674.22  77634.20
         Mo        10.201            3.547    674.22  77634.20
         S          3.847            3.128    251.62  12327.25
         S          3.856            3.128    251.62  12327.25
         S          3.859            3.128    251.62  12327.25
         S          3.806            3.128    251.62  12327.25
         Mo        10.208            3.547    674.22  77634.20
         Mo        10.221            3.547    674.22  77634.20
         S          3.858            3.128    251.62  12327.25
         S          3.859            3.128    251.62  12327.25
         S          3.758            3.128    251.62  12327.25
         S          3.859            3.128    251.62  12327.25
         Mo        10.220            3.547    674.22  77634.20
         Mo        10.240            3.547    674.22  77634.20
         S          3.862            3.128    251.62  12327.25
         S          3.860            3.128    251.62  12327.25
         S          3.859            3.128    251.62  12327.25
         S          3.766            3.128    251.62  12327.25
         Mo        10.208            3.547    674.22  77634.20
         Mo        10.221            3.547    674.22  77634.20
         S          3.858            3.128    251.62  12327.25
         S          3.859            3.128    251.62  12327.25
         S          3.758            3.128    251.62  12327.25
         S          3.859            3.128    251.62  12327.25
         Mo        10.221            3.547    674.22  77634.20
         Mo        10.230            3.547    674.22  77634.20
         S          3.855            3.128    251.62  12327.25
         S          3.860            3.128    251.62  12327.25
         S          3.859            3.128    251.62  12327.25
         S          3.757            3.128    251.62  12327.25
         Mo        10.208            3.547    674.21  77634.20
         Mo        10.221            3.547    674.22  77634.20
         S          3.858            3.128    251.62  12327.25
         S          3.859            3.128    251.62  12327.25
         S          3.758            3.128    251.62  12327.25
         S          3.859            3.128    251.62  12327.25
         Mo        10.222            3.547    674.22  77634.20
         Mo        10.201            3.547    674.22  77634.20
         S          3.866            3.128    251.62  12327.25
         S          3.856            3.128    251.62  12327.25
         S          3.859            3.128    251.62  12327.25
         S          5.633            3.128    251.62  12327.25
         Mo        10.208            3.547    674.22  77634.20
         Mo        10.221            3.547    674.21  77634.20
         S          3.858            3.128    251.62  12327.25
         S          3.859            3.128    251.62  12327.25
         S          3.758            3.128    251.62  12327.25
         S          3.859            3.128    251.62  12327.25
         Mo        10.221            3.547    674.22  77634.20
         Mo        10.795            3.547    674.22  77634.20
         S          3.856            3.128    251.62  12327.25
         S          3.856            3.128    251.62  12327.25
         S          3.859            3.128    251.62  12327.25
         S          4.722            3.128    251.62  12327.25
         Mo        10.208            3.547    674.22  77634.20
         Mo        10.221            3.547    674.22  77634.20
         S          3.858            3.128    251.62  12327.25
         S          3.859            3.128    251.62  12327.25
         S          3.758            3.128    251.62  12327.25
         S          3.859            3.128    251.62  12327.25
         Mo        10.220            3.547    674.22  77634.20
         Mo        10.254            3.547    674.22  77634.20
         S          3.862            3.128    251.62  12327.25
         S          3.860            3.128    251.62  12327.25
         S          3.859            3.128    251.62  12327.25
         S          3.778            3.128    251.62  12327.25
         Mo        10.208            3.547    674.22  77634.20
         Mo        10.220            3.547    674.22  77634.20
         S          3.858            3.128    251.62  12327.25
         S          3.859            3.128    251.62  12327.25
         S          3.758            3.128    251.62  12327.25
         S          3.859            3.128    251.62  12327.25
         Mo        10.220            3.547    674.22  77634.20
         Mo        10.230            3.547    674.22  77634.20
         S          3.862            3.128    251.62  12327.25
         S          3.860            3.128    251.62  12327.25
         S          3.859            3.128    251.62  12327.25
         S          3.765            3.128    251.62  12327.25
         Mo        10.208            3.547    674.22  77634.20
         Mo        10.221            3.547    674.22  77634.20
         S          3.858            3.128    251.62  12327.25
         S          3.859            3.128    251.62  12327.25
         S          3.758            3.128    251.62  12327.25
         S          3.859            3.128    251.62  12327.25
         Mo        10.220            3.547    674.22  77634.20
         Mo        10.244            3.547    674.22  77634.20
         S          3.847            3.128    251.62  12327.25
         S          3.860            3.128    251.62  12327.25
         S          3.859            3.128    251.62  12327.25
         S          3.816            3.128    251.62  12327.25
         Mo        10.208            3.547    674.22  77634.20
         Mo        10.221            3.547    674.22  77634.20
         S          3.858            3.128    251.62  12327.25
         S          3.859            3.128    251.62  12327.25
         S          3.758            3.128    251.62  12327.25
         S          3.859            3.128    251.62  12327.25
         Mo        10.220            3.547    674.22  77634.20
         Mo        10.244            3.547    674.22  77634.20
         S          3.848            3.128    251.62  12327.25
         S          3.861            3.128    251.62  12327.25
         S          3.859            3.128    251.62  12327.25
         S          4.770            3.128    251.62  12327.25
         Pd         3.999            3.168    531.81  48726.00
         Pt         3.865            3.168    692.72  72035.25

         Molecular C6 ( Ry / a.u.^6 ) =  13979851.90


     number of k points=     4  Gaussian smearing, width (Ry)=  0.0100
                       cart. coord. in units 2pi/alat
        k(    1) = (   0.0000000   0.0000000   0.0000000), wk =   0.5000000
        k(    2) = (   0.0000000  -0.5773499   0.0000000), wk =   0.5000000
        k(    3) = (  -0.5000000  -0.2886744   0.0000000), wk =   0.5000000
        k(    4) = (  -0.5000000  -0.8660242   0.0000000), wk =   0.5000000

     Dense  grid:  7154885 G-vectors     FFT dimensions: ( 180, 180, 512)

     Smooth grid:  3090769 G-vectors     FFT dimensions: ( 135, 135, 400)

     Estimated max dynamical RAM per process >       4.31 GB

     Estimated total dynamical RAM >     155.10 GB

     Initial potential from superposition of free atoms

     starting charge    1713.9389, renormalised to    1714.0000

     negative rho (up, down):  8.906E-04 0.000E+00
     Starting wfcs are 1179 randomized atomic wfcs
     Checking if some PAW data can be deallocated... 

     total cpu time spent up to now is      179.0 secs

     Self-consistent Calculation

     iteration #  1     ecut=    77.00 Ry     beta= 0.20
     Davidson diagonalization with overlap
     ethr =  1.00E-02,  avg # of iterations =  2.0

     Threshold (ethr) on eigenvalues was too large:
     Diagonalizing with lowered threshold

     Davidson diagonalization with overlap
     ethr =  1.62E-04,  avg # of iterations = 15.8

     negative rho (up, down):  2.401E-04 0.000E+00

     total cpu time spent up to now is     2248.7 secs

     total energy              =  -33980.24768580 Ry
     estimated scf accuracy    <       6.52239835 Ry

     iteration #  2     ecut=    77.00 Ry     beta= 0.20
     Davidson diagonalization with overlap
     ethr =  3.81E-04,  avg # of iterations =  1.8

     negative rho (up, down):  2.508E-05 0.000E+00

     total cpu time spent up to now is     2647.9 secs

     total energy              =  -33978.90318405 Ry
     estimated scf accuracy    <       3.41181282 Ry

     iteration #  3     ecut=    77.00 Ry     beta= 0.20
     Davidson diagonalization with overlap
     ethr =  1.99E-04,  avg # of iterations = 15.0

     negative rho (up, down):  1.644E-05 0.000E+00

     total cpu time spent up to now is     3197.8 secs

     total energy              =  -33979.30738369 Ry
     estimated scf accuracy    <       0.87852430 Ry

     iteration #  4     ecut=    77.00 Ry     beta= 0.20
     Davidson diagonalization with overlap
     ethr =  5.13E-05,  avg # of iterations = 17.5

     negative rho (up, down):  1.859E-05 0.000E+00

     total cpu time spent up to now is     4372.6 secs

     total energy              =  -33980.07687165 Ry
     estimated scf accuracy    <       0.35231091 Ry

     iteration #  5     ecut=    77.00 Ry     beta= 0.20
     Davidson diagonalization with overlap
     ethr =  2.06E-05,  avg # of iterations = 14.5

     negative rho (up, down):  4.995E-05 0.000E+00

     total cpu time spent up to now is     5129.7 secs

     total energy              =  -33980.20098667 Ry
     estimated scf accuracy    <       0.20611184 Ry

     iteration #  6     ecut=    77.00 Ry     beta= 0.20
     Davidson diagonalization with overlap
     c_bands:  1 eigenvalues not converged
     ethr =  1.20E-05,  avg # of iterations = 15.2

     negative rho (up, down):  2.048E-04 0.000E+00

     total cpu time spent up to now is     5622.0 secs

     total energy              =  -33980.18740821 Ry
     estimated scf accuracy    <       0.12234957 Ry

     iteration #  7     ecut=    77.00 Ry     beta= 0.20
     Davidson diagonalization with overlap
     c_bands:  5 eigenvalues not converged
     ethr =  7.14E-06,  avg # of iterations = 17.0

     negative rho (up, down):  6.648E-04 0.000E+00

     total cpu time spent up to now is     6353.6 secs

     total energy              =  -33980.25135850 Ry
     estimated scf accuracy    <       0.06102976 Ry

     iteration #  8     ecut=    77.00 Ry     beta= 0.20
     Davidson diagonalization with overlap
     c_bands:  2 eigenvalues not converged
     c_bands:  3 eigenvalues not converged
     c_bands:  2 eigenvalues not converged
     ethr =  3.56E-06,  avg # of iterations = 40.2

     negative rho (up, down):  4.819E-04 0.000E+00

     total cpu time spent up to now is     7699.7 secs

     total energy              =  -33980.25527396 Ry
     estimated scf accuracy    <       0.05341398 Ry

     iteration #  9     ecut=    77.00 Ry     beta= 0.20
     Davidson diagonalization with overlap
     c_bands:  1 eigenvalues not converged
     c_bands:  3 eigenvalues not converged
     c_bands:  4 eigenvalues not converged
     ethr =  3.12E-06,  avg # of iterations = 26.5

     negative rho (up, down):  4.534E-04 0.000E+00

     total cpu time spent up to now is     8388.1 secs

     total energy              =  -33980.26073877 Ry
     estimated scf accuracy    <       0.00456747 Ry

     iteration # 10     ecut=    77.00 Ry     beta= 0.20
     Davidson diagonalization with overlap
     c_bands:  2 eigenvalues not converged
     c_bands:  4 eigenvalues not converged
     c_bands:  1 eigenvalues not converged
     ethr =  2.66E-07,  avg # of iterations = 55.5

     negative rho (up, down):  5.049E-04 0.000E+00

     total cpu time spent up to now is    11081.9 secs

     total energy              =  -33980.27676003 Ry
     estimated scf accuracy    <       0.01120686 Ry

     iteration # 11     ecut=    77.00 Ry     beta= 0.20
     Davidson diagonalization with overlap
     ethr =  2.66E-07,  avg # of iterations =  4.2

     negative rho (up, down):  7.555E-04 0.000E+00

     total cpu time spent up to now is    11487.5 secs

     total energy              =  -33980.27284260 Ry
     estimated scf accuracy    <       0.00579420 Ry

     iteration # 12     ecut=    77.00 Ry     beta= 0.20
     Davidson diagonalization with overlap
     ethr =  2.66E-07,  avg # of iterations =  7.8

     negative rho (up, down):  7.912E-04 0.000E+00

     total cpu time spent up to now is    12324.0 secs

     total energy              =  -33980.27671609 Ry
     estimated scf accuracy    <       0.00387975 Ry

     iteration # 13     ecut=    77.00 Ry     beta= 0.20
     Davidson diagonalization with overlap
     ethr =  2.26E-07,  avg # of iterations =  1.0

     negative rho (up, down):  8.074E-04 0.000E+00

     total cpu time spent up to now is    12694.5 secs

     total energy              =  -33980.27605515 Ry
     estimated scf accuracy    <       0.00150949 Ry

     iteration # 14     ecut=    77.00 Ry     beta= 0.20
     Davidson diagonalization with overlap
     ethr =  8.81E-08,  avg # of iterations =  7.0

     negative rho (up, down):  8.226E-04 0.000E+00

     total cpu time spent up to now is    13166.2 secs

     total energy              =  -33980.27620185 Ry
     estimated scf accuracy    <       0.00020663 Ry

     iteration # 15     ecut=    77.00 Ry     beta= 0.20
     Davidson diagonalization with overlap
     c_bands:  4 eigenvalues not converged
     ethr =  1.21E-08,  avg # of iterations = 19.0

     negative rho (up, down):  8.137E-04 0.000E+00

     total cpu time spent up to now is    14992.0 secs

     total energy              =  -33980.27693389 Ry
     estimated scf accuracy    <       0.00022043 Ry

     iteration # 16     ecut=    77.00 Ry     beta= 0.20
     Davidson diagonalization with overlap
     ethr =  1.21E-08,  avg # of iterations =  5.0

     negative rho (up, down):  8.178E-04 0.000E+00

     total cpu time spent up to now is    15418.9 secs

     total energy              =  -33980.27690507 Ry
     estimated scf accuracy    <       0.00031647 Ry

     iteration # 17     ecut=    77.00 Ry     beta= 0.20
     Davidson diagonalization with overlap
     ethr =  1.21E-08,  avg # of iterations =  1.0

     negative rho (up, down):  8.745E-04 0.000E+00

     total cpu time spent up to now is    15789.4 secs

     total energy              =  -33980.27668227 Ry
     estimated scf accuracy    <       0.00026327 Ry

     iteration # 18     ecut=    77.00 Ry     beta= 0.20
     Davidson diagonalization with overlap
     ethr =  1.21E-08,  avg # of iterations = 12.8

     negative rho (up, down):  8.715E-04 0.000E+00

     total cpu time spent up to now is    16553.1 secs

     total energy              =  -33980.27677292 Ry
     estimated scf accuracy    <       0.00013237 Ry

     iteration # 19     ecut=    77.00 Ry     beta= 0.20
     Davidson diagonalization with overlap
     ethr =  7.72E-09,  avg # of iterations =  4.0

     negative rho (up, down):  8.775E-04 0.000E+00

     total cpu time spent up to now is    16970.0 secs

     total energy              =  -33980.27676590 Ry
     estimated scf accuracy    <       0.00002163 Ry

     iteration # 20     ecut=    77.00 Ry     beta= 0.20
     Davidson diagonalization with overlap
     c_bands:  3 eigenvalues not converged
     c_bands:  4 eigenvalues not converged
     c_bands:  1 eigenvalues not converged
     ethr =  1.26E-09,  avg # of iterations = 24.5

     negative rho (up, down):  8.844E-04 0.000E+00

     total cpu time spent up to now is    18217.4 secs

     total energy              =  -33980.27679438 Ry
     estimated scf accuracy    <       0.00000989 Ry

     iteration # 21     ecut=    77.00 Ry     beta= 0.20
     Davidson diagonalization with overlap
     c_bands:  5 eigenvalues not converged
     ethr =  5.77E-10,  avg # of iterations = 18.8

     negative rho (up, down):  8.865E-04 0.000E+00

     total cpu time spent up to now is    18882.5 secs

     total energy              =  -33980.27679709 Ry
     estimated scf accuracy    <       0.00000152 Ry

     iteration # 22     ecut=    77.00 Ry     beta= 0.20
     Davidson diagonalization with overlap
     c_bands:  2 eigenvalues not converged
     ethr =  8.87E-11,  avg # of iterations = 19.2

     negative rho (up, down):  8.873E-04 0.000E+00

     total cpu time spent up to now is    21074.9 secs

     total energy              =  -33980.27679640 Ry
     estimated scf accuracy    <       0.00001442 Ry

     iteration # 23     ecut=    77.00 Ry     beta= 0.20
     Davidson diagonalization with overlap
     ethr =  8.87E-11,  avg # of iterations = 12.5

     negative rho (up, down):  8.922E-04 0.000E+00

     total cpu time spent up to now is    22017.2 secs

     End of self-consistent calculation

          k = 0.0000 0.0000 0.0000 (386245 PWs)   bands (ev):

  -102.4536 -88.8847 -70.7854 -70.7842 -70.7603 -70.7555 -70.7415 -70.7305
   -70.7174 -66.6566 -66.6566 -66.6553 -66.6510 -66.6370 -66.6355 -66.6354
   -66.6353 -66.6353 -66.6353 -66.6353 -66.6353 -66.6353 -66.6353 -66.6352
   -66.6352 -66.6350 -66.6340 -66.6340 -66.6340 -66.6340 -66.6340 -66.6340
   -66.6326 -66.6296 -66.6230 -66.6179 -66.6157 -66.6142 -66.6141 -66.6140
   -66.6140 -66.6140 -66.6139 -66.6139 -66.6139 -66.6139 -66.6139 -66.6139
   -66.6139 -66.6139 -66.6138 -66.6138 -66.6137 -66.6136 -66.6135 -66.6126
   -66.6126 -66.6126 -66.6126 -66.6126 -66.6126 -66.6126 -66.6125 -66.6125
   -66.6103 -66.6032 -66.6002 -66.5978 -66.5958 -66.5933 -66.5845 -66.5688
   -66.5577 -56.7493 -56.6723 -56.6314 -54.7085 -54.6994 -54.6254 -40.9841
   -40.9840 -40.9840 -40.9840 -40.9840 -40.9839 -40.9833 -40.9833 -40.9833
   -40.9712 -40.9690 -40.9627 -40.9088 -40.9087 -40.9087 -40.9087 -40.9087
   -40.9087 -40.9087 -40.9087 -40.9087 -40.9086 -40.9086 -40.9085 -40.9080
   -40.9080 -40.9080 -40.9080 -40.9080 -40.9080 -40.8992 -40.8957 -40.8907
   -40.8849 -40.8804 -40.8787 -40.8197 -40.8163 -40.8162 -40.8156 -40.7969
   -40.7825 -40.7824 -40.7824 -40.7824 -40.7824 -40.7824 -40.7823 -40.7823
   -40.7823 -40.7823 -40.7823 -40.7821 -40.7815 -40.7815 -40.7815 -40.7815
   -40.7815 -40.7815 -40.7786 -40.7755 -40.7751 -40.7748 -40.7747 -40.7746
   -40.7746 -40.7746 -40.7746 -40.7745 -40.7745 -40.7745 -40.7744 -40.7744
   -40.7743 -40.7739 -40.7739 -40.7739 -40.7739 -40.7738 -40.7738 -40.7737
   -40.7713 -40.7686 -40.7660 -40.7630 -40.7599 -40.7563 -40.7480 -40.7475
   -40.7474 -40.7473 -40.7473 -40.7473 -40.7473 -40.7473 -40.7473 -40.7473
   -40.7473 -40.7472 -40.7471 -40.7464 -40.7464 -40.7464 -40.7464 -40.7464
   -40.7464 -40.7423 -40.7407 -40.7380 -40.7375 -40.7328 -40.7328 -40.7328
   -40.7326 -40.7326 -40.7326 -40.7326 -40.7326 -40.7326 -40.7326 -40.7326
   -40.7325 -40.7325 -40.7325 -40.7325 -40.7325 -40.7324 -40.7323 -40.7321
   -40.7319 -40.7319 -40.7319 -40.7319 -40.7318 -40.7318 -40.7318 -40.7318
   -40.7318 -40.7302 -40.7280 -40.7277 -40.7270 -40.7228 -40.7188 -40.7167
   -40.7159 -40.7139 -40.7087 -40.6690 -40.6690 -40.6690 -40.6690 -40.6689
   -40.6689 -40.6680 -40.6680 -40.6680 -40.6536 -40.6496 -40.6471 -40.6220
   -40.6219 -40.6219 -40.6219 -40.6219 -40.6219 -40.6219 -40.6219 -40.6218
   -40.6217 -40.6217 -40.6216 -40.6209 -40.6209 -40.6208 -40.6208 -40.6208
   -40.6208 -40.6071 -40.6017 -40.6001 -40.5969 -40.5950 -40.5898 -40.5743
   -40.5743 -40.5742 -40.5742 -40.5732 -40.5732 -40.5498 -40.5429 -20.2120
   -20.1298 -20.0281 -19.9216 -19.6008 -19.3579 -19.3214 -19.2854 -19.2825
   -19.2797 -19.2702 -19.2639 -19.2590 -19.2329 -19.2256 -19.2161 -19.1835
   -19.1733 -19.1691 -19.1510 -19.1436 -19.1303 -19.0785 -19.0728 -19.0711
   -19.0651 -19.0622 -19.0557 -18.9373 -18.8321 -18.7603 -18.6579 -18.5984
   -18.5849 -18.5417 -18.5353 -18.5095 -18.5011 -18.4810 -18.4646 -18.4511
   -18.4436 -18.4263 -18.3933 -18.3683 -18.3600 -18.3208 -18.3160 -18.3096
   -18.2826 -18.2728 -18.2699 -18.2235 -18.2175 -18.2154 -18.2063 -18.2052
   -18.2040 -18.1707 -18.1573 -18.1547 -18.1538 -18.1525 -18.1517 -18.1500
   -18.1340 -18.1239 -18.1205 -18.1173 -18.1142 -18.1138 -18.1095 -18.1091
   -18.1073 -18.0973 -18.0826 -18.0817 -18.0809 -18.0779 -18.0744 -18.0656
   -18.0607 -18.0596 -18.0477 -18.0415 -18.0364 -18.0361 -18.0309 -18.0289
   -18.0190 -18.0159 -18.0152 -17.9894 -17.9779 -17.9745 -17.9633 -17.9512
   -17.9497 -17.9483 -17.9465 -17.9450 -17.9278 -17.9247 -17.9211 -17.9104
   -17.9063 -17.9016 -17.9002 -17.8964 -17.8937 -17.8896 -17.8879 -17.8870
   -17.8735 -17.8730 -17.8721 -17.8609 -17.8594 -17.8563 -17.8548 -17.8526
   -17.8499 -17.8293 -17.8292 -17.8280 -17.8275 -17.8265 -17.8253 -12.2158
   -12.0324 -11.9768 -11.9089 -11.8457 -11.8293 -11.8169 -11.8027 -11.7170
   -11.7059 -11.6967 -11.6082 -11.5903 -11.5852 -11.5606 -11.4114 -11.3748
   -11.3616 -11.2865 -11.2722 -11.2704 -11.2681 -11.2630 -11.2524 -11.2049
   -11.1816 -11.1686 -11.1661 -11.1617 -11.1609 -11.1561 -11.1446 -11.1308
   -11.1224 -11.1048 -11.1040 -11.0977 -11.0908 -11.0903 -11.0868 -11.0776
   -11.0738 -11.0664 -11.0567 -11.0514 -11.0249 -11.0103 -10.9950 -10.9902
   -10.9806 -10.9725 -10.9661 -10.9492 -10.9304 -10.9265 -10.9237 -10.9160
   -10.9148 -10.9064 -10.8885 -10.8824 -10.8814 -10.8775 -10.8750 -10.8649
   -10.8633 -10.8620 -10.8600 -10.8590 -10.8509 -10.8406 -10.8390 -10.8362
   -10.8361 -10.8340 -10.8313 -10.8119 -10.8109 -10.8093 -10.8072 -10.8044
   -10.8012 -10.7965 -10.7855 -10.7821 -10.7702 -10.7701 -10.7692 -10.7679
   -10.7651 -10.7632 -10.7018 -10.6947 -10.6899 -10.6528 -10.6354 -10.6272
   -10.6155 -10.6108 -10.6081 -10.5593 -10.4367 -10.3660 -10.2077 -10.1989
   -10.1649 -10.1190  -9.9982  -9.9818  -9.9599  -9.9257  -9.8608  -9.8501
    -9.8405  -9.8373  -9.8361  -9.8262  -9.8123  -9.8053  -9.8034  -9.8026
    -9.7988  -9.7949  -9.7933  -9.7894  -9.7841  -9.7805  -9.7775  -9.7712
    -9.7670  -9.7571  -9.7392  -9.7277  -9.6884  -9.6630  -9.6614  -9.6597
    -9.6583  -9.6567  -9.6508  -9.6505  -9.6499  -9.6494  -9.6488  -9.6472
    -9.6416  -9.6332  -9.6248  -9.6103  -9.5829  -9.5742  -9.5740  -9.5738
    -9.5735  -9.5732  -9.5722  -9.5690  -9.5585  -9.5483  -9.5467  -9.5342
    -9.5330  -9.5092  -9.5015  -9.4832  -9.4772  -9.4228  -9.3988  -9.3932
    -9.3858  -9.3824  -9.3793  -9.3727  -9.3627  -9.3610  -9.3557  -9.3426
    -9.3354  -9.3215  -9.2845  -9.2770  -9.2727  -9.2610  -9.2564  -9.2389
    -9.2310  -9.2168  -9.2149  -9.2131  -9.2118  -9.2101  -9.2055  -9.1783
    -9.1647  -9.1610  -9.1404  -9.1315  -9.1193  -9.0994  -9.0736  -9.0324
    -9.0145  -9.0139  -9.0116  -8.9896  -8.9865  -8.9810  -8.9792  -8.9752
    -8.9659  -8.9572  -8.9496  -8.9490  -8.9473  -8.9406  -8.9262  -8.9238
    -8.9146  -8.9095  -8.8909  -8.8537  -8.8536  -8.8532  -8.8531  -8.8529
    -8.8525  -8.7897  -8.7827  -8.7821  -8.7743  -8.7682  -8.7594  -8.7075
    -8.7013  -8.6981  -8.6936  -8.6871  -8.6813  -8.6758  -8.6288  -8.6258
    -8.6245  -8.6239  -8.6217  -8.6201  -8.5816  -8.5590  -8.4448  -8.4198
    -8.3988  -8.3988  -8.3941  -8.3940  -8.3878  -8.3875  -8.3848  -8.3770
    -8.3646  -8.3212  -8.3134  -8.3087  -8.3083  -8.3079  -8.3079  -8.3036
    -8.2967  -8.2833  -8.2819  -8.2811  -8.2809  -8.2769  -8.2726  -8.2555
    -8.2537  -8.2532  -8.2530  -8.2515  -8.2503  -8.2324  -8.1957  -8.1469
    -8.0236  -7.9586  -7.8925  -7.8908  -7.8890  -7.8159  -7.8085  -7.7997
    -7.7759  -7.7426  -7.7247  -7.7162  -7.6796  -7.6738  -7.6728  -7.6576
    -7.6555  -7.6521  -7.6452  -7.6334  -7.6322  -7.6111  -7.6063  -7.6001
    -7.5907  -7.5766  -7.5731  -7.5712  -7.5668  -7.5663  -7.5655  -7.5652
    -7.5617  -7.5553  -7.5406  -7.5404  -7.5386  -7.5386  -7.5369  -7.5318
    -7.5226  -7.5170  -7.5148  -7.5144  -7.5142  -7.5135  -7.5119  -7.5060
    -7.4947  -7.4812  -7.4616  -7.4549  -7.4477  -7.4448  -7.4432  -7.4391
    -7.4367  -7.4309  -7.3886  -7.3821  -7.3776  -7.3616  -7.3466  -7.3418
    -7.3412  -7.3356  -7.3277  -7.3245  -7.3197  -7.3185  -7.3163  -7.2991
    -7.2827  -7.2820  -7.2713  -7.2641  -7.2627  -7.2459  -7.2456  -7.2044
    -7.1926  -7.1666  -7.1469  -7.1389  -7.1219  -7.0998  -7.0635  -7.0184
    -6.9940  -6.9614  -6.9157  -6.8969  -6.8918  -6.8759  -6.8577  -6.8228
    -6.8121  -6.8112  -6.8075  -6.7715  -6.7527  -6.7325  -6.7299  -6.7237
    -6.7027  -6.6873  -6.6701  -6.6619  -6.6551  -6.6540  -6.6439  -6.6397
    -6.6186  -6.6091  -6.6010  -6.5964  -6.5866  -6.5720  -6.5651  -6.5530
    -6.5499  -6.5467  -6.5453  -6.5425  -6.5394  -6.5386  -6.5380  -6.5358
    -6.5298  -6.5296  -6.5295  -6.5293  -6.5291  -6.5287  -6.5136  -6.5079
    -6.4892  -6.4751  -6.4686  -6.4515  -6.4419  -6.4412  -6.4367  -6.4244
    -6.3851  -6.3733  -6.3710  -6.3663  -6.3646  -6.3622  -6.3582  -6.3522
    -6.3453  -6.3329  -6.3261  -6.3216  -6.3198  -6.3170  -6.3111  -6.3001
    -6.2883  -6.2853  -6.2847  -6.2837  -6.2820  -6.2784  -6.2632  -6.2080
    -6.0789  -5.9338  -5.8472  -5.6764  -5.5667  -5.4469  -5.4046  -5.3357
    -5.1827  -4.3789  -3.9347  -3.8853  -3.8805  -3.8777  -3.8770  -3.8631
    -3.8598  -3.8576  -3.8573  -3.8532  -3.8519  -3.8361  -3.7914  -3.7359
    -3.7284  -3.7165  -3.7155  -3.7142  -3.7096  -3.7058  -3.7033  -3.7027
    -3.6999  -3.6151  -3.5738  -3.5441  -3.5389  -3.5319  -3.5233  -3.5231
    -3.5112  -3.5093  -3.5061  -3.5038  -3.5031  -3.5000  -3.4966  -3.4864
    -3.4811  -3.4772  -3.4767  -3.4743  -3.4739  -3.4739  -3.4626  -3.4593
    -3.4588  -3.4549  -3.4485  -3.4426  -3.4423  -3.4414  -3.4374  -3.4358
    -3.4327  -3.4313  -3.4292  -3.4200  -3.4177  -3.3868  -3.3802  -3.3786
    -3.3774  -3.3748  -3.3738  -3.3706  -3.3674  -3.3634  -3.3588  -3.3480
    -3.3383  -3.3284  -3.3172  -3.3155  -3.3115  -3.3072  -3.2980  -3.2941
    -3.2475  -3.2445  -3.2329  -3.2300  -3.2275  -3.1178  -3.0981  -3.0962
    -3.0921  -3.0913  -3.0894  -3.0836  -3.0767  -3.0743  -3.0720  -3.0407
    -3.0211  -3.0151  -3.0075  -3.0046  -3.0034  -3.0016  -3.0010  -2.9979
    -2.9947  -2.9945  -2.9943  -2.9916  -2.9864  -2.9859  -2.9811  -2.9768
    -2.9710  -2.9672  -2.9662  -2.9626  -2.9606  -2.9583  -2.9580  -2.9578
    -2.9573  -2.9544  -2.9521  -2.9277  -2.9167  -2.9110  -2.9017  -2.8953
    -2.8882  -2.8778  -2.8704  -2.8575  -2.8364  -2.8352  -2.8348  -2.8345
    -2.8343  -2.8341  -2.8338  -2.8333  -2.8329  -2.8186  -2.8171  -2.8136
    -2.7866  -2.7793  -2.7674  -2.7640  -2.7600  -2.7521  -2.7472  -2.7021
    -2.6963  -2.6705  -2.6678  -2.6595  -2.6559  -2.6535  -2.6510  -2.6466
    -2.6451  -2.6286  -2.5966  -2.5852  -2.5746  -2.5724  -2.5660  -2.4642
    -2.4492  -2.4435  -2.4388  -2.4370

          k = 0.0000-0.5773 0.0000 (386352 PWs)   bands (ev):

  -102.4536 -88.8847 -70.7854 -70.7842 -70.7603 -70.7555 -70.7415 -70.7305
   -70.7174 -66.6504 -66.6504 -66.6504 -66.6502 -66.6491 -66.6491 -66.6488
   -66.6425 -66.6397 -66.6397 -66.6397 -66.6397 -66.6384 -66.6384 -66.6312
   -66.6265 -66.6247 -66.6246 -66.6246 -66.6246 -66.6246 -66.6245 -66.6245
   -66.6245 -66.6234 -66.6233 -66.6233 -66.6233 -66.6233 -66.6202 -66.6202
   -66.6202 -66.6200 -66.6192 -66.6189 -66.6188 -66.6162 -66.6141 -66.6140
   -66.6139 -66.6139 -66.6139 -66.6139 -66.6138 -66.6137 -66.6126 -66.6126
   -66.6126 -66.6125 -66.6095 -66.6095 -66.6094 -66.6094 -66.6088 -66.6081
   -66.6081 -66.6019 -66.6007 -66.5983 -66.5973 -66.5926 -66.5845 -66.5689
   -66.5577 -56.7493 -56.6723 -56.6314 -54.7085 -54.6994 -54.6254 -40.9525
   -40.9524 -40.9524 -40.9524 -40.9524 -40.9524 -40.9523 -40.9523 -40.9517
   -40.9517 -40.9517 -40.9517 -40.9469 -40.9371 -40.9316 -40.9285 -40.9256
   -40.9256 -40.9256 -40.9254 -40.9249 -40.9248 -40.9183 -40.9135 -40.9135
   -40.9135 -40.9135 -40.9128 -40.9128 -40.9109 -40.8940 -40.8750 -40.8628
   -40.8628 -40.8628 -40.8628 -40.8628 -40.8628 -40.8628 -40.8628 -40.8620
   -40.8620 -40.8620 -40.8620 -40.8484 -40.8390 -40.8357 -40.8352 -40.8134
   -40.8042 -40.8041 -40.8041 -40.8039 -40.8034 -40.8034 -40.7996 -40.7950
   -40.7946 -40.7945 -40.7945 -40.7945 -40.7937 -40.7937 -40.7832 -40.7832
   -40.7832 -40.7832 -40.7825 -40.7825 -40.7808 -40.7758 -40.7709 -40.7610
   -40.7576 -40.7536 -40.7536 -40.7536 -40.7536 -40.7536 -40.7536 -40.7535
   -40.7535 -40.7529 -40.7529 -40.7529 -40.7529 -40.7524 -40.7495 -40.7477
   -40.7449 -40.7449 -40.7449 -40.7447 -40.7442 -40.7441 -40.7361 -40.7356
   -40.7331 -40.7331 -40.7331 -40.7330 -40.7327 -40.7326 -40.7326 -40.7326
   -40.7326 -40.7325 -40.7324 -40.7324 -40.7322 -40.7322 -40.7318 -40.7318
   -40.7318 -40.7318 -40.7308 -40.7256 -40.7239 -40.7239 -40.7238 -40.7238
   -40.7231 -40.7231 -40.7204 -40.7173 -40.7166 -40.7126 -40.7075 -40.7023
   -40.7022 -40.7021 -40.7021 -40.7021 -40.7021 -40.7020 -40.7018 -40.7012
   -40.7012 -40.7012 -40.7011 -40.6893 -40.6883 -40.6821 -40.6780 -40.6674
   -40.6674 -40.6674 -40.6674 -40.6674 -40.6674 -40.6673 -40.6673 -40.6664
   -40.6664 -40.6664 -40.6664 -40.6553 -40.6553 -40.6552 -40.6551 -40.6542
   -40.6542 -40.6528 -40.6471 -40.6437 -40.6403 -40.6360 -40.6360 -40.6359
   -40.6359 -40.6357 -40.6349 -40.6349 -40.6241 -40.6200 -40.6189 -40.6189
   -40.6189 -40.6188 -40.6179 -40.6179 -40.6099 -40.5918 -40.5883 -40.5883
   -40.5882 -40.5881 -40.5872 -40.5872 -40.5815 -40.5724 -40.5552 -20.0764
   -19.9194 -19.9001 -19.8592 -19.8018 -19.7685 -19.6919 -19.6786 -19.5384
   -19.4896 -19.4602 -19.4385 -19.3685 -19.3500 -19.2648 -19.2564 -19.0911
   -18.9291 -18.8420 -18.8113 -18.7875 -18.7714 -18.7562 -18.7528 -18.7506
   -18.7387 -18.7155 -18.6918 -18.6852 -18.6788 -18.6699 -18.6529 -18.6286
   -18.6086 -18.6027 -18.5867 -18.5832 -18.5785 -18.5603 -18.5523 -18.5403
   -18.5097 -18.5072 -18.5058 -18.4992 -18.4692 -18.4448 -18.4390 -18.4351
   -18.4103 -18.4027 -18.3944 -18.3656 -18.3537 -18.3508 -18.3197 -18.2843
   -18.2791 -18.2754 -18.2620 -18.2317 -18.2292 -18.2085 -18.1975 -18.1636
   -18.1525 -18.1448 -18.1420 -18.1338 -18.1324 -18.1302 -18.1290 -18.1161
   -18.1056 -18.1018 -18.0998 -18.0969 -18.0960 -18.0855 -18.0794 -18.0771
   -18.0713 -18.0687 -18.0591 -18.0416 -18.0403 -18.0351 -18.0324 -18.0295
   -18.0279 -18.0248 -18.0175 -18.0171 -18.0074 -17.9783 -17.9759 -17.9677
   -17.9651 -17.9580 -17.9483 -17.9229 -17.9218 -17.9127 -17.9030 -17.8815
   -17.8798 -17.8746 -17.8672 -17.8635 -17.8530 -17.8510 -17.8503 -17.8500
   -17.8488 -17.8471 -17.8410 -17.8355 -17.8319 -17.8158 -17.8128 -17.7918
   -17.7895 -17.7727 -17.7693 -17.7583 -17.7558 -17.7509 -17.7505 -12.1370
   -11.8785 -11.7575 -11.7437 -11.6922 -11.5963 -11.5614 -11.5463 -11.5394
   -11.5316 -11.5252 -11.5104 -11.5003 -11.4928 -11.4771 -11.4484 -11.4271
   -11.4220 -11.4083 -11.3902 -11.3874 -11.3620 -11.3541 -11.3480 -11.3276
   -11.3143 -11.3083 -11.3025 -11.2930 -11.2898 -11.2868 -11.2835 -11.2777
   -11.2406 -11.2355 -11.2283 -11.2229 -11.2178 -11.2010 -11.2000 -11.1977
   -11.1885 -11.1779 -11.1768 -11.1603 -11.1493 -11.1285 -11.1036 -11.0926
   -11.0921 -11.0704 -11.0268 -11.0045 -10.9973 -10.9675 -10.9573 -10.9535
   -10.9530 -10.9318 -10.9213 -10.9093 -10.8903 -10.8839 -10.8669 -10.8641
   -10.8587 -10.8529 -10.8448 -10.8429 -10.8423 -10.8408 -10.8395 -10.8319
   -10.8273 -10.8253 -10.8245 -10.8230 -10.8221 -10.8153 -10.8149 -10.8116
   -10.8095 -10.7754 -10.7749 -10.7742 -10.7739 -10.7048 -10.6280 -10.5722
   -10.5681 -10.5624 -10.5378 -10.5131 -10.5002 -10.4677 -10.4194 -10.3801
   -10.3101 -10.2781 -10.2653 -10.2037 -10.1815 -10.1644 -10.1630 -10.1458
   -10.1357 -10.1188 -10.1171 -10.0863 -10.0780 -10.0673 -10.0638 -10.0609
   -10.0551 -10.0476 -10.0431 -10.0186 -10.0014  -9.9700  -9.9594  -9.9583
    -9.9440  -9.9369  -9.9293  -9.9224  -9.9124  -9.8931  -9.8848  -9.8773
    -9.8671  -9.8431  -9.8247  -9.8108  -9.8051  -9.7955  -9.7949  -9.7644
    -9.7616  -9.7366  -9.7294  -9.7158  -9.7107  -9.6862  -9.6803  -9.6492
    -9.6457  -9.6434  -9.6374  -9.6199  -9.6000  -9.5896  -9.5803  -9.5710
    -9.5684  -9.5626  -9.5537  -9.5235  -9.5212  -9.5158  -9.5036  -9.5024
    -9.4971  -9.4919  -9.4901  -9.4852  -9.4700  -9.4621  -9.4530  -9.4151
    -9.3880  -9.3873  -9.3687  -9.3207  -9.3041  -9.2921  -9.2509  -9.2472
    -9.2385  -9.2362  -9.2312  -9.2191  -9.1966  -9.1842  -9.1726  -9.1612
    -9.1553  -9.1461  -9.1321  -9.1105  -9.1000  -9.0867  -9.0754  -9.0722
    -9.0668  -9.0575  -9.0522  -9.0229  -9.0132  -9.0086  -8.9997  -8.9849
    -8.9778  -8.9751  -8.9709  -8.9531  -8.9386  -8.9237  -8.9210  -8.9202
    -8.9173  -8.9135  -8.9061  -8.9024  -8.9006  -8.8994  -8.8951  -8.8896
    -8.8869  -8.8839  -8.8795  -8.8740  -8.8713  -8.8708  -8.8616  -8.8489
    -8.8360  -8.8245  -8.8207  -8.8199  -8.8181  -8.8139  -8.8127  -8.7944
    -8.7913  -8.7663  -8.7646  -8.7606  -8.7580  -8.7526  -8.7437  -8.7297
    -8.6881  -8.6779  -8.6577  -8.6244  -8.6186  -8.5365  -8.5339  -8.4905
    -8.4862  -8.4725  -8.4401  -8.3971  -8.3890  -8.3763  -8.3321  -8.3030
    -8.2815  -8.2163  -8.1633  -8.1591  -8.1582  -8.1506  -8.1491  -8.1393
    -8.1383  -8.1251  -8.0973  -8.0939  -8.0417  -8.0067  -8.0019  -7.9796
    -7.9529  -7.9228  -7.8851  -7.8771  -7.8719  -7.8694  -7.8632  -7.8580
    -7.8484  -7.8431  -7.8384  -7.8329  -7.8314  -7.8290  -7.8244  -7.8230
    -7.8196  -7.8165  -7.8144  -7.8126  -7.8080  -7.8013  -7.8007  -7.7983
    -7.7963  -7.7957  -7.7947  -7.7896  -7.7890  -7.7840  -7.7755  -7.7686
    -7.7657  -7.7586  -7.7569  -7.7502  -7.7455  -7.7279  -7.7273  -7.7266
    -7.7260  -7.6986  -7.6979  -7.6975  -7.6955  -7.6880  -7.6832  -7.6777
    -7.6661  -7.6541  -7.6452  -7.6391  -7.6385  -7.6368  -7.6309  -7.6267
    -7.6243  -7.6162  -7.6133  -7.6046  -7.5952  -7.5942  -7.5860  -7.5833
    -7.5729  -7.5642  -7.5105  -7.4926  -7.4889  -7.4857  -7.4839  -7.4658
    -7.4248  -7.3775  -7.3225  -7.2626  -7.2305  -7.2027  -7.2022  -7.1992
    -7.1914  -7.1753  -7.1540  -7.1511  -7.1439  -7.1368  -7.1309  -7.1016
    -7.0773  -7.0741  -7.0660  -7.0585  -7.0527  -7.0274  -7.0173  -7.0153
    -7.0075  -6.9998  -6.9713  -6.9489  -6.9459  -6.9290  -6.9203  -6.9104
    -6.9009  -6.8911  -6.8890  -6.8714  -6.8618  -6.8464  -6.8310  -6.8030
    -6.7967  -6.7802  -6.7466  -6.7099  -6.7002  -6.6861  -6.6818  -6.6595
    -6.6524  -6.6408  -6.6382  -6.6364  -6.6355  -6.6350  -6.6229  -6.6192
    -6.6183  -6.6180  -6.6115  -6.6102  -6.6100  -6.6100  -6.6057  -6.5661
    -6.5628  -6.5412  -6.5122  -6.4870  -6.4618  -6.4413  -6.4227  -6.3576
    -6.3553  -6.3508  -6.3486  -6.3377  -6.3312  -6.3090  -6.3083  -6.3056
    -6.3042  -6.3029  -6.3008  -6.2883  -6.2830  -6.2770  -6.2670  -6.2566
    -6.2420  -6.2365  -6.2346  -6.2259  -6.2193  -6.1294  -6.0437  -6.0260
    -6.0070  -5.9979  -5.9616  -5.9420  -5.9299  -5.8877  -5.8815  -5.8676
    -5.7794  -5.7665  -5.7103  -5.6755  -5.6287  -5.6224  -5.5066  -5.4330
    -5.3669  -4.4011  -4.1283  -4.1199  -4.1167  -4.0964  -3.9767  -3.9597
    -3.9528  -3.9443  -3.9381  -3.8939  -3.8731  -3.8715  -3.8588  -3.8546
    -3.8422  -3.8382  -3.8291  -3.8276  -3.8249  -3.7708  -3.7386  -3.7145
    -3.7104  -3.6711  -3.6456  -3.6330  -3.6300  -3.6289  -3.6246  -3.5831
    -3.5811  -3.5776  -3.5731  -3.5513  -3.5480  -3.5451  -3.5427  -3.5347
    -3.5269  -3.5113  -3.5074  -3.5045  -3.5010  -3.4999  -3.4976  -3.4848
    -3.4750  -3.4732  -3.4621  -3.4536  -3.4491  -3.4437  -3.4327  -3.4033
    -3.4005  -3.3838  -3.3786  -3.3760  -3.3728  -3.3722  -3.3689  -3.3661
    -3.3375  -3.3322  -3.3204  -3.3174  -3.3128  -3.3105  -3.3097  -3.3059
    -3.3044  -3.3012  -3.2872  -3.2746  -3.2655  -3.2646  -3.2623  -3.2534
    -3.2513  -3.2429  -3.2395  -3.2385  -3.2283  -3.2216  -3.2154  -3.2092
    -3.1984  -3.1956  -3.1938  -3.1915  -3.1915  -3.1857  -3.1624  -3.1338
    -3.1250  -3.1173  -3.1016  -3.0979  -3.0933  -3.0917  -3.0892  -3.0541
    -3.0537  -3.0522  -3.0515  -3.0509  -3.0502  -3.0413  -3.0400  -3.0395
    -3.0356  -3.0341  -3.0252  -3.0202  -3.0163  -3.0081  -3.0062  -3.0014
    -3.0005  -2.9977  -2.9954  -2.9890  -2.9872  -2.9786  -2.9761  -2.9745
    -2.9693  -2.9615  -2.9599  -2.9559  -2.9420  -2.9278  -2.9222  -2.9159
    -2.9111  -2.9063  -2.9005  -2.8884  -2.8828  -2.8267  -2.8237  -2.8196
    -2.8150  -2.7737  -2.7645  -2.7446  -2.7429  -2.6472  -2.6396  -2.6244
    -2.6154  -2.6003  -2.5832  -2.5793  -2.5743  -2.5688  -2.5629  -2.5554
    -2.5547  -2.5486  -2.5430  -2.4778  -2.4406  -2.4295  -2.4240  -2.4200
    -2.4161  -2.4008  -2.3827  -2.3719

          k =-0.5000-0.2887 0.0000 (386352 PWs)   bands (ev):

  -102.4536 -88.8847 -70.7854 -70.7842 -70.7603 -70.7555 -70.7415 -70.7305
   -70.7174 -66.6504 -66.6504 -66.6504 -66.6503 -66.6491 -66.6491 -66.6487
   -66.6426 -66.6397 -66.6397 -66.6397 -66.6396 -66.6384 -66.6384 -66.6316
   -66.6267 -66.6247 -66.6246 -66.6246 -66.6246 -66.6246 -66.6246 -66.6245
   -66.6245 -66.6233 -66.6233 -66.6233 -66.6233 -66.6217 -66.6202 -66.6202
   -66.6202 -66.6201 -66.6193 -66.6189 -66.6188 -66.6173 -66.6140 -66.6139
   -66.6139 -66.6139 -66.6139 -66.6139 -66.6138 -66.6137 -66.6126 -66.6126
   -66.6126 -66.6126 -66.6095 -66.6095 -66.6094 -66.6094 -66.6085 -66.6081
   -66.6081 -66.6030 -66.6005 -66.5980 -66.5951 -66.5942 -66.5845 -66.5688
   -66.5577 -56.7493 -56.6723 -56.6314 -54.7085 -54.6994 -54.6254 -40.9525
   -40.9524 -40.9524 -40.9524 -40.9524 -40.9524 -40.9523 -40.9522 -40.9517
   -40.9517 -40.9517 -40.9517 -40.9449 -40.9414 -40.9344 -40.9256 -40.9256
   -40.9256 -40.9255 -40.9249 -40.9249 -40.9233 -40.9174 -40.9135 -40.9135
   -40.9135 -40.9135 -40.9128 -40.9128 -40.9118 -40.8922 -40.8765 -40.8629
   -40.8628 -40.8628 -40.8628 -40.8628 -40.8628 -40.8628 -40.8628 -40.8620
   -40.8620 -40.8620 -40.8620 -40.8450 -40.8404 -40.8385 -40.8357 -40.8113
   -40.8060 -40.8041 -40.8041 -40.8041 -40.8040 -40.8034 -40.8034 -40.7946
   -40.7945 -40.7945 -40.7945 -40.7937 -40.7937 -40.7902 -40.7832 -40.7832
   -40.7832 -40.7832 -40.7825 -40.7825 -40.7774 -40.7760 -40.7714 -40.7677
   -40.7564 -40.7536 -40.7536 -40.7536 -40.7536 -40.7536 -40.7536 -40.7535
   -40.7535 -40.7529 -40.7529 -40.7529 -40.7529 -40.7521 -40.7492 -40.7449
   -40.7449 -40.7449 -40.7448 -40.7442 -40.7442 -40.7441 -40.7409 -40.7331
   -40.7331 -40.7331 -40.7330 -40.7327 -40.7326 -40.7326 -40.7325 -40.7325
   -40.7325 -40.7325 -40.7324 -40.7322 -40.7322 -40.7318 -40.7318 -40.7318
   -40.7318 -40.7318 -40.7284 -40.7267 -40.7239 -40.7239 -40.7238 -40.7238
   -40.7232 -40.7231 -40.7231 -40.7182 -40.7159 -40.7113 -40.7073 -40.7022
   -40.7022 -40.7021 -40.7021 -40.7021 -40.7021 -40.7021 -40.7020 -40.7012
   -40.7012 -40.7012 -40.7012 -40.6883 -40.6873 -40.6819 -40.6798 -40.6674
   -40.6674 -40.6674 -40.6674 -40.6674 -40.6674 -40.6673 -40.6673 -40.6664
   -40.6664 -40.6664 -40.6664 -40.6553 -40.6553 -40.6552 -40.6551 -40.6542
   -40.6542 -40.6522 -40.6495 -40.6449 -40.6381 -40.6360 -40.6359 -40.6359
   -40.6358 -40.6349 -40.6349 -40.6345 -40.6227 -40.6192 -40.6189 -40.6189
   -40.6189 -40.6188 -40.6179 -40.6179 -40.6135 -40.5953 -40.5883 -40.5883
   -40.5882 -40.5881 -40.5872 -40.5872 -40.5784 -40.5700 -40.5570 -20.0759
   -19.9201 -19.9000 -19.8607 -19.8016 -19.7698 -19.6916 -19.6791 -19.5191
   -19.4980 -19.4573 -19.4461 -19.3667 -19.3551 -19.2646 -19.2581 -19.0963
   -18.9076 -18.8610 -18.8081 -18.7891 -18.7699 -18.7562 -18.7522 -18.7506
   -18.7380 -18.7141 -18.6926 -18.6871 -18.6790 -18.6678 -18.6534 -18.6227
   -18.6128 -18.6013 -18.5869 -18.5855 -18.5775 -18.5607 -18.5465 -18.5429
   -18.5144 -18.5106 -18.5035 -18.5004 -18.4692 -18.4436 -18.4396 -18.4361
   -18.4162 -18.4102 -18.3824 -18.3653 -18.3535 -18.3529 -18.3129 -18.2873
   -18.2811 -18.2737 -18.2618 -18.2315 -18.2232 -18.2136 -18.1919 -18.1643
   -18.1495 -18.1474 -18.1394 -18.1349 -18.1329 -18.1298 -18.1273 -18.1210
   -18.1062 -18.1030 -18.0994 -18.0971 -18.0958 -18.0868 -18.0796 -18.0753
   -18.0714 -18.0691 -18.0601 -18.0413 -18.0385 -18.0365 -18.0323 -18.0310
   -18.0267 -18.0249 -18.0188 -18.0165 -18.0078 -17.9767 -17.9740 -17.9671
   -17.9655 -17.9596 -17.9496 -17.9227 -17.9199 -17.9142 -17.9047 -17.8822
   -17.8786 -17.8756 -17.8696 -17.8626 -17.8525 -17.8507 -17.8505 -17.8502
   -17.8486 -17.8473 -17.8410 -17.8356 -17.8309 -17.8156 -17.8123 -17.7916
   -17.7895 -17.7724 -17.7693 -17.7582 -17.7558 -17.7509 -17.7505 -12.1412
   -11.8570 -11.7530 -11.7410 -11.7005 -11.6072 -11.5899 -11.5505 -11.5306
   -11.5274 -11.5246 -11.5157 -11.5069 -11.4988 -11.4772 -11.4400 -11.4265
   -11.4200 -11.4074 -11.3965 -11.3771 -11.3734 -11.3517 -11.3403 -11.3270
   -11.3104 -11.3050 -11.3009 -11.2930 -11.2896 -11.2884 -11.2797 -11.2735
   -11.2439 -11.2336 -11.2245 -11.2203 -11.2080 -11.2044 -11.2005 -11.1975
   -11.1876 -11.1770 -11.1766 -11.1669 -11.1464 -11.1221 -11.1061 -11.0950
   -11.0889 -11.0697 -11.0391 -11.0142 -10.9736 -10.9713 -10.9685 -10.9496
   -10.9450 -10.9287 -10.9242 -10.9102 -10.8991 -10.8876 -10.8673 -10.8645
   -10.8574 -10.8533 -10.8438 -10.8430 -10.8429 -10.8410 -10.8385 -10.8313
   -10.8284 -10.8251 -10.8248 -10.8229 -10.8220 -10.8152 -10.8149 -10.8121
   -10.8101 -10.7753 -10.7748 -10.7743 -10.7741 -10.7020 -10.6152 -10.5775
   -10.5669 -10.5591 -10.5358 -10.5154 -10.4949 -10.4598 -10.4249 -10.4098
   -10.3201 -10.2898 -10.2668 -10.2056 -10.1747 -10.1641 -10.1608 -10.1426
   -10.1341 -10.1153 -10.1147 -10.0858 -10.0795 -10.0649 -10.0614 -10.0605
   -10.0579 -10.0493 -10.0385 -10.0163 -10.0002  -9.9628  -9.9598  -9.9563
    -9.9377  -9.9347  -9.9293  -9.9232  -9.9148  -9.8921  -9.8853  -9.8792
    -9.8681  -9.8416  -9.8262  -9.8105  -9.8043  -9.7968  -9.7926  -9.7721
    -9.7565  -9.7455  -9.7272  -9.7115  -9.7091  -9.6877  -9.6792  -9.6519
    -9.6486  -9.6411  -9.6382  -9.6166  -9.5997  -9.5907  -9.5761  -9.5720
    -9.5669  -9.5633  -9.5544  -9.5235  -9.5214  -9.5180  -9.5032  -9.5028
    -9.4972  -9.4921  -9.4901  -9.4855  -9.4683  -9.4635  -9.4590  -9.4245
    -9.3906  -9.3840  -9.3612  -9.3261  -9.2941  -9.2808  -9.2580  -9.2449
    -9.2446  -9.2372  -9.2276  -9.2186  -9.1988  -9.1846  -9.1716  -9.1658
    -9.1484  -9.1376  -9.1283  -9.1109  -9.1075  -9.0849  -9.0740  -9.0680
    -9.0654  -9.0632  -9.0551  -9.0199  -9.0144  -9.0090  -9.0033  -8.9858
    -8.9784  -8.9734  -8.9701  -8.9577  -8.9298  -8.9235  -8.9218  -8.9182
    -8.9171  -8.9135  -8.9097  -8.9050  -8.9012  -8.8996  -8.8942  -8.8905
    -8.8886  -8.8834  -8.8767  -8.8750  -8.8711  -8.8709  -8.8658  -8.8460
    -8.8380  -8.8245  -8.8215  -8.8192  -8.8170  -8.8141  -8.8135  -8.7945
    -8.7916  -8.7691  -8.7648  -8.7620  -8.7583  -8.7505  -8.7388  -8.7259
    -8.6884  -8.6779  -8.6569  -8.6426  -8.6167  -8.5358  -8.5349  -8.5004
    -8.4893  -8.4742  -8.4434  -8.3915  -8.3818  -8.3773  -8.3145  -8.3011
    -8.2872  -8.2151  -8.1752  -8.1590  -8.1586  -8.1501  -8.1491  -8.1387
    -8.1381  -8.1127  -8.0964  -8.0679  -8.0637  -8.0054  -8.0013  -7.9746
    -7.9483  -7.9191  -7.8861  -7.8804  -7.8759  -7.8699  -7.8649  -7.8614
    -7.8504  -7.8438  -7.8389  -7.8326  -7.8317  -7.8297  -7.8244  -7.8218
    -7.8209  -7.8179  -7.8133  -7.8124  -7.8043  -7.8039  -7.8006  -7.7990
    -7.7967  -7.7958  -7.7917  -7.7896  -7.7892  -7.7883  -7.7742  -7.7671
    -7.7638  -7.7578  -7.7566  -7.7510  -7.7475  -7.7282  -7.7272  -7.7269
    -7.7260  -7.6986  -7.6981  -7.6972  -7.6956  -7.6856  -7.6827  -7.6781
    -7.6671  -7.6567  -7.6471  -7.6405  -7.6390  -7.6383  -7.6314  -7.6290
    -7.6262  -7.6165  -7.6135  -7.6071  -7.5956  -7.5945  -7.5919  -7.5807
    -7.5754  -7.5628  -7.5163  -7.4944  -7.4907  -7.4849  -7.4822  -7.4655
    -7.4314  -7.3825  -7.3140  -7.2496  -7.2213  -7.2037  -7.2020  -7.2000
    -7.1894  -7.1725  -7.1563  -7.1492  -7.1462  -7.1335  -7.1290  -7.0965
    -7.0772  -7.0743  -7.0724  -7.0537  -7.0530  -7.0332  -7.0222  -7.0095
    -7.0061  -6.9951  -6.9706  -6.9490  -6.9454  -6.9296  -6.9211  -6.9148
    -6.9063  -6.8908  -6.8891  -6.8626  -6.8610  -6.8530  -6.8181  -6.8042
    -6.7944  -6.7726  -6.7648  -6.7175  -6.7136  -6.6820  -6.6730  -6.6526
    -6.6520  -6.6413  -6.6388  -6.6367  -6.6348  -6.6328  -6.6223  -6.6191
    -6.6181  -6.6175  -6.6112  -6.6102  -6.6100  -6.6099  -6.6038  -6.5901
    -6.5672  -6.5362  -6.5225  -6.5010  -6.4582  -6.4416  -6.3956  -6.3595
    -6.3540  -6.3504  -6.3470  -6.3299  -6.3227  -6.3118  -6.3081  -6.3074
    -6.3036  -6.3033  -6.2997  -6.2873  -6.2807  -6.2762  -6.2632  -6.2599
    -6.2461  -6.2362  -6.2332  -6.2286  -6.2237  -6.1001  -6.0571  -6.0311
    -6.0135  -6.0012  -5.9659  -5.9471  -5.9330  -5.8885  -5.8824  -5.8710
    -5.7783  -5.7594  -5.7195  -5.6656  -5.6302  -5.6174  -5.5105  -5.4289
    -5.3699  -4.3822  -4.1275  -4.1205  -4.1169  -4.0928  -3.9817  -3.9595
    -3.9550  -3.9446  -3.9365  -3.8894  -3.8737  -3.8715  -3.8596  -3.8546
    -3.8426  -3.8382  -3.8297  -3.8282  -3.8275  -3.7795  -3.7416  -3.7155
    -3.7068  -3.6688  -3.6477  -3.6317  -3.6313  -3.6297  -3.6262  -3.5904
    -3.5832  -3.5804  -3.5667  -3.5532  -3.5485  -3.5467  -3.5422  -3.5396
    -3.5248  -3.5103  -3.5093  -3.5036  -3.5022  -3.5003  -3.4924  -3.4860
    -3.4768  -3.4743  -3.4637  -3.4530  -3.4486  -3.4458  -3.4359  -3.4137
    -3.3960  -3.3836  -3.3765  -3.3744  -3.3742  -3.3722  -3.3693  -3.3672
    -3.3441  -3.3316  -3.3201  -3.3159  -3.3144  -3.3101  -3.3084  -3.3063
    -3.3051  -3.3018  -3.2763  -3.2722  -3.2679  -3.2658  -3.2602  -3.2545
    -3.2476  -3.2419  -3.2387  -3.2323  -3.2238  -3.2230  -3.2141  -3.2059
    -3.2002  -3.1940  -3.1933  -3.1915  -3.1910  -3.1846  -3.1735  -3.1363
    -3.1296  -3.1210  -3.1012  -3.0991  -3.0948  -3.0902  -3.0895  -3.0547
    -3.0531  -3.0517  -3.0516  -3.0513  -3.0499  -3.0412  -3.0398  -3.0365
    -3.0362  -3.0340  -3.0263  -3.0198  -3.0176  -3.0123  -3.0068  -3.0020
    -3.0007  -2.9981  -2.9964  -2.9894  -2.9864  -2.9803  -2.9763  -2.9746
    -2.9693  -2.9621  -2.9603  -2.9526  -2.9425  -2.9263  -2.9201  -2.9176
    -2.9131  -2.9065  -2.9026  -2.8931  -2.8774  -2.8285  -2.8233  -2.8181
    -2.8150  -2.7825  -2.7626  -2.7442  -2.7385  -2.6513  -2.6410  -2.6331
    -2.6142  -2.6033  -2.5966  -2.5876  -2.5735  -2.5694  -2.5658  -2.5564
    -2.5550  -2.5518  -2.5458  -2.4957  -2.4331  -2.4273  -2.4224  -2.4192
    -2.4132  -2.4066  -2.3814  -2.3768

          k =-0.5000-0.8660 0.0000 (386352 PWs)   bands (ev):

  -102.4536 -88.8847 -70.7854 -70.7842 -70.7603 -70.7555 -70.7415 -70.7305
   -70.7174 -66.6504 -66.6504 -66.6504 -66.6503 -66.6498 -66.6491 -66.6491
   -66.6397 -66.6397 -66.6397 -66.6397 -66.6384 -66.6384 -66.6384 -66.6346
   -66.6289 -66.6248 -66.6247 -66.6246 -66.6246 -66.6246 -66.6246 -66.6244
   -66.6244 -66.6233 -66.6233 -66.6233 -66.6233 -66.6227 -66.6202 -66.6202
   -66.6202 -66.6201 -66.6189 -66.6188 -66.6167 -66.6154 -66.6141 -66.6139
   -66.6139 -66.6139 -66.6139 -66.6139 -66.6138 -66.6136 -66.6126 -66.6126
   -66.6126 -66.6125 -66.6095 -66.6095 -66.6094 -66.6094 -66.6094 -66.6081
   -66.6081 -66.6032 -66.6000 -66.5986 -66.5952 -66.5946 -66.5842 -66.5688
   -66.5577 -56.7493 -56.6723 -56.6314 -54.7085 -54.6994 -54.6254 -40.9548
   -40.9525 -40.9524 -40.9524 -40.9524 -40.9524 -40.9524 -40.9523 -40.9522
   -40.9517 -40.9517 -40.9517 -40.9517 -40.9379 -40.9273 -40.9256 -40.9256
   -40.9256 -40.9255 -40.9249 -40.9248 -40.9207 -40.9135 -40.9135 -40.9135
   -40.9135 -40.9128 -40.9128 -40.9123 -40.9074 -40.8953 -40.8856 -40.8628
   -40.8628 -40.8628 -40.8628 -40.8628 -40.8628 -40.8628 -40.8628 -40.8620
   -40.8620 -40.8620 -40.8620 -40.8473 -40.8442 -40.8405 -40.8343 -40.8111
   -40.8066 -40.8042 -40.8041 -40.8041 -40.8039 -40.8034 -40.8034 -40.7946
   -40.7946 -40.7945 -40.7945 -40.7937 -40.7937 -40.7871 -40.7832 -40.7832
   -40.7832 -40.7832 -40.7825 -40.7825 -40.7803 -40.7732 -40.7695 -40.7674
   -40.7570 -40.7537 -40.7537 -40.7536 -40.7536 -40.7536 -40.7536 -40.7534
   -40.7534 -40.7529 -40.7529 -40.7529 -40.7529 -40.7526 -40.7462 -40.7449
   -40.7449 -40.7449 -40.7447 -40.7442 -40.7441 -40.7434 -40.7384 -40.7338
   -40.7331 -40.7331 -40.7330 -40.7330 -40.7327 -40.7326 -40.7326 -40.7326
   -40.7326 -40.7326 -40.7326 -40.7322 -40.7322 -40.7322 -40.7319 -40.7318
   -40.7318 -40.7318 -40.7318 -40.7273 -40.7239 -40.7239 -40.7239 -40.7238
   -40.7231 -40.7231 -40.7230 -40.7162 -40.7139 -40.7095 -40.7075 -40.7023
   -40.7021 -40.7021 -40.7021 -40.7021 -40.7020 -40.7020 -40.7019 -40.7012
   -40.7012 -40.7011 -40.7011 -40.6952 -40.6868 -40.6807 -40.6717 -40.6674
   -40.6674 -40.6674 -40.6674 -40.6674 -40.6673 -40.6673 -40.6673 -40.6664
   -40.6664 -40.6664 -40.6664 -40.6552 -40.6552 -40.6552 -40.6551 -40.6543
   -40.6542 -40.6525 -40.6455 -40.6451 -40.6417 -40.6397 -40.6360 -40.6359
   -40.6359 -40.6357 -40.6349 -40.6349 -40.6216 -40.6189 -40.6189 -40.6189
   -40.6189 -40.6179 -40.6179 -40.6174 -40.6138 -40.5951 -40.5883 -40.5882
   -40.5882 -40.5882 -40.5877 -40.5872 -40.5872 -40.5727 -40.5486 -20.0807
   -19.9175 -19.9000 -19.8541 -19.8014 -19.7634 -19.6915 -19.6768 -19.5374
   -19.4988 -19.4600 -19.4465 -19.3683 -19.3554 -19.2649 -19.2583 -19.0915
   -18.8929 -18.8452 -18.8136 -18.7940 -18.7716 -18.7562 -18.7516 -18.7509
   -18.7402 -18.7228 -18.6918 -18.6860 -18.6778 -18.6727 -18.6542 -18.6152
   -18.6094 -18.6003 -18.5856 -18.5806 -18.5792 -18.5729 -18.5501 -18.5254
   -18.5171 -18.5102 -18.5069 -18.4984 -18.4655 -18.4435 -18.4421 -18.4327
   -18.4286 -18.4052 -18.3855 -18.3640 -18.3524 -18.3498 -18.3396 -18.2915
   -18.2774 -18.2654 -18.2606 -18.2426 -18.2249 -18.2070 -18.1937 -18.1765
   -18.1530 -18.1452 -18.1394 -18.1330 -18.1329 -18.1308 -18.1289 -18.1066
   -18.1036 -18.1034 -18.1014 -18.0973 -18.0956 -18.0910 -18.0784 -18.0757
   -18.0692 -18.0612 -18.0610 -18.0436 -18.0390 -18.0339 -18.0316 -18.0310
   -18.0269 -18.0200 -18.0182 -18.0164 -18.0057 -17.9845 -17.9699 -17.9676
   -17.9640 -17.9511 -17.9488 -17.9254 -17.9192 -17.9059 -17.9045 -17.8843
   -17.8804 -17.8703 -17.8692 -17.8656 -17.8556 -17.8514 -17.8504 -17.8489
   -17.8488 -17.8480 -17.8463 -17.8355 -17.8338 -17.8150 -17.8139 -17.7908
   -17.7905 -17.7714 -17.7705 -17.7576 -17.7568 -17.7508 -17.7507 -12.1571
   -11.8797 -11.7538 -11.7425 -11.6844 -11.5950 -11.5482 -11.5464 -11.5317
   -11.5282 -11.5160 -11.5097 -11.4972 -11.4767 -11.4701 -11.4492 -11.4281
   -11.4221 -11.4210 -11.3800 -11.3708 -11.3675 -11.3609 -11.3481 -11.3219
   -11.3210 -11.3108 -11.3030 -11.2942 -11.2893 -11.2889 -11.2860 -11.2781
   -11.2413 -11.2361 -11.2272 -11.2184 -11.2111 -11.2028 -11.1992 -11.1977
   -11.1835 -11.1799 -11.1765 -11.1707 -11.1517 -11.1267 -11.1074 -11.0964
   -11.0931 -11.0736 -11.0295 -11.0092 -10.9970 -10.9708 -10.9624 -10.9596
   -10.9551 -10.9287 -10.9212 -10.9037 -10.8969 -10.8758 -10.8678 -10.8661
   -10.8589 -10.8554 -10.8439 -10.8427 -10.8423 -10.8417 -10.8360 -10.8313
   -10.8281 -10.8259 -10.8237 -10.8217 -10.8211 -10.8161 -10.8141 -10.8121
   -10.7985 -10.7762 -10.7746 -10.7743 -10.7726 -10.7506 -10.6368 -10.5731
   -10.5683 -10.5612 -10.5509 -10.5113 -10.5017 -10.4808 -10.4147 -10.3878
   -10.2803 -10.2779 -10.2255 -10.2021 -10.1862 -10.1740 -10.1517 -10.1446
   -10.1310 -10.1259 -10.1016 -10.0864 -10.0818 -10.0676 -10.0652 -10.0588
   -10.0544 -10.0481 -10.0427 -10.0342 -10.0061  -9.9758  -9.9710  -9.9516
    -9.9443  -9.9437  -9.9318  -9.9272  -9.9244  -9.9041  -9.8922  -9.8766
    -9.8569  -9.8468  -9.8321  -9.8246  -9.8058  -9.8004  -9.7934  -9.7770
    -9.7500  -9.7497  -9.7357  -9.7260  -9.7048  -9.6937  -9.6840  -9.6575
    -9.6549  -9.6445  -9.6344  -9.6112  -9.5933  -9.5782  -9.5772  -9.5751
    -9.5685  -9.5618  -9.5503  -9.5233  -9.5203  -9.5119  -9.5091  -9.5052
    -9.4934  -9.4902  -9.4878  -9.4708  -9.4640  -9.4589  -9.4544  -9.4015
    -9.3929  -9.3513  -9.3377  -9.3222  -9.3005  -9.2827  -9.2480  -9.2436
    -9.2393  -9.2318  -9.2194  -9.2084  -9.2006  -9.1783  -9.1774  -9.1634
    -9.1556  -9.1380  -9.1253  -9.1136  -9.0938  -9.0893  -9.0827  -9.0719
    -9.0646  -9.0589  -9.0526  -9.0314  -9.0278  -9.0122  -8.9903  -8.9874
[...]
     atom  169 type  1   force =     0.00000260    0.00000125    0.00068827
     atom  170 type  1   force =    -0.00001208   -0.00001231    0.00000474
     atom  171 type  2   force =    -0.00000235    0.00000184    0.00000480
     atom  172 type  2   force =     0.00000092    0.00000224    0.00161540
     atom  173 type  2   force =     0.00000079    0.00000179   -0.00235927
     atom  174 type  2   force =    -0.00000193    0.00000019   -0.00001500
     atom  175 type  1   force =    -0.00006691    0.00000477    0.00003416
     atom  176 type  1   force =     0.00036107    0.00031043   -0.00027188
     atom  177 type  2   force =     0.00142872    0.00180058   -0.00096212
     atom  178 type  2   force =    -0.00000755   -0.00001802    0.00000054
     atom  179 type  2   force =     0.00001024    0.00000208   -0.00004110
     atom  180 type  2   force =     0.00066311   -0.00096961    0.00077056
     atom  181 type  1   force =     0.00000289    0.00000170    0.00068799
     atom  182 type  1   force =    -0.00000659   -0.00000818   -0.00000201
     atom  183 type  2   force =    -0.00000049    0.00000069    0.00000537
     atom  184 type  2   force =     0.00000111    0.00000238    0.00161540
     atom  185 type  2   force =     0.00000087    0.00000189   -0.00235937
     atom  186 type  2   force =    -0.00000230   -0.00000132   -0.00000717
     atom  187 type  1   force =    -0.00001432   -0.00000395   -0.00009054
     atom  188 type  1   force =    -0.00004779   -0.00086961    0.00073942
     atom  189 type  2   force =    -0.00361603   -0.00165473    0.00390720
     atom  190 type  2   force =    -0.00007049    0.00002838    0.00009119
     atom  191 type  2   force =     0.00000877    0.00001385    0.00002452
     atom  192 type  2   force =    -0.00446807   -0.00373969   -0.00278533
     atom  193 type  3   force =    -0.00324155    0.00042349    0.00318408
     atom  194 type  4   force =     0.00005209    0.00317298   -0.00370637

     Total force =     0.017011     Total SCF correction =     0.001262
     Energy error            =      8.2E-04 Ry
     Gradient error          =      4.9E-03 Ry/Bohr

     number of scf cycles    =   9
     number of bfgs steps    =   8

     energy             old  =  -33980.2965013516 Ry
     energy             new  =  -33980.2973216598 Ry

     CASE: energy            _new < energy            _old

     new trust radius        =       0.0432840185 bohr
     new conv_thr            =       0.0000000487 Ry


ATOMIC_POSITIONS (angstrom)
Mo               0.0000119917        1.8193638619       -9.1672481230    0   0   0
Mo               1.5756136568        0.9097075315       -3.0554901653    0   0   0
S                0.0000188998        1.8193822938       -4.6232556019    0   0   0
S                1.5756321638        0.9096773839       -7.6014065489    0   0   0
S                1.5756326175        0.9096785128      -10.7330757790    0   0   0
S                0.0000189190        1.8193860094       -1.4877129945    0   0   0
Mo               0.0000413447        1.8196200804        3.0559568754
Mo               1.5768606977        0.9104864132        9.1573518201
S                0.0028747763        1.8269169251        7.5870908956
S                1.5757705272        0.9097256249        4.6230961359
S                1.5756601067        0.9099014986        1.4879665047
S                0.0044615635        1.8138150610       10.7350746814
Mo              -1.5756053507        4.5484193819       -9.1672481230    0   0   0
Mo               0.0000378379        3.6387394919       -3.0554952701    0   0   0
S               -1.5755913433        4.5484363582       -4.6232494962    0   0   0
S                0.0000148214        3.6387329039       -7.6014065489    0   0   0
S                0.0000152751        3.6387340328      -10.7330757790    0   0   0
S               -1.5755906502        4.5484413613       -1.4877305502    0   0   0
Mo              -1.5754349710        4.5486184389        3.0558722504
Mo              -0.0037837177        3.6290836778        9.1739753464
S               -1.5738570701        4.5467081631        7.5969752973
S                0.0004180391        3.6393453657        4.6237755586
S                0.0000319967        3.6388403200        1.4880545637
S               -1.5832269646        4.5453772237       10.7357140106
Mo              -3.1512226931        7.2774749019       -9.1672481230    0   0   0
Mo              -1.5755910988        6.3678216792       -3.0555115988    0   0   0
S               -3.1512162438        7.2774954350       -4.6232578178    0   0   0
S               -1.5756025210        6.3677884239       -7.6014065489    0   0   0
S               -1.5756020673        6.3677895528      -10.7330757790    0   0   0
S               -3.1512127704        7.2774877076       -1.4877200710    0   0   0
Mo              -3.1510494347        7.2773587061        3.0557082360
Mo              -1.5944751453        6.3651051823        9.1692973200
S               -3.1510341532        7.2763383925        7.5872169326
S               -1.5751287824        6.3679757216        4.6238609034
S               -1.5754615462        6.3677617284        1.4879964795
S               -3.1652734595        7.2820476150       10.7325350929
Mo              -4.7268400355       10.0065304219       -9.1672481230    0   0   0
Mo              -3.1512405618        9.0968403586       -3.0554816746    0   0   0
S               -4.7268341792       10.0065523623       -4.6232463762    0   0   0
S               -3.1512198634        9.0968439439       -7.6014065489    0   0   0
S               -3.1512194097        9.0968450728      -10.7330757790    0   0   0
S               -4.7268370797       10.0065537885       -1.4877176751    0   0   0
Mo              -4.7267886076       10.0065320549        3.0555610569
Mo              -3.1534737120        9.0985288725        9.1549168227
S               -4.7264247168       10.0082369292        7.5855444197
S               -3.1511283533        9.0966954574        4.6231526657
S               -3.1510289409        9.0968031865        1.4879284632
S               -4.7144390433       10.0096930351       10.7286430915
Mo               3.1512517547        1.8193638619       -9.1672481230    0   0   0
Mo               4.7269020221        0.9097289540       -3.0554823951    0   0   0
S                3.1512612351        1.8193882564       -4.6232320683    0   0   0
S                4.7268719268        0.9096773839       -7.6014065489    0   0   0
S                4.7268723805        0.9096785128      -10.7330757790    0   0   0
S                3.1512592485        1.8193890201       -1.4877261251    0   0   0
Mo               3.1513107360        1.8196188356        3.0557134168
Mo               4.7242335991        0.9118952510        9.1566320108
S                3.1504950342        1.8271718258        7.5925820321
S                4.7270222686        0.9097924851        4.6232414419
S                4.7268711935        0.9097035481        1.4879804799
S                3.1542499501        1.8049118050       10.7337857806
Mo               1.5756344123        4.5484193819       -9.1672481230    0   0   0
Mo               3.1512756394        3.6387769522       -3.0554814834    0   0   0
S                1.5756504879        4.5484423799       -4.6232390542    0   0   0
S                3.1512545844        3.6387329039       -7.6014065489    0   0   0
S                3.1512550381        3.6387340328      -10.7330757790    0   0   0
S                1.5756466253        4.5484431864       -1.4877251801    0   0   0
Mo               1.5756693848        4.5487752511        3.0556028301
Mo               3.1531644386        3.6302333594        9.1787344999
S                1.5736085237        4.5615275520        7.6332174964
S                3.1507605079        3.6391941593        4.6236266403
S                3.1513316214        3.6388723228        1.4880106398
S                1.5651752092        4.4571342232       10.8046930652
Mo               0.0000170699        7.2774749019       -9.1672481230    0   0   0
Mo               1.5756764447        6.3678236689       -3.0554877708    0   0   0
S                0.0000381981        7.2774979204       -4.6232454413    0   0   0
S                1.5756372420        6.3677884239       -7.6014065489    0   0   0
S                1.5756376957        6.3677895528      -10.7330757790    0   0   0
S                0.0000328088        7.2774946042       -1.4877307940    0   0   0
Mo               0.0002376948        7.2773700850        3.0557797368
Mo               1.5641484544        6.3463662535        9.2169617928
S                0.0104172888        7.2698039682        7.6365865447
S                1.5756960920        6.3678756860        4.6240852485
S                1.5756826642        6.3678503580        1.4877402547
S               -0.0828300397        7.3159425938       10.7712482858
Mo              -1.5756002725       10.0065304219       -9.1672481230    0   0   0
Mo               0.0000873425        9.0968676911       -3.0554912329    0   0   0
S               -1.5755883952       10.0065504530       -4.6232240150    0   0   0
S                0.0000198996        9.0968439439       -7.6014065489    0   0   0
S                0.0000203533        9.0968450728      -10.7330757790    0   0   0
S               -1.5755859047       10.0065492576       -1.4877362381    0   0   0
Mo              -1.5754114119       10.0064708275        3.0558242261
Mo              -0.0224386437        9.1093903887        9.1779395027
S               -1.5764496369       10.0077613421        7.5868137661
S                0.0002735435        9.0963634951        4.6240041080
S                0.0001690756        9.0968724488        1.4880996244
S               -1.6028227290       10.0209869600       10.7341327082
Mo               6.3024915177        1.8193638619       -9.1672481230    0   0   0
Mo               7.8781001445        0.9096521684       -3.0554919963    0   0   0
S                6.3025008696        1.8193826232       -4.6232480596    0   0   0
S                7.8781116898        0.9096773839       -7.6014065489    0   0   0
S                7.8781121435        0.9096785128      -10.7330757790    0   0   0
S                6.3025042007        1.8193849068       -1.4877147524    0   0   0
Mo               6.3025991385        1.8194187068        3.0556721940
Mo               7.8714117645        0.9285912593        9.1622369192
S                6.2994348918        1.8233434154        7.5851999249
S                7.8782080274        0.9095127145        4.6234629953
S                7.8781394433        0.9094988851        1.4879885942
S                6.2947894649        1.8283555533       10.7304551878
Mo               4.7268741753        4.5484193819       -9.1672481230    0   0   0
Mo               6.3024679138        3.6387501714       -3.0554895197    0   0   0
S                4.7268748770        4.5484386753       -4.6232519432    0   0   0
S                6.3024943474        3.6387329039       -7.6014065489    0   0   0
S                6.3024948011        3.6387340328      -10.7330757790    0   0   0
S                4.7268770533        4.5484432419       -1.4877137856    0   0   0
Mo               4.7267710663        4.5485343859        3.0559836161
Mo               6.3024082704        3.6349304551        9.1591620091
S                4.7245905334        4.5344490581        7.5880049314
S                6.3027943629        3.6389589049        4.6231356743
S                6.3023294771        3.6388219904        1.4878856697
S                4.7422035358        4.5300536289       10.7372525913
Mo               3.1512568329        7.2774749019       -9.1672481230    0   0   0
Mo               4.7268384135        6.3678043337       -3.0554959052    0   0   0
S                3.1512606125        7.2774972547       -4.6232589675    0   0   0
S                4.7268770050        6.3677884239       -7.6014065489    0   0   0
S                4.7268774587        6.3677895528      -10.7330757790    0   0   0
S                3.1512629079        7.2774963749       -1.4877081835    0   0   0
Mo               3.1510435001        7.2775840943        3.0558006296
Mo               4.7713942972        6.3409617196        9.1540059576
S                3.1359706789        7.2816467031        7.6621696475
S                4.7264236394        6.3681125733        4.6239000959
S                4.7268111611        6.3677369664        1.4880666230
S                3.2658874603        7.1777530215       10.7532914505
Mo               1.5756394905       10.0065304219       -9.1672481230    0   0   0
Mo               3.1512330605        9.0968514907       -3.0554878870    0   0   0
S                1.5756499830       10.0065443759       -4.6232632674    0   0   0
S                3.1512596626        9.0968439439       -7.6014065489    0   0   0
S                3.1512601163        9.0968450728      -10.7330757790    0   0   0
S                1.5756503041       10.0065459699       -1.4877044377    0   0   0
Mo               1.5758455183       10.0062646882        3.0560617734
Mo               3.1617998478        9.1130775322        9.2077601059
S                1.5866779526        9.9989505905        7.6330053140
S                3.1512559305        9.0964007796        4.6244849134
S                3.1511811732        9.0968619142        1.4880988720
S                1.4710417262       10.0817827990       10.7917837467
Mo               9.4537312807        1.8193638619       -9.1672481230    0   0   0
Mo              11.0293863460        0.9096952246       -3.0554894007    0   0   0
S                9.4537395970        1.8193770750       -4.6232328036    0   0   0
S               11.0293514528        0.9096773839       -7.6014065489    0   0   0
S               11.0293519066        0.9096785128      -10.7330757790    0   0   0
S                9.4537393632        1.8193794783       -1.4877366147    0   0   0
Mo               9.4537173371        1.8195042863        3.0556833702
Mo              11.0373815326        0.9212371217        9.1614584910
S                9.4539311980        1.8244709325        7.5885764889
S               11.0291494797        0.9096439341        4.6234436771
S               11.0294657124        0.9097265417        1.4880432330
S                9.4545914965        1.8209824746       10.7243666481
Mo               7.8781139383        4.5484193819       -9.1672481230    0   0   0
Mo               9.4537539161        3.6387607911       -3.0554933032    0   0   0
S                7.8781175448        4.5484378232       -4.6232366318    0   0   0
S                9.4537341104        3.6387329039       -7.6014065489    0   0   0
S                9.4537345641        3.6387340328      -10.7330757790    0   0   0
S                7.8781194018        4.5484411585       -1.4877377057    0   0   0
Mo               7.8782491294        4.5484772437        3.0553074209
Mo               9.4526238601        3.6393881224        9.1626043449
S                7.8785788363        4.5466379434        7.5914126022
S                9.4537587890        3.6389986262        4.6231825786
S                9.4539988488        3.6388276081        1.4878182642
S                7.8782717854        4.5488910709       10.7288966348
Mo               6.3024965959        7.2774749019       -9.1672481230    0   0   0
Mo               7.8781361655        6.3678242352       -3.0555014130    0   0   0
S                6.3024973331        7.2774953556       -4.6232392528    0   0   0
S                7.8781167680        6.3677884239       -7.6014065489    0   0   0
S                7.8781172217        6.3677895528      -10.7330757790    0   0   0
S                6.3024989866        7.2774929744       -1.4877349119    0   0   0
Mo               6.3024940184        7.2773938442        3.0557740539
Mo               7.8814416797        6.3692931260        9.1572463655
S                6.3114750499        7.2813685432        7.5836196991
S                7.8782602651        6.3674514964        4.6231585487
S                7.8781676273        6.3679113193        1.4878283628
S                6.3217699962        7.2798583316       10.7264881555
Mo               4.7268792535       10.0065304219       -9.1672481230    0   0   0
Mo               6.3025111524        9.0968738021       -3.0554915260    0   0   0
S                4.7268840634       10.0065452125       -4.6232380477    0   0   0
S                6.3024994256        9.0968439439       -7.6014065489    0   0   0
S                6.3024998793        9.0968450728      -10.7330757790    0   0   0
S                4.7268847312       10.0065459141       -1.4877283294    0   0   0
Mo               4.7265996015       10.0063826194        3.0557704060
Mo               6.3140769818        9.1013052885        9.1651959697
S                4.7122539577       10.0009193426        7.6222394033
S                6.3023197587        9.0968926235        4.6231658534
S                6.3024113013        9.0968263907        1.4879259715
S                4.8229923616       10.0722906026       10.8074580393
Pd               1.6272419232        6.4742502861       12.1606986265
Pt               3.0851699984        9.0114719833       12.0213338269



     Writing config-only to output data dir ./outdir/pwscf.save/ :
     XML data file
     NEW-OLD atomic charge density approx. for the potential

     negative rho (up, down):  9.195E-04 0.000E+00

     total cpu time spent up to now is    87583.4 secs

     Self-consistent Calculation

     iteration #  1     ecut=    77.00 Ry     beta= 0.20
     Davidson diagonalization with overlap
     ethr =  1.00E-06,  avg # of iterations = 18.0

     negative rho (up, down):  9.162E-04 0.000E+00

     total cpu time spent up to now is    88674.8 secs

     total energy              =  -33980.30465567 Ry
     estimated scf accuracy    <       0.00428937 Ry

     iteration #  2     ecut=    77.00 Ry     beta= 0.20
     Davidson diagonalization with overlap
     ethr =  2.50E-07,  avg # of iterations = 15.0

     negative rho (up, down):  9.140E-04 0.000E+00

     total cpu time spent up to now is    89196.7 secs

     total energy              =  -33980.30345457 Ry
     estimated scf accuracy    <       0.00254587 Ry

     iteration #  3     ecut=    77.00 Ry     beta= 0.20
     Davidson diagonalization with overlap
     ethr =  1.49E-07,  avg # of iterations =  8.0

     negative rho (up, down):  9.120E-04 0.000E+00

     total cpu time spent up to now is    89625.4 secs

     total energy              =  -33980.30065254 Ry
     estimated scf accuracy    <       0.00036151 Ry

     iteration #  4     ecut=    77.00 Ry     beta= 0.20
     Davidson diagonalization with overlap
     ethr =  2.11E-08,  avg # of iterations = 15.8

     negative rho (up, down):  9.108E-04 0.000E+00

     total cpu time spent up to now is    90372.6 secs

     total energy              =  -33980.30003208 Ry
     estimated scf accuracy    <       0.00013538 Ry

     iteration #  5     ecut=    77.00 Ry     beta= 0.20
     Davidson diagonalization with overlap
     ethr =  7.90E-09,  avg # of iterations =  8.0

     negative rho (up, down):  9.099E-04 0.000E+00

     total cpu time spent up to now is    90833.8 secs

     total energy              =  -33980.29927745 Ry
     estimated scf accuracy    <       0.00012508 Ry

     iteration #  6     ecut=    77.00 Ry     beta= 0.20
     Davidson diagonalization with overlap
     ethr =  7.30E-09,  avg # of iterations =  6.0

     negative rho (up, down):  9.091E-04 0.000E+00

     total cpu time spent up to now is    91272.7 secs

     total energy              =  -33980.29858914 Ry
     estimated scf accuracy    <       0.00010975 Ry

     iteration #  7     ecut=    77.00 Ry     beta= 0.20
     Davidson diagonalization with overlap
     ethr =  6.40E-09,  avg # of iterations = 10.0
