
     Program PWSCF v.7.2 starts on 10Mar2024 at  8:39:27 

     This program is part of the open-source Quantum ESPRESSO suite
     for quantum simulation of materials; please cite
         "P. Giannozzi et al., J. Phys.:Condens. Matter 21 395502 (2009);
         "P. Giannozzi et al., J. Phys.:Condens. Matter 29 465901 (2017);
         "P. Giannozzi et al., J. Chem. Phys. 152 154105 (2020);
          URL http://www.quantum-espresso.org", 
     in publications or presentations arising from this work. More details at
     http://www.quantum-espresso.org/quote

     Parallel version (MPI), running on    64 processors

     MPI processes distributed on     1 nodes
     1276915 MiB available memory on the printing compute node when the environment starts
 
     Waiting for input...
     Reading input from standard input
Warning: card &CELL ignored
Warning: card / ignored

     Current dimensions of program PWSCF are:
     Max number of different atomic species (ntypx) = 10
     Max number of k-points (npk) =  40000
     Max angular momentum in pseudopotentials (lmaxx) =  4
     file Cl.pbe-n-kjpaw_psl.1.0.0.UPF: wavefunction(s)  3S 3P renormalized
     file O.pbe-n-kjpaw_psl.1.0.0.UPF: wavefunction(s)  2S 2P renormalized
     file N.pbe-n-kjpaw_psl.1.0.0.UPF: wavefunction(s)  2S renormalized
     file H.pbe-kjpaw_psl.1.0.0.UPF: wavefunction(s)  1S renormalized
     file C.pbe-n-kjpaw_psl.1.0.0.UPF: wavefunction(s)  2S 2P renormalized
 
     R & G space division:  proc/nbgrp/npool/nimage =      64
     Subspace diagonalization in iterative solution of the eigenvalue problem:
     one sub-group per band group will be used
     ELPA distributed-memory algorithm (size of sub-group:  5*  5 procs)

 
     Parallelization info
     --------------------
     sticks:   dense  smooth     PW     G-vecs:    dense   smooth      PW
     Min         275      99     26                37257     8045    1136
     Max         276     100     27                37261     8053    1145
     Sum       17605    6341   1713              2384549   515133   73043
 
     Using Slab Decomposition
 


     bravais-lattice index     =            0
     lattice parameter (alat)  =      37.0386  a.u.
     unit-cell volume          =   17651.2543 (a.u.)^3
     number of atoms/cell      =          184
     number of atomic types    =            5
     number of electrons       =       800.00
     number of Kohn-Sham states=          480
     kinetic-energy cutoff     =      36.0000  Ry
     charge density cutoff     =     400.0000  Ry
     scf convergence threshold =      1.0E-06
     mixing beta               =       0.2000
     number of iterations used =            8  plain     mixing
     energy convergence thresh.=      1.0E-04
     force convergence thresh. =      1.0E-03
     Exchange-correlation= SLA  PW   PBX  PBC
                           (   1   4   3   4   0   0   0)
     nstep                     =         9999


     celldm(1)=  37.038632  celldm(2)=   0.000000  celldm(3)=   0.000000
     celldm(4)=   0.000000  celldm(5)=   0.000000  celldm(6)=   0.000000

     crystal axes: (cart. coord. in units of alat)
               a(1) = (   1.000000   0.000000   0.000000 )  
               a(2) = (   0.000000   0.403061   0.000000 )  
               a(3) = (  -0.252027   0.000000   0.861866 )  

     reciprocal axes: (cart. coord. in units 2 pi/alat)
               b(1) = (  1.000000  0.000000  0.292420 )  
               b(2) = (  0.000000  2.481013  0.000000 )  
               b(3) = (  0.000000  0.000000  1.160273 )  


     PseudoPot. # 1 for Cl read from file:
     ./pseudo/Cl.pbe-n-kjpaw_psl.1.0.0.UPF
     MD5 check sum: 8585a34133a3cfc72b769cd6a0e76983
     Pseudo is Projector augmented-wave + core cor, Zval =  7.0
     Generated using 'atomic' code by A. Dal Corso  v.7.2
     Shape of augmentation charge: PSQ
     Using radial grid of 1157 points,  6 beta functions with: 
                l(1) =   0
                l(2) =   0
                l(3) =   1
                l(4) =   1
                l(5) =   2
                l(6) =   2
     Q(r) pseudized with 0 coefficients 


     PseudoPot. # 2 for O  read from file:
     ./pseudo/O.pbe-n-kjpaw_psl.1.0.0.UPF
     MD5 check sum: 54880130194cacfd11baed2e72b13d2a
     Pseudo is Projector augmented-wave + core cor, Zval =  6.0
     Generated using 'atomic' code by A. Dal Corso  v.7.2
     Shape of augmentation charge: PSQ
     Using radial grid of 1095 points,  4 beta functions with: 
                l(1) =   0
                l(2) =   0
                l(3) =   1
                l(4) =   1
     Q(r) pseudized with 0 coefficients 


     PseudoPot. # 3 for N  read from file:
     ./pseudo/N.pbe-n-kjpaw_psl.1.0.0.UPF
     MD5 check sum: 6654930a71f78718b13e91073ae2a058
     Pseudo is Projector augmented-wave + core cor, Zval =  5.0
     Generated using 'atomic' code by A. Dal Corso  v.7.2
     Shape of augmentation charge: PSQ
     Using radial grid of 1085 points,  4 beta functions with: 
                l(1) =   0
                l(2) =   0
                l(3) =   1
                l(4) =   1
     Q(r) pseudized with 0 coefficients 


     PseudoPot. # 4 for H  read from file:
     ./pseudo/H.pbe-kjpaw_psl.1.0.0.UPF
     MD5 check sum: b3cb3c48ee3b58cc53e4d592112d0ca6
     Pseudo is Projector augmented-wave, Zval =  1.0
     Generated using 'atomic' code by A. Dal Corso  v.7.2
     Shape of augmentation charge: PSQ
     Using radial grid of  929 points,  2 beta functions with: 
                l(1) =   0
                l(2) =   0
     Q(r) pseudized with 0 coefficients 


     PseudoPot. # 5 for C  read from file:
     ./pseudo/C.pbe-n-kjpaw_psl.1.0.0.UPF
     MD5 check sum: 6b0792899573946bb42fe395835041da
     Pseudo is Projector augmented-wave + core cor, Zval =  4.0
     Generated using 'atomic' code by A. Dal Corso  v.7.2
     Shape of augmentation charge: PSQ
     Using radial grid of 1073 points,  4 beta functions with: 
                l(1) =   0
                l(2) =   0
                l(3) =   1
                l(4) =   1
     Q(r) pseudized with 0 coefficients 


     atomic species   valence    mass     pseudopotential
        Cl             7.00    35.45000     Cl( 1.00)
        O              6.00    15.99900     O ( 1.00)
        N              5.00    14.00700     N ( 1.00)
        H              1.00     1.00800     H ( 1.00)
        C              4.00    12.01100     C ( 1.00)

     No symmetry found



   Cartesian axes

     site n.     atom                  positions (alat units)
         1           Cl  tau(   1) = (   0.7290947   0.0107214   0.4592884  )
         2           Cl  tau(   2) = (  -0.1071356   0.2122520   0.8335106  )
         3           Cl  tau(   3) = (   0.0188781   0.3923398   0.4025776  )
         4           Cl  tau(   4) = (   0.8551083   0.1908092   0.0283554  )
         5           Cl  tau(   5) = (   0.8505347   0.0481255   0.3572434  )
         6           Cl  tau(   6) = (   0.0234517   0.2496561   0.0736895  )
         7           Cl  tau(   7) = (  -0.1025620   0.3549357   0.5046225  )
         8           Cl  tau(   8) = (   0.7245211   0.1534051   0.7881764  )
         9           Cl  tau(   9) = (   0.6749596   0.1638847   0.1765963  )
        10           Cl  tau(  10) = (   0.1990268   0.3654153   0.2543366  )
        11           Cl  tau(  11) = (   0.0730131   0.2391765   0.6852696  )
        12           Cl  tau(  12) = (   0.5489460   0.0376459   0.6075293  )
        13           Cl  tau(  13) = (   0.8217135   0.1176536   0.2174488  )
        14           Cl  tau(  14) = (   0.0522729   0.3191842   0.2134842  )
        15           Cl  tau(  15) = (  -0.0737408   0.2854077   0.6444172  )
        16           Cl  tau(  16) = (   0.6956999   0.0838770   0.6483818  )
        17           Cl  tau(  17) = (   0.6531173   0.3685995   0.8323040  )
        18           Cl  tau(  18) = (  -0.0311582   0.1670689   0.4604950  )
        19           Cl  tau(  19) = (   0.0948555   0.0344617   0.0295620  )
        20           Cl  tau(  20) = (   0.7791309   0.2359923   0.4013710  )
        21           Cl  tau(  21) = (   0.4971041   0.3314776   0.8060171  )
        22           Cl  tau(  22) = (   0.1248550   0.1299469   0.4867819  )
        23           Cl  tau(  23) = (   0.2508686   0.0715837   0.0558489  )
        24           Cl  tau(  24) = (   0.6231177   0.2731143   0.3750841  )
        25           O   tau(  25) = (   0.5691377   0.0285770   0.4516178  )
        26           O   tau(  26) = (   0.0528214   0.2301077   0.8411812  )
        27           O   tau(  27) = (   0.1788350   0.3744842   0.4102482  )
        28           O   tau(  28) = (   0.6951513   0.1729536   0.0206848  )
        29           N   tau(  29) = (   0.4749753   0.1525184   0.4781632  )
        30           N   tau(  30) = (   0.1469838   0.3540490   0.8146357  )
        31           N   tau(  31) = (   0.2729975   0.2505429   0.3837027  )
        32           N   tau(  32) = (   0.6009889   0.0490122   0.0472303  )
        33           H   tau(  33) = (   0.5235412   0.1600290   0.4646828  )
        34           H   tau(  34) = (   0.0984179   0.3615596   0.8281162  )
        35           H   tau(  35) = (   0.2244315   0.2430322   0.3971832  )
        36           H   tau(  36) = (   0.6495549   0.0415016   0.0337498  )
        37           C   tau(  37) = (   0.3221765   0.0771056   0.4032671  )
        38           C   tau(  38) = (   0.5518099   0.2786362   0.0276659  )
        39           C   tau(  39) = (   0.4257963   0.3259556   0.4585989  )
        40           C   tau(  40) = (   0.1961628   0.1244250   0.8342001  )
        41           H   tau(  41) = (   0.2723164   0.0727820   0.4127433  )
        42           H   tau(  42) = (   0.6016700   0.2743126   0.0181897  )
        43           H   tau(  43) = (   0.4756563   0.3302792   0.4491227  )
        44           H   tau(  44) = (   0.1463028   0.1287486   0.8436763  )
        45           C   tau(  45) = (   0.3640190   0.1116480   0.4489460  )
        46           C   tau(  46) = (   0.2579401   0.3131786   0.8438530  )
        47           C   tau(  47) = (   0.3839537   0.2914133   0.4129200  )
        48           C   tau(  48) = (   0.4900326   0.0898827   0.0180130  )
        49           C   tau(  49) = (   0.4333750   0.1176536   0.4357594  )
        50           C   tau(  50) = (   0.1885841   0.3191842   0.8570395  )
        51           C   tau(  51) = (   0.3145977   0.2854077   0.4261065  )
        52           C   tau(  52) = (   0.5593886   0.0838770   0.0048264  )
        53           C   tau(  53) = (   0.4608633   0.0890765   0.3769802  )
        54           C   tau(  54) = (   0.4131231   0.2906071   0.0539528  )
        55           C   tau(  55) = (   0.2871095   0.3139847   0.4848858  )
        56           C   tau(  56) = (   0.3348497   0.1124541   0.8079132  )
        57           C   tau(  57) = (   0.4190955   0.0545342   0.3313875  )
        58           C   tau(  58) = (   0.4548909   0.2560648   0.0995455  )
        59           C   tau(  59) = (   0.3288772   0.3485270   0.5304785  )
        60           C   tau(  60) = (   0.2930819   0.1469964   0.7623205  )
        61           H   tau(  61) = (   0.4388803   0.0339946   0.2890793  )
        62           H   tau(  62) = (   0.4351061   0.2355252   0.1418537  )
        63           H   tau(  63) = (   0.3090925   0.3690666   0.5727866  )
        64           H   tau(  64) = (   0.3128667   0.1675360   0.7200123  )
        65           C   tau(  65) = (   0.3497647   0.0485286   0.3444878  )
        66           C   tau(  66) = (   0.5242217   0.2500592   0.0864452  )
        67           C   tau(  67) = (   0.3982080   0.3545327   0.5173781  )
        68           C   tau(  68) = (   0.2237511   0.1530020   0.7754208  )
        69           H   tau(  69) = (   0.3196547   0.0236843   0.3116688  )
        70           H   tau(  70) = (   0.5543317   0.2252149   0.1192642  )
        71           H   tau(  71) = (   0.4283181   0.3793769   0.5501971  )
        72           H   tau(  72) = (   0.1936410   0.1778463   0.7426018  )
        73           C   tau(  73) = (   0.6359897   0.1062066   0.3019978  )
        74           C   tau(  74) = (   0.2379967   0.3077372   0.1289352  )
        75           C   tau(  75) = (   0.1119831   0.2968546   0.5598681  )
        76           C   tau(  76) = (   0.5099760   0.0953240   0.7329308  )
        77           C   tau(  77) = (   0.6486721   0.0715837   0.3625870  )
        78           C   tau(  78) = (   0.2253142   0.2731143   0.0683460  )
        79           C   tau(  79) = (   0.0993006   0.3314776   0.4992790  )
        80           C   tau(  80) = (   0.5226585   0.1299469   0.7935200  )
        81           C   tau(  81) = (   0.7149324   0.0529219   0.3794796  )
        82           C   tau(  82) = (   0.1590540   0.2544526   0.0514534  )
        83           C   tau(  83) = (   0.0330403   0.3501393   0.4823864  )
        84           C   tau(  84) = (   0.5889188   0.1486087   0.8104126  )
        85           C   tau(  85) = (   0.7684102   0.0689235   0.3357830  )
        86           C   tau(  86) = (   0.1055762   0.2704541   0.0951500  )
        87           C   tau(  87) = (  -0.0204374   0.3341378   0.5260830  )
        88           C   tau(  88) = (   0.6423966   0.1326071   0.7667160  )
        89           C   tau(  89) = (   0.7556277   0.1035464   0.2751938  )
        90           C   tau(  90) = (   0.1183587   0.3050770   0.1557392  )
        91           C   tau(  91) = (  -0.0076549   0.2995148   0.5866722  )
        92           C   tau(  92) = (   0.6296141   0.0979842   0.7061268  )
        93           C   tau(  93) = (   0.6894422   0.1222082   0.2583874  )
        94           C   tau(  94) = (   0.1845441   0.3237388   0.1725456  )
        95           C   tau(  95) = (   0.0585305   0.2808531   0.6034786  )
        96           C   tau(  96) = (   0.5634286   0.0793224   0.6893204  )
        97           C   tau(  97) = (   0.5636986   0.1238607   0.2982056  )
        98           C   tau(  98) = (   0.3102878   0.3253913   0.1327274  )
        99           C   tau(  99) = (   0.1842742   0.2792005   0.5636603  )
       100           C   tau( 100) = (   0.4376849   0.0776699   0.7291386  )
       101           C   tau( 101) = (   0.5461196   0.2775077   0.6825117  )
       102           C   tau( 102) = (   0.0758395   0.0759770   0.6102873  )
       103           C   tau( 103) = (   0.2018531   0.1255536   0.1793543  )
       104           C   tau( 104) = (   0.6721332   0.3270842   0.2515787  )
       105           C   tau( 105) = (   0.5627273   0.3105184   0.7430147  )
       106           C   tau( 106) = (   0.0592318   0.1089878   0.5497843  )
       107           C   tau( 107) = (   0.1852454   0.0925429   0.1188513  )
       108           C   tau( 108) = (   0.6887409   0.2940735   0.3120817  )
       109           C   tau( 109) = (   0.6297477   0.3297444   0.7555979  )
       110           C   tau( 110) = (  -0.0077886   0.1282138   0.5372011  )
       111           C   tau( 111) = (   0.1182250   0.0733168   0.1062681  )
       112           C   tau( 112) = (   0.7557613   0.2748474   0.3246649  )
       113           C   tau( 113) = (   0.6801604   0.3159194   0.7076782  )
       114           C   tau( 114) = (  -0.0582013   0.1143888   0.5851208  )
       115           C   tau( 115) = (   0.0678123   0.0871418   0.1541878  )
       116           C   tau( 116) = (   0.8061741   0.2886724   0.2767452  )
       117           C   tau( 117) = (   0.6635527   0.2829087   0.6471752  )
       118           C   tau( 118) = (  -0.0415936   0.0813781   0.6456238  )
       119           C   tau( 119) = (   0.0844200   0.1201526   0.2146908  )
       120           C   tau( 120) = (   0.7895664   0.3216832   0.2162422  )
       121           C   tau( 121) = (   0.5965323   0.2637230   0.6345919  )
       122           C   tau( 122) = (   0.0254268   0.0621923   0.6582070  )
       123           C   tau( 123) = (   0.1514404   0.1393383   0.2272741  )
       124           C   tau( 124) = (   0.7225460   0.3408689   0.2036589  )
       125           N   tau( 125) = (   0.5329071   0.0917770   0.3583639  )
       126           N   tau( 126) = (   0.3410793   0.2933077   0.0725691  )
       127           N   tau( 127) = (   0.2150657   0.3112842   0.5035021  )
       128           N   tau( 128) = (   0.4068934   0.1097536   0.7892969  )
       129           C   tau( 129) = (   0.5831821   0.0624745   0.4008539  )
       130           C   tau( 130) = (   0.2908042   0.2640051   0.0300791  )
       131           C   tau( 131) = (   0.1647906   0.3405867   0.4610121  )
       132           C   tau( 132) = (   0.4571685   0.1390561   0.8317869  )
       133           C   tau( 133) = (   0.3797579   0.1738403   0.5599543  )
       134           C   tau( 134) = (   0.2422012   0.3753709   0.7328446  )
       135           C   tau( 135) = (   0.3682149   0.2292209   0.3019117  )
       136           C   tau( 136) = (   0.5057715   0.0276903   0.1290213  )
       137           H   tau( 137) = (   0.3623848   0.1949095   0.6030571  )
       138           H   tau( 138) = (   0.2595744   0.3964401   0.6897419  )
       139           H   tau( 139) = (   0.3855880   0.2081517   0.2588089  )
       140           H   tau( 140) = (   0.4883984   0.0066211   0.1721241  )
       141           O   tau( 141) = (   0.5296983   0.1517526   0.2558018  )
       142           O   tau( 142) = (   0.3442881   0.3532832   0.1751312  )
       143           O   tau( 143) = (   0.2182744   0.2513087   0.6060642  )
       144           O   tau( 144) = (   0.4036847   0.0497781   0.6867348  )
       145           C   tau( 145) = (   0.3383276   0.1417163   0.5197052  )
       146           C   tau( 146) = (   0.2836316   0.3432469   0.7730938  )
       147           C   tau( 147) = (   0.4096452   0.2613449   0.3421608  )
       148           C   tau( 148) = (   0.4643412   0.0598143   0.0887722  )
       149           H   tau( 149) = (   0.2895711   0.1357486   0.5333959  )
       150           H   tau( 150) = (   0.3323880   0.3372792   0.7594030  )
       151           H   tau( 151) = (   0.4584016   0.2673126   0.3284701  )
       152           H   tau( 152) = (   0.4155847   0.0657820   0.1024629  )
       153           C   tau( 153) = (   0.5668303   0.2265204   0.5716757  )
       154           C   tau( 154) = (   0.0551288   0.0249898   0.7211233  )
       155           C   tau( 155) = (   0.1811424   0.1765408   0.2901903  )
       156           C   tau( 156) = (   0.6928440   0.3780714   0.1407427  )
       157           O   tau( 157) = (   0.5957707   0.1999184   0.5226355  )
       158           O   tau( 158) = (   0.0261885   0.4014490   0.7701634  )
       159           O   tau( 159) = (   0.1522021   0.2031429   0.3392304  )
       160           O   tau( 160) = (   0.7217843   0.0016122   0.0917025  )
       161           C   tau( 161) = (   0.4508984   0.1792413   0.5427170  )
       162           C   tau( 162) = (   0.1710607   0.3807719   0.7500820  )
       163           C   tau( 163) = (   0.2970743   0.2238199   0.3191490  )
       164           C   tau( 164) = (   0.5769121   0.0222893   0.1117840  )
       165           C   tau( 165) = (   0.4920410   0.2157184   0.5883959  )
       166           C   tau( 166) = (   0.1299181   0.0141878   0.7044031  )
       167           C   tau( 167) = (   0.2559318   0.1873429   0.2734701  )
       168           C   tau( 168) = (   0.6180546   0.3888735   0.1574629  )
       169           Cl  tau( 169) = (   0.7246044   0.2626750   0.5827076  )
       170           Cl  tau( 170) = (  -0.1026453   0.0611444   0.7100914  )
       171           Cl  tau( 171) = (   0.0233684   0.1403862   0.2791584  )
       172           Cl  tau( 172) = (   0.8506180   0.3419168   0.1517746  )
       173           Cl  tau( 173) = (   0.7646824   0.3343796   0.7195719  )
       174           Cl  tau( 174) = (  -0.1427233   0.1328490   0.5732271  )
       175           Cl  tau( 175) = (  -0.0167097   0.0686816   0.1422941  )
       176           Cl  tau( 176) = (   0.8906961   0.2702122   0.2886389  )
       177           O   tau( 177) = (   0.4214879   0.2511071   0.6853558  )
       178           O   tau( 178) = (   0.2004712   0.0495765   0.6074431  )
       179           O   tau( 179) = (   0.3264848   0.1519541   0.1765102  )
       180           O   tau( 180) = (   0.5475016   0.3534847   0.2544228  )
       181           C   tau( 181) = (   0.4769691   0.2451821   0.6614821  )
       182           C   tau( 182) = (   0.1449900   0.0436515   0.6313168  )
       183           C   tau( 183) = (   0.2710037   0.1578791   0.2003838  )
       184           C   tau( 184) = (   0.6029827   0.3594097   0.2305491  )

     --------------------------------------------
     DFT-D3 Dispersion Correction (3-body terms):
     --------------------------------------------
       Reference C6 values for interpolation: 

         atom   Coordination number   C6
         H          0.912             6.05
         H          0.000            15.18
         C          0.000            98.23
         C          0.987            86.49
         C          1.998            58.72
         C          2.999            51.56
         C          3.984            36.41
         N          0.000            50.54
         N          0.994            44.25
         N          2.014            39.35
         N          2.990            31.16
         O          0.000            31.01
         O          0.993            25.63
         O          1.989            20.74
         Cl         0.000           184.69
         Cl         0.997           180.80

       Values used:

         atom   Coordination number  R0_AB[au]  C6      C8
         Cl         1.273            2.933    180.80   7543.83
         Cl         1.273            2.933    180.80   7543.83
         Cl         1.273            2.933    180.80   7543.83
         Cl         1.273            2.933    180.80   7543.83
         Cl         1.407            2.933    180.80   7543.61
         Cl         1.407            2.933    180.80   7543.61
         Cl         1.407            2.933    180.80   7543.61
         Cl         1.407            2.933    180.80   7543.61
         Cl         1.266            2.933    180.81   7543.85
         Cl         1.266            2.933    180.81   7543.85
         Cl         1.266            2.933    180.81   7543.85
         Cl         1.266            2.933    180.81   7543.85
         Cl         1.402            2.933    180.80   7543.61
         Cl         1.402            2.933    180.80   7543.61
         Cl         1.402            2.933    180.80   7543.61
         Cl         1.402            2.933    180.80   7543.61
         Cl         1.352            2.933    180.80   7543.67
         Cl         1.352            2.933    180.80   7543.67
         Cl         1.352            2.933    180.80   7543.67
         Cl         1.352            2.933    180.80   7543.67
         Cl         1.235            2.933    180.81   7543.95
         Cl         1.235            2.933    180.81   7543.95
         Cl         1.235            2.933    180.81   7543.95
         Cl         1.235            2.933    180.81   7543.95
         O          1.070            2.345     25.51    514.73
         O          1.070            2.345     25.51    514.73
         O          1.070            2.345     25.51    514.73
         O          1.070            2.345     25.51    514.73
         N          3.192            2.478     31.20    688.26
         N          3.192            2.478     31.20    688.26
         N          3.192            2.478     31.20    688.26
         N          3.192            2.478     31.20    688.26
         H          1.022            2.062      6.16     74.50
         H          1.022            2.062      6.16     74.50
         H          1.022            2.062      6.16     74.50
         H          1.022            2.062      6.16     74.50
         C          3.180            2.750     50.26   1453.70
         C          3.180            2.750     50.26   1453.70
         C          3.180            2.750     50.26   1453.70
         C          3.180            2.750     50.26   1453.70
         H          1.016            2.062      6.17     74.55
         H          1.016            2.062      6.17     74.55
         H          1.016            2.062      6.17     74.55
         H          1.016            2.062      6.17     74.55
         C          3.238            2.750     49.58   1433.89
         C          3.238            2.750     49.58   1433.89
         C          3.238            2.750     49.58   1433.89
         C          3.238            2.750     49.58   1433.89
         C          3.279            2.750     48.95   1415.76
         C          3.279            2.750     48.95   1415.76
         C          3.279            2.750     48.95   1415.76
         C          3.279            2.750     48.95   1415.76
         C          3.276            2.750     49.00   1417.11
         C          3.276            2.750     49.00   1417.11
         C          3.276            2.750     49.00   1417.11
         C          3.276            2.750     49.00   1417.11
         C          3.203            2.750     50.03   1446.87
         C          3.203            2.750     50.03   1446.87
         C          3.203            2.750     50.03   1446.87
         C          3.203            2.750     50.03   1446.87
         H          1.016            2.062      6.17     74.55
         H          1.016            2.062      6.17     74.55
         H          1.016            2.062      6.17     74.55
         H          1.016            2.062      6.17     74.55
         C          3.164            2.750     50.41   1457.96
         C          3.164            2.750     50.41   1457.96
         C          3.164            2.750     50.41   1457.96
         C          3.164            2.750     50.41   1457.96
         H          1.017            2.062      6.17     74.54
         H          1.017            2.062      6.17     74.54
         H          1.017            2.062      6.17     74.54
         H          1.017            2.062      6.17     74.54
         C          3.380            2.750     46.74   1351.72
         C          3.380            2.750     46.74   1351.72
         C          3.380            2.750     46.74   1351.72
         C          3.380            2.750     46.74   1351.72
         C          3.414            2.750     45.83   1325.55
         C          3.414            2.750     45.83   1325.55
         C          3.414            2.750     45.83   1325.55
         C          3.414            2.750     45.83   1325.55
         C          3.262            2.750     49.23   1423.92
         C          3.262            2.750     49.23   1423.92
         C          3.262            2.750     49.23   1423.92
         C          3.262            2.750     49.23   1423.92
         C          3.301            2.750     48.54   1403.75
         C          3.301            2.750     48.54   1403.75
         C          3.301            2.750     48.54   1403.75
         C          3.301            2.750     48.54   1403.75
         C          3.319            2.750     48.18   1393.31
         C          3.319            2.750     48.18   1393.31
         C          3.319            2.750     48.18   1393.31
         C          3.319            2.750     48.18   1393.31
         C          3.256            2.750     49.32   1426.51
         C          3.256            2.750     49.32   1426.51
         C          3.256            2.750     49.32   1426.51
         C          3.256            2.750     49.32   1426.51
         C          3.236            2.750     49.61   1434.93
         C          3.236            2.750     49.61   1434.93
         C          3.236            2.750     49.61   1434.93
         C          3.236            2.750     49.61   1434.93
         C          3.324            2.750     48.08   1390.50
         C          3.324            2.750     48.08   1390.50
         C          3.324            2.750     48.08   1390.50
         C          3.324            2.750     48.08   1390.50
         C          3.240            2.750     49.56   1433.38
         C          3.240            2.750     49.56   1433.38
         C          3.240            2.750     49.56   1433.38
         C          3.240            2.750     49.56   1433.38
         C          3.292            2.750     48.71   1408.86
         C          3.292            2.750     48.71   1408.86
         C          3.292            2.750     48.71   1408.86
         C          3.292            2.750     48.71   1408.86
         C          3.303            2.750     48.50   1402.80
         C          3.303            2.750     48.50   1402.80
         C          3.303            2.750     48.50   1402.80
         C          3.303            2.750     48.50   1402.80
         C          3.289            2.750     48.76   1410.36
         C          3.289            2.750     48.76   1410.36
         C          3.289            2.750     48.76   1410.36
         C          3.289            2.750     48.76   1410.36
         C          3.359            2.750     47.27   1367.20
         C          3.359            2.750     47.27   1367.20
         C          3.359            2.750     47.27   1367.20
         C          3.359            2.750     47.27   1367.20
         N          3.270            2.478     31.18    687.91
         N          3.270            2.478     31.18    687.91
         N          3.270            2.478     31.18    687.91
         N          3.270            2.478     31.18    687.91
         C          3.239            2.750     49.57   1433.66
         C          3.239            2.750     49.57   1433.66
         C          3.239            2.750     49.57   1433.66
         C          3.239            2.750     49.57   1433.66
         C          3.161            2.750     50.44   1458.76
         C          3.161            2.750     50.44   1458.76
         C          3.161            2.750     50.44   1458.76
         C          3.161            2.750     50.44   1458.76
         H          1.020            2.062      6.16     74.51
         H          1.020            2.062      6.16     74.51
         H          1.020            2.062      6.16     74.51
         H          1.020            2.062      6.16     74.51
         O          1.061            2.345     25.52    515.06
         O          1.061            2.345     25.52    515.06
         O          1.061            2.345     25.52    515.06
         O          1.061            2.345     25.52    515.06
         C          3.148            2.750     50.55   1461.92
         C          3.148            2.750     50.55   1461.92
         C          3.148            2.750     50.55   1461.92
         C          3.148            2.750     50.55   1461.92
         H          1.016            2.062      6.17     74.55
         H          1.016            2.062      6.17     74.55
         H          1.016            2.062      6.17     74.55
         H          1.016            2.062      6.17     74.55
         C          3.166            2.750     50.40   1457.62
         C          3.166            2.750     50.40   1457.62
         C          3.166            2.750     50.40   1457.62
         C          3.166            2.750     50.40   1457.62
         O          1.068            2.345     25.51    514.83
         O          1.068            2.345     25.51    514.83
         O          1.068            2.345     25.51    514.83
         O          1.068            2.345     25.51    514.83
         C          3.212            2.750     49.92   1443.79
         C          3.212            2.750     49.92   1443.79
         C          3.212            2.750     49.92   1443.79
         C          3.212            2.750     49.92   1443.79
         C          3.230            2.750     49.69   1437.16
         C          3.230            2.750     49.69   1437.16
         C          3.230            2.750     49.69   1437.16
         C          3.230            2.750     49.69   1437.16
         Cl         1.301            2.933    180.80   7543.76
         Cl         1.301            2.933    180.80   7543.76
         Cl         1.301            2.933    180.80   7543.76
         Cl         1.301            2.933    180.80   7543.76
         Cl         1.411            2.933    180.80   7543.61
         Cl         1.411            2.933    180.80   7543.61
         Cl         1.411            2.933    180.80   7543.61
         Cl         1.411            2.933    180.80   7543.61
         O          1.053            2.345     25.54    515.34
         O          1.053            2.345     25.54    515.34
         O          1.053            2.345     25.54    515.34
         O          1.053            2.345     25.54    515.34
         C          3.131            2.750     50.68   1465.78
         C          3.131            2.750     50.68   1465.78
         C          3.131            2.750     50.68   1465.78
         C          3.131            2.750     50.68   1465.78

         Molecular C6 ( Ry / a.u.^6 ) =   1802027.87


     number of k points=     8  Gaussian smearing, width (Ry)=  0.0100
                       cart. coord. in units 2pi/alat
        k(    1) = (   0.0000000   0.0000000   0.0000000), wk =   0.2500000
        k(    2) = (   0.0000000   0.0000000  -0.5801366), wk =   0.2500000
        k(    3) = (   0.0000000  -1.2405063   0.0000000), wk =   0.2500000
        k(    4) = (   0.0000000  -1.2405063  -0.5801366), wk =   0.2500000
        k(    5) = (  -0.5000000   0.0000000  -0.1462102), wk =   0.2500000
        k(    6) = (  -0.5000000   0.0000000  -0.7263468), wk =   0.2500000
        k(    7) = (  -0.5000000  -1.2405063  -0.1462102), wk =   0.2500000
        k(    8) = (  -0.5000000  -1.2405063  -0.7263468), wk =   0.2500000

     Dense  grid:  2384549 G-vectors     FFT dimensions: ( 240,  96, 216)

     Smooth grid:   515133 G-vectors     FFT dimensions: ( 144,  60, 128)

     Estimated max dynamical RAM per process >     408.47 MB

     Estimated total dynamical RAM >      25.53 GB

     Atomic positions and unit cell read from directory:
     /scratch/calc/pyoutdir/pwscf.save/
     Atomic positions from file used, from input discarded
 

     Check: negative core charge=   -0.000004

     The initial density is read from file :
     /scratch/calc/pyoutdir/pwscf.save/charge-density

     Cannot read wfcs: file not found
     Starting wfcs are  664 randomized atomic wfcs
     Checking if some PAW data can be deallocated... 

     total cpu time spent up to now is       13.6 secs

     Self-consistent Calculation

     iteration #  1     ecut=    36.00 Ry     beta= 0.20
     PPCG style diagonalization
     ethr =  1.00E-05,  avg # of iterations = 16.0

     total cpu time spent up to now is      168.8 secs

     total energy              =   -5377.34600926 Ry
     estimated scf accuracy    <       0.09591766 Ry

     iteration #  2     ecut=    36.00 Ry     beta= 0.20
     PPCG style diagonalization
     ethr =  1.20E-05,  avg # of iterations =  9.7

     total cpu time spent up to now is      261.5 secs

     total energy              =   -5377.33759714 Ry
     estimated scf accuracy    <       0.03175673 Ry

     iteration #  3     ecut=    36.00 Ry     beta= 0.20
     PPCG style diagonalization
     ethr =  3.97E-06,  avg # of iterations =  9.7

     total cpu time spent up to now is      354.4 secs

     total energy              =   -5377.33730088 Ry
     estimated scf accuracy    <       0.00582037 Ry

     iteration #  4     ecut=    36.00 Ry     beta= 0.20
     PPCG style diagonalization
     ethr =  7.28E-07,  avg # of iterations =  9.5

     total cpu time spent up to now is      445.9 secs

     total energy              =   -5377.33772730 Ry
     estimated scf accuracy    <       0.00074524 Ry

     iteration #  5     ecut=    36.00 Ry     beta= 0.20
     PPCG style diagonalization
     ethr =  9.32E-08,  avg # of iterations =  7.3

     total cpu time spent up to now is      516.3 secs

     total energy              =   -5377.33773241 Ry
     estimated scf accuracy    <       0.00015730 Ry

     iteration #  6     ecut=    36.00 Ry     beta= 0.20
     PPCG style diagonalization
     ethr =  1.97E-08,  avg # of iterations =  7.7

     total cpu time spent up to now is      589.3 secs

     total energy              =   -5377.33773999 Ry
     estimated scf accuracy    <       0.00002650 Ry

     iteration #  7     ecut=    36.00 Ry     beta= 0.20
     PPCG style diagonalization
     ethr =  3.31E-09,  avg # of iterations =  6.3

     total cpu time spent up to now is      648.4 secs

     total energy              =   -5377.33774247 Ry
     estimated scf accuracy    <       0.00000379 Ry

     iteration #  8     ecut=    36.00 Ry     beta= 0.20
     PPCG style diagonalization
     ethr =  4.74E-10,  avg # of iterations =  6.0

     total cpu time spent up to now is      703.5 secs

     End of self-consistent calculation

          k = 0.0000 0.0000 0.0000 ( 64455 PWs)   bands (ev):

   -19.8061 -19.8043 -19.8022 -19.8010 -19.2984 -19.2974 -19.2960 -19.2950
   -18.6743 -18.6698 -18.6441 -18.6438 -18.4113 -18.4112 -18.3969 -18.3955
   -17.7034 -17.7010 -17.6766 -17.6747 -17.0661 -17.0655 -17.0638 -17.0632
   -16.5427 -16.5366 -16.5298 -16.5274 -16.2779 -16.2759 -16.2751 -16.2737
   -15.4832 -15.4799 -15.4650 -15.4611 -15.2103 -15.2006 -15.1967 -15.1896
   -14.9971 -14.9949 -14.9940 -14.9890 -14.7906 -14.7804 -14.7726 -14.7671
   -14.5067 -14.5034 -14.4685 -14.4534 -14.2358 -14.2343 -14.2262 -14.2244
   -14.0392 -14.0251 -14.0244 -14.0142 -13.9693 -13.9679 -13.9622 -13.9482
   -13.8751 -13.8716 -13.8512 -13.8381 -13.2554 -13.2537 -13.2237 -13.2163
   -12.7601 -12.7559 -12.7515 -12.7451 -12.2547 -12.2465 -12.2328 -12.2293
   -12.0758 -12.0647 -12.0636 -12.0590 -11.2731 -11.2576 -11.2508 -11.2317
   -11.1607 -11.1547 -11.1535 -11.1503 -10.8954 -10.8836 -10.8739 -10.8622
   -10.6883 -10.6797 -10.6557 -10.6504  -9.5729  -9.5638  -9.5614  -9.5481
    -9.4635  -9.4619  -9.4453  -9.4404  -9.2778  -9.2753  -9.2732  -9.2685
    -8.9643  -8.9549  -8.9428  -8.9347  -8.7595  -8.7536  -8.7480  -8.7470
    -8.3003  -8.2953  -8.2906  -8.2872  -8.0561  -8.0544  -8.0481  -8.0396
    -7.8527  -7.8277  -7.8165  -7.8139  -7.2492  -7.2308  -7.2180  -7.1974
    -6.9309  -6.9232  -6.9192  -6.9182  -6.6763  -6.6318  -6.6262  -6.6254
    -6.2815  -6.2740  -6.2129  -6.2016  -6.1955  -6.1878  -6.1355  -6.0656
    -5.8952  -5.8861  -5.8816  -5.8645  -5.7242  -5.7131  -5.6754  -5.6604
    -5.6457  -5.6402  -5.6167  -5.6158  -5.3087  -5.3007  -5.2883  -5.2753
    -5.0866  -5.0840  -5.0639  -5.0525  -4.8485  -4.8460  -4.8447  -4.8263
    -4.7244  -4.7178  -4.6927  -4.6853  -4.6343  -4.5932  -4.5427  -4.5380
    -4.5346  -4.4963  -4.4874  -4.4662  -4.4547  -4.3841  -4.3669  -4.3628
    -4.3129  -4.3051  -4.2470  -4.2457  -4.2031  -4.1641  -4.1598  -4.1231
    -4.1069  -4.0470  -4.0376  -4.0213  -4.0160  -4.0072  -3.9622  -3.9127
    -3.8917  -3.8735  -3.8568  -3.8345  -3.8053  -3.7522  -3.7415  -3.7411
    -3.7246  -3.6967  -3.6761  -3.6654  -3.6301  -3.6124  -3.5824  -3.5668
    -3.5081  -3.5075  -3.4607  -3.3796  -3.3258  -3.3116  -3.2815  -3.2786
    -3.2665  -3.2496  -3.2339  -3.2124  -3.2113  -3.2087  -3.1449  -3.1446
    -3.0898  -3.0484  -3.0120  -3.0056  -2.9903  -2.9730  -2.9695  -2.9379
    -2.8886  -2.8835  -2.8574  -2.8035  -2.7979  -2.7922  -2.7889  -2.7803
    -2.6835  -2.6744  -2.6661  -2.5873  -2.5675  -2.5653  -2.5590  -2.5285
    -2.5085  -2.4947  -2.4621  -2.4380  -2.2682  -2.2352  -2.1954  -2.1887
    -2.1572  -2.1342  -2.1209  -2.0832  -1.9363  -1.9187  -1.8996  -1.8770
    -1.8380  -1.8258  -1.8132  -1.7822  -1.7493  -1.7138  -1.6825  -1.6818
    -1.5880  -1.5804  -1.5518  -1.5447  -1.5037  -1.4980  -1.4093  -1.3729
    -1.3584  -1.3423  -1.3389  -1.3139  -1.1086  -1.1052  -1.1049  -1.0865
    -1.0835  -1.0777  -1.0534  -1.0393  -1.0321  -1.0054  -1.0048  -0.9610
    -0.9115  -0.9072  -0.8962  -0.8922  -0.8441  -0.8406  -0.8226  -0.7918
    -0.7841  -0.7774  -0.7539  -0.7246  -0.7091  -0.6970  -0.6604  -0.6196
    -0.5737  -0.5596  -0.5471  -0.5339  -0.3848  -0.3803  -0.3765  -0.3747
    -0.3663  -0.3508  -0.3406  -0.3394  -0.1293  -0.1152  -0.1019  -0.0905
    -0.0671  -0.0220   0.0005   0.0045   0.0123   0.0799   0.1068   0.1264
     0.1413   0.1483   0.1683   0.1700   0.2195   0.2469   0.2713   0.2856
     0.2899   0.3027   0.3902   0.4095   0.7548   0.7553   0.7683   0.7791
     0.8143   0.8574   0.8782   0.8808   0.8973   0.9433   0.9475   0.9546
     0.9952   0.9961   1.0025   1.0136   1.0647   1.0656   1.0758   1.0800
     1.1889   1.2013   1.2118   1.2541   1.2551   1.2787   1.2797   1.3094
     1.7472   1.7587   1.7754   1.7897   1.8337   1.8467   2.1178   2.1326
     3.8174   3.8243   3.8392   3.8455   4.1907   4.2108   4.2156   4.2341
     4.2380   4.2475   4.2739   4.3269   4.7792   4.7823   4.7878   4.8001
     5.1022   5.1628   5.1679   5.2176   5.3418   5.6260   5.6394   5.6799
     5.6849   5.7126   5.7706   5.8119   5.8551   5.8684   5.9174   5.9449
     5.9957   6.0157   6.1950   6.2184   6.2962   6.3009   6.3026   6.3463
     6.5107   6.5127   6.5396   6.5616   6.6887   6.7094   6.8688   6.9391
     6.9520   7.0017   7.0352   7.1113   7.2151   7.2216   7.3139   7.3926
     7.4584   7.4850   7.5088   7.5473   7.6068   7.6279   7.6369   7.6572
     7.6634   7.7277   7.7377   7.7592   7.8137   7.8418   7.8492   7.8572
     7.8844   7.9936   8.0505   8.0512   8.1453   8.1456   8.1681   8.2076

          k = 0.0000 0.0000-0.5801 ( 64392 PWs)   bands (ev):

   -19.8060 -19.8044 -19.8020 -19.8012 -19.2980 -19.2977 -19.2957 -19.2953
   -18.6743 -18.6698 -18.6440 -18.6438 -18.4112 -18.4112 -18.3969 -18.3955
   -17.7028 -17.7016 -17.6759 -17.6753 -17.0660 -17.0654 -17.0637 -17.0634
   -16.5398 -16.5397 -16.5286 -16.5284 -16.2771 -16.2759 -16.2754 -16.2742
   -15.4816 -15.4815 -15.4631 -15.4629 -15.2062 -15.2050 -15.1937 -15.1925
   -14.9963 -14.9954 -14.9924 -14.9915 -14.7826 -14.7814 -14.7738 -14.7725
   -14.5053 -14.5050 -14.4612 -14.4609 -14.2308 -14.2304 -14.2298 -14.2293
   -14.0328 -14.0317 -14.0198 -14.0184 -13.9675 -13.9661 -13.9575 -13.9563
   -13.8736 -13.8735 -13.8446 -13.8444 -13.2550 -13.2547 -13.2198 -13.2196
   -12.7561 -12.7550 -12.7515 -12.7504 -12.2506 -12.2505 -12.2313 -12.2312
   -12.0678 -12.0674 -12.0635 -12.0630 -11.2619 -11.2618 -11.2450 -11.2449
   -11.1573 -11.1570 -11.1530 -11.1526 -10.8858 -10.8843 -10.8740 -10.8724
   -10.6881 -10.6880 -10.6482 -10.6480  -9.5675  -9.5671  -9.5563  -9.5560
    -9.4543  -9.4536  -9.4510  -9.4502  -9.2758  -9.2751  -9.2727  -9.2720
    -8.9599  -8.9595  -8.9383  -8.9378  -8.7551  -8.7537  -8.7502  -8.7486
    -8.2953  -8.2948  -8.2923  -8.2922  -8.0545  -8.0535  -8.0454  -8.0444
    -7.8338  -7.8336  -7.8223  -7.8221  -7.2387  -7.2378  -7.2101  -7.2091
    -6.9272  -6.9261  -6.9219  -6.9207  -6.6537  -6.6534  -6.6264  -6.6261
    -6.2511  -6.2504  -6.2353  -6.2344  -6.1663  -6.1657  -6.1235  -6.1231
    -5.8914  -5.8909  -5.8773  -5.8769  -5.7044  -5.7041  -5.6812  -5.6811
    -5.6350  -5.6344  -5.6277  -5.6273  -5.2981  -5.2975  -5.2866  -5.2861
    -5.0736  -5.0734  -5.0660  -5.0656  -4.8581  -4.8578  -4.8122  -4.8120
    -4.6946  -4.6939  -4.6832  -4.6827  -4.6078  -4.6075  -4.5567  -4.5565
    -4.5054  -4.5051  -4.4883  -4.4881  -4.4655  -4.4650  -4.3813  -4.3806
    -4.3015  -4.3009  -4.2166  -4.2163  -4.2107  -4.2102  -4.1281  -4.1279
    -4.0678  -4.0676  -4.0513  -4.0508  -4.0169  -4.0163  -3.9379  -3.9375
    -3.9107  -3.9105  -3.8158  -3.8154  -3.7886  -3.7882  -3.7362  -3.7359
    -3.7054  -3.7050  -3.6600  -3.6597  -3.6161  -3.6160  -3.5735  -3.5732
    -3.4739  -3.4730  -3.4423  -3.4412  -3.3406  -3.3405  -3.2947  -3.2941
    -3.2501  -3.2497  -3.2263  -3.2261  -3.1743  -3.1740  -3.1592  -3.1586
    -3.0540  -3.0534  -2.9875  -2.9869  -2.9748  -2.9743  -2.9306  -2.9302
    -2.9018  -2.9015  -2.8873  -2.8871  -2.8032  -2.8024  -2.7793  -2.7787
    -2.6774  -2.6769  -2.6368  -2.6346  -2.5629  -2.5618  -2.5152  -2.5120
    -2.5032  -2.5017  -2.4715  -2.4706  -2.2339  -2.2335  -2.2145  -2.2143
    -2.1435  -2.1430  -2.1062  -2.1059  -1.9214  -1.9209  -1.8954  -1.8953
    -1.8437  -1.8433  -1.7912  -1.7910  -1.7082  -1.7072  -1.6890  -1.6885
    -1.5808  -1.5796  -1.5572  -1.5568  -1.4617  -1.4608  -1.4279  -1.4271
    -1.3507  -1.3497  -1.3253  -1.3243  -1.1087  -1.1084  -1.0978  -1.0977
    -1.0912  -1.0910  -1.0271  -1.0270  -1.0220  -1.0219  -0.9825  -0.9823
    -0.9260  -0.9259  -0.8628  -0.8627  -0.8437  -0.8428  -0.8257  -0.8250
    -0.7895  -0.7893  -0.7337  -0.7334  -0.6771  -0.6770  -0.6573  -0.6570
    -0.5772  -0.5763  -0.5464  -0.5455  -0.3842  -0.3836  -0.3672  -0.3670
    -0.3612  -0.3606  -0.3313  -0.3310  -0.1182  -0.1178  -0.1037  -0.1031
    -0.0350  -0.0345   0.0023   0.0024   0.0435   0.0436   0.1116   0.1121
     0.1430   0.1431   0.1748   0.1751   0.2556   0.2557   0.2699   0.2699
     0.2801   0.2804   0.3977   0.3978   0.7578   0.7582   0.7700   0.7706
     0.8388   0.8391   0.8704   0.8707   0.9465   0.9469   0.9632   0.9633
     0.9779   0.9785   0.9862   0.9870   1.0684   1.0697   1.0722   1.0733
     1.1917   1.1926   1.2323   1.2325   1.2734   1.2738   1.2960   1.2966
     1.7603   1.7627   1.7740   1.7765   1.8553   1.8555   2.1133   2.1136
     3.8289   3.8289   3.8357   3.8359   4.1969   4.1974   4.2176   4.2197
     4.2378   4.2403   4.3120   4.3122   4.7815   4.7822   4.7981   4.7989
     5.1339   5.1341   5.1868   5.1870   5.4899   5.4906   5.6332   5.6336
     5.6950   5.6954   5.8200   5.8207   5.8406   5.8408   5.9410   5.9417
     6.0175   6.0177   6.2074   6.2079   6.2943   6.2957   6.3285   6.3298
     6.4859   6.4871   6.5439   6.5449   6.7587   6.7591   6.8884   6.8889
     6.9195   6.9196   7.0078   7.0086   7.3154   7.3158   7.4238   7.4251
     7.4967   7.4968   7.5411   7.5423   7.5641   7.5651   7.6268   7.6277
     7.6864   7.6870   7.7400   7.7409   7.8132   7.8135   7.8632   7.8634
     7.9011   7.9014   7.9927   7.9928   8.1667   8.1674   8.2090   8.2093

          k = 0.0000-1.2405 0.0000 ( 64416 PWs)   bands (ev):

   -19.8060 -19.8042 -19.8021 -19.8009 -19.2983 -19.2974 -19.2960 -19.2950
   -18.6743 -18.6698 -18.6441 -18.6438 -18.4114 -18.4113 -18.3970 -18.3956
   -17.7006 -17.6994 -17.6777 -17.6772 -17.0660 -17.0654 -17.0634 -17.0633
   -16.5248 -16.5246 -16.5133 -16.5131 -16.2964 -16.2961 -16.2937 -16.2933
   -15.4793 -15.4792 -15.4617 -15.4616 -15.1980 -15.1975 -15.1890 -15.1885
   -15.0006 -15.0004 -14.9956 -14.9955 -14.7886 -14.7882 -14.7764 -14.7760
   -14.5181 -14.5179 -14.4448 -14.4445 -14.2334 -14.2329 -14.2254 -14.2249
   -14.0305 -14.0302 -14.0183 -14.0179 -13.9795 -13.9790 -13.9546 -13.9541
   -13.8696 -13.8694 -13.8446 -13.8444 -13.2496 -13.2493 -13.2203 -13.2200
   -12.7706 -12.7704 -12.7396 -12.7394 -12.2470 -12.2469 -12.2329 -12.2327
   -12.0872 -12.0869 -12.0423 -12.0420 -11.2668 -11.2665 -11.2387 -11.2383
   -11.1716 -11.1713 -11.1377 -11.1375 -10.8900 -10.8896 -10.8681 -10.8676
   -10.6756 -10.6754 -10.6604 -10.6602  -9.5699  -9.5697  -9.5530  -9.5530
    -9.4663  -9.4660  -9.4373  -9.4371  -9.2830  -9.2828  -9.2670  -9.2668
    -8.9622  -8.9619  -8.9357  -8.9354  -8.7553  -8.7549  -8.7493  -8.7489
    -8.3007  -8.3003  -8.2908  -8.2905  -8.0569  -8.0568  -8.0427  -8.0426
    -7.8225  -7.8223  -7.8199  -7.8196  -7.2443  -7.2439  -7.2198  -7.2193
    -6.9407  -6.9404  -6.9054  -6.9051  -6.6435  -6.6433  -6.6261  -6.6259
    -6.2798  -6.2795  -6.2121  -6.2118  -6.1930  -6.1928  -6.1014  -6.1013
    -5.8933  -5.8930  -5.8698  -5.8694  -5.7142  -5.7140  -5.6791  -5.6790
    -5.6372  -5.6364  -5.6134  -5.6128  -5.3097  -5.3095  -5.2722  -5.2720
    -5.0689  -5.0687  -5.0568  -5.0565  -4.8159  -4.8156  -4.7669  -4.7662
    -4.6979  -4.6973  -4.6395  -4.6393  -4.6053  -4.6047  -4.5568  -4.5565
    -4.4654  -4.4651  -4.4532  -4.4529  -4.3970  -4.3966  -4.3653  -4.3645
    -4.2896  -4.2892  -4.1511  -4.1509  -4.1437  -4.1435  -4.0913  -4.0907
    -4.0414  -4.0411  -4.0035  -4.0034  -3.9742  -3.9736  -3.9246  -3.9242
    -3.9043  -3.9039  -3.8723  -3.8710  -3.8055  -3.8046  -3.7736  -3.7733
    -3.7361  -3.7343  -3.7049  -3.7048  -3.6651  -3.6641  -3.6040  -3.6037
    -3.5738  -3.5733  -3.5488  -3.5486  -3.3955  -3.3950  -3.3823  -3.3817
    -3.2871  -3.2858  -3.2309  -3.2300  -3.2007  -3.2004  -3.1466  -3.1462
    -3.1137  -3.1133  -3.0934  -3.0924  -3.0095  -3.0085  -2.9745  -2.9744
    -2.9429  -2.9413  -2.8257  -2.8252  -2.8039  -2.8038  -2.7744  -2.7734
    -2.6843  -2.6838  -2.6449  -2.6443  -2.5448  -2.5445  -2.5119  -2.5112
    -2.4587  -2.4567  -2.3935  -2.3917  -2.2650  -2.2647  -2.2121  -2.2120
    -2.1487  -2.1486  -2.0684  -2.0681  -2.0454  -2.0453  -1.8979  -1.8974
    -1.8485  -1.8481  -1.8438  -1.8437  -1.7976  -1.7976  -1.6759  -1.6757
    -1.6458  -1.6455  -1.5250  -1.5246  -1.5037  -1.5033  -1.4688  -1.4684
    -1.3778  -1.3776  -1.2713  -1.2707  -1.1560  -1.1559  -1.0869  -1.0867
    -1.0523  -1.0522  -1.0043  -1.0040  -0.9733  -0.9731  -0.9300  -0.9296
    -0.8742  -0.8738  -0.8239  -0.8237  -0.7942  -0.7942  -0.7851  -0.7849
    -0.7413  -0.7410  -0.7238  -0.7235  -0.7017  -0.7016  -0.6939  -0.6938
    -0.6618  -0.6617  -0.6108  -0.6105  -0.3740  -0.3733  -0.3612  -0.3604
    -0.2674  -0.2663  -0.2262  -0.2253  -0.1690  -0.1688  -0.1171  -0.1168
    -0.1099  -0.1094  -0.0268  -0.0266   0.0201   0.0201   0.1041   0.1043
     0.1618   0.1626   0.2023   0.2027   0.2332   0.2337   0.2945   0.2950
     0.3050   0.3060   0.5748   0.5751   0.6901   0.6903   0.7037   0.7039
     0.7489   0.7492   0.8763   0.8764   0.9514   0.9518   0.9849   0.9854
     1.0276   1.0279   1.0401   1.0404   1.0750   1.0753   1.0843   1.0847
     1.1209   1.1210   1.2669   1.2671   1.2770   1.2773   1.4834   1.4838
     1.7573   1.7577   1.7778   1.7782   1.9235   1.9237   2.0301   2.0304
     3.8512   3.8514   3.8738   3.8741   4.1387   4.1389   4.2242   4.2242
     4.2340   4.2342   4.3315   4.3318   4.7341   4.7345   4.8180   4.8182
     5.0632   5.0634   5.2929   5.2931   5.4980   5.4980   5.6894   5.6896
     5.7498   5.7498   5.7875   5.7877   5.8100   5.8101   5.9056   5.9059
     6.0023   6.0025   6.1993   6.1997   6.2756   6.2760   6.2827   6.2828
     6.5597   6.5597   6.5712   6.5713   6.7748   6.7750   6.8341   6.8344
     6.9847   6.9853   7.0519   7.0526   7.3961   7.3961   7.4638   7.4641
     7.5005   7.5007   7.5460   7.5462   7.6092   7.6092   7.6429   7.6430
     7.8085   7.8087   7.8763   7.8763   7.9112   7.9115   8.0833   8.0837
     8.1404   8.1405   8.1842   8.1843   8.2187   8.2188   8.3342   8.3343

          k = 0.0000-1.2405-0.5801 ( 64392 PWs)   bands (ev):

   -19.8059 -19.8043 -19.8018 -19.8010 -19.2980 -19.2977 -19.2957 -19.2953
   -18.6743 -18.6698 -18.6441 -18.6438 -18.4113 -18.4113 -18.3970 -18.3956
   -17.7006 -17.6994 -17.6777 -17.6772 -17.0659 -17.0653 -17.0634 -17.0633
   -16.5242 -16.5241 -16.5138 -16.5138 -16.2960 -16.2957 -16.2940 -16.2937
   -15.4792 -15.4791 -15.4617 -15.4616 -15.1941 -15.1936 -15.1929 -15.1924
   -15.0005 -15.0004 -14.9958 -14.9957 -14.7836 -14.7834 -14.7814 -14.7811
   -14.5177 -14.5174 -14.4451 -14.4449 -14.2298 -14.2297 -14.2285 -14.2282
   -14.0265 -14.0264 -14.0218 -14.0217 -13.9699 -13.9697 -13.9657 -13.9655
   -13.8666 -13.8665 -13.8461 -13.8460 -13.2475 -13.2473 -13.2223 -13.2221
   -12.7696 -12.7694 -12.7404 -12.7403 -12.2465 -12.2463 -12.2329 -12.2328
   -12.0899 -12.0897 -12.0402 -12.0400 -11.2606 -11.2605 -11.2443 -11.2443
   -11.1709 -11.1706 -11.1387 -11.1384 -10.8798 -10.8794 -10.8783 -10.8778
   -10.6709 -10.6708 -10.6654 -10.6652  -9.5647  -9.5645  -9.5575  -9.5574
    -9.4656  -9.4653  -9.4380  -9.4378  -9.2810  -9.2808  -9.2689  -9.2686
    -8.9615  -8.9611  -8.9364  -8.9360  -8.7531  -8.7528  -8.7513  -8.7509
    -8.3006  -8.3003  -8.2904  -8.2901  -8.0570  -8.0569  -8.0432  -8.0431
    -7.8232  -7.8230  -7.8198  -7.8196  -7.2333  -7.2327  -7.2319  -7.2317
    -6.9305  -6.9304  -6.9183  -6.9181  -6.6393  -6.6392  -6.6294  -6.6292
    -6.2524  -6.2522  -6.2396  -6.2393  -6.1476  -6.1474  -6.1442  -6.1442
    -5.8915  -5.8912  -5.8748  -5.8747  -5.6980  -5.6979  -5.6845  -5.6844
    -5.6352  -5.6350  -5.6257  -5.6257  -5.3004  -5.3002  -5.2790  -5.2789
    -5.0647  -5.0644  -5.0596  -5.0594  -4.7944  -4.7943  -4.7717  -4.7716
    -4.6813  -4.6811  -4.6596  -4.6594  -4.5800  -4.5798  -4.5727  -4.5726
    -4.4631  -4.4628  -4.4491  -4.4489  -4.4107  -4.4104  -4.4017  -4.4016
    -4.2793  -4.2792  -4.1694  -4.1691  -4.1347  -4.1344  -4.0797  -4.0797
    -4.0415  -4.0414  -4.0135  -4.0134  -3.9439  -3.9438  -3.9427  -3.9425
    -3.9248  -3.9246  -3.8525  -3.8523  -3.8141  -3.8134  -3.7538  -3.7535
    -3.7528  -3.7525  -3.7071  -3.7066  -3.6254  -3.6251  -3.6224  -3.6223
    -3.5843  -3.5842  -3.5305  -3.5302  -3.3864  -3.3862  -3.3783  -3.3779
    -3.2955  -3.2951  -3.2510  -3.2503  -3.1748  -3.1746  -3.1674  -3.1673
    -3.1068  -3.1066  -3.0960  -3.0957  -2.9817  -2.9812  -2.9471  -2.9466
    -2.9161  -2.9159  -2.9115  -2.9113  -2.8243  -2.8242  -2.7839  -2.7836
    -2.6616  -2.6611  -2.6477  -2.6475  -2.5246  -2.5240  -2.5209  -2.5207
    -2.4379  -2.4376  -2.4184  -2.4182  -2.2445  -2.2441  -2.1923  -2.1920
    -2.1741  -2.1740  -2.0780  -2.0777  -2.0515  -2.0514  -1.8799  -1.8795
    -1.8709  -1.8706  -1.8416  -1.8413  -1.7847  -1.7846  -1.6813  -1.6811
    -1.6536  -1.6533  -1.5388  -1.5386  -1.4852  -1.4849  -1.4364  -1.4362
    -1.3945  -1.3943  -1.2741  -1.2736  -1.1573  -1.1572  -1.0689  -1.0688
    -1.0680  -1.0679  -1.0023  -1.0022  -0.9686  -0.9684  -0.9186  -0.9185
    -0.8901  -0.8900  -0.8335  -0.8334  -0.7962  -0.7961  -0.7824  -0.7822
    -0.7456  -0.7455  -0.7255  -0.7254  -0.6951  -0.6950  -0.6791  -0.6791
    -0.6512  -0.6512  -0.6352  -0.6351  -0.3758  -0.3757  -0.3589  -0.3587
    -0.2512  -0.2511  -0.2346  -0.2346  -0.1732  -0.1730  -0.1185  -0.1184
    -0.1129  -0.1128  -0.0430  -0.0429   0.0507   0.0509   0.1045   0.1046
     0.1553   0.1554   0.2050   0.2052   0.2530   0.2531   0.2718   0.2718
     0.3012   0.3015   0.5695   0.5697   0.6940   0.6940   0.7113   0.7114
     0.7386   0.7386   0.8804   0.8805   0.9645   0.9646   0.9720   0.9722
     1.0301   1.0304   1.0550   1.0551   1.0721   1.0725   1.0804   1.0807
     1.1178   1.1179   1.2641   1.2641   1.2720   1.2722   1.4840   1.4843
     1.7667   1.7670   1.7692   1.7696   1.9274   1.9276   2.0271   2.0273
     3.8584   3.8585   3.8676   3.8678   4.1401   4.1403   4.2229   4.2229
     4.2389   4.2390   4.3233   4.3235   4.7712   4.7712   4.7834   4.7834
     5.0618   5.0620   5.2896   5.2898   5.5587   5.5587   5.6204   5.6205
     5.7894   5.7897   5.8014   5.8016   5.8484   5.8484   5.9141   5.9141
     5.9174   5.9176   6.1983   6.1986   6.2562   6.2563   6.2976   6.2976
     6.5300   6.5301   6.5550   6.5551   6.7758   6.7759   6.9327   6.9327
     6.9365   6.9365   7.0429   7.0429   7.4348   7.4349   7.4404   7.4405
     7.5041   7.5043   7.5366   7.5366   7.6494   7.6494   7.7324   7.7325
     7.7432   7.7433   7.8385   7.8386   7.8828   7.8829   8.0239   8.0240
     8.1603   8.1603   8.2102   8.2103   8.2437   8.2439   8.3080   8.3081

          k =-0.5000 0.0000-0.1462 ( 64390 PWs)   bands (ev):

   -19.8061 -19.8043 -19.8021 -19.8009 -19.2984 -19.2974 -19.2960 -19.2950
   -18.6743 -18.6697 -18.6440 -18.6437 -18.4112 -18.4112 -18.3969 -18.3955
   -17.7034 -17.7010 -17.6765 -17.6747 -17.0661 -17.0654 -17.0637 -17.0633
   -16.5431 -16.5367 -16.5294 -16.5273 -16.2779 -16.2759 -16.2751 -16.2737
   -15.4832 -15.4799 -15.4649 -15.4611 -15.2103 -15.2007 -15.1967 -15.1896
   -14.9974 -14.9945 -14.9917 -14.9913 -14.7907 -14.7804 -14.7725 -14.7671
   -14.5080 -14.5066 -14.4676 -14.4495 -14.2357 -14.2352 -14.2255 -14.2244
   -14.0393 -14.0250 -14.0245 -14.0153 -13.9719 -13.9651 -13.9575 -13.9519
   -13.8695 -13.8668 -13.8568 -13.8431 -13.2615 -13.2594 -13.2149 -13.2125
   -12.7634 -12.7523 -12.7486 -12.7483 -12.2498 -12.2492 -12.2366 -12.2299
   -12.0712 -12.0675 -12.0637 -12.0585 -11.2758 -11.2594 -11.2501 -11.2320
   -11.1630 -11.1569 -11.1515 -11.1436 -10.8953 -10.8835 -10.8743 -10.8621
   -10.6894 -10.6858 -10.6551 -10.6438  -9.5753  -9.5619  -9.5587  -9.5515
    -9.4668  -9.4583  -9.4454  -9.4399  -9.2793  -9.2737  -9.2727  -9.2681
    -8.9617  -8.9522  -8.9459  -8.9384  -8.7590  -8.7537  -8.7523  -8.7421
    -8.2984  -8.2945  -8.2920  -8.2901  -8.0585  -8.0521  -8.0493  -8.0371
    -7.8407  -7.8293  -7.8240  -7.8150  -7.2485  -7.2317  -7.2186  -7.1959
    -6.9311  -6.9241  -6.9209  -6.9164  -6.6556  -6.6548  -6.6272  -6.6252
    -6.2886  -6.2793  -6.2213  -6.2059  -6.1821  -6.1715  -6.1138  -6.0899
    -5.8887  -5.8873  -5.8759  -5.8655  -5.7339  -5.7012  -5.6825  -5.6653
    -5.6584  -5.6374  -5.6201  -5.5957  -5.3169  -5.3029  -5.3001  -5.2654
    -5.0966  -5.0691  -5.0684  -5.0487  -4.8587  -4.8346  -4.8314  -4.8306
    -4.7405  -4.7014  -4.6867  -4.6812  -4.6073  -4.5946  -4.5708  -4.5653
    -4.5351  -4.5037  -4.4638  -4.4609  -4.4589  -4.4213  -4.3756  -4.3483
    -4.3079  -4.2865  -4.2493  -4.2463  -4.1900  -4.1632  -4.1616  -4.1103
    -4.0897  -4.0719  -4.0427  -4.0349  -4.0124  -4.0101  -3.9377  -3.9144
    -3.9077  -3.8907  -3.8442  -3.8300  -3.8282  -3.7524  -3.7459  -3.7357
    -3.6844  -3.6799  -3.6719  -3.6660  -3.6556  -3.6137  -3.5975  -3.5813
    -3.5222  -3.4681  -3.4200  -3.3998  -3.3372  -3.3165  -3.2966  -3.2793
    -3.2480  -3.2442  -3.2337  -3.2183  -3.2105  -3.2034  -3.1595  -3.1496
    -3.1165  -3.0192  -3.0176  -3.0035  -3.0023  -2.9786  -2.9382  -2.9225
    -2.9135  -2.8738  -2.8600  -2.8195  -2.7935  -2.7919  -2.7882  -2.7808
    -2.6854  -2.6661  -2.6614  -2.5924  -2.5757  -2.5677  -2.5453  -2.5185
    -2.5112  -2.5023  -2.4499  -2.4472  -2.2575  -2.2540  -2.2130  -2.1726
    -2.1475  -2.1332  -2.1156  -2.0887  -1.9217  -1.9111  -1.8939  -1.8914
    -1.8438  -1.8400  -1.8190  -1.7758  -1.7374  -1.7214  -1.6849  -1.6824
    -1.6102  -1.5629  -1.5574  -1.5369  -1.5036  -1.4965  -1.4095  -1.3735
    -1.3449  -1.3409  -1.3336  -1.3290  -1.1166  -1.1062  -1.0976  -1.0902
    -1.0892  -1.0785  -1.0494  -1.0484  -1.0278  -1.0129  -1.0045  -0.9558
    -0.9018  -0.8989  -0.8973  -0.8938  -0.8443  -0.8370  -0.8213  -0.7920
    -0.7874  -0.7819  -0.7376  -0.7326  -0.7085  -0.6986  -0.6610  -0.6286
    -0.5622  -0.5585  -0.5574  -0.5331  -0.3803  -0.3770  -0.3756  -0.3755
    -0.3691  -0.3554  -0.3464  -0.3262  -0.1360  -0.1128  -0.0973  -0.0942
    -0.0714  -0.0287  -0.0111   0.0250   0.0483   0.0554   0.1153   0.1277
     0.1307   0.1357   0.1535   0.1959   0.2222   0.2403   0.2735   0.2764
     0.2847   0.3118   0.3929   0.4100   0.7394   0.7555   0.7721   0.7914
     0.8158   0.8559   0.8743   0.8744   0.9011   0.9461   0.9514   0.9590
     0.9932   1.0017   1.0038   1.0076   1.0612   1.0663   1.0773   1.0785
     1.1887   1.1969   1.2165   1.2187   1.2539   1.2883   1.3003   1.3077
     1.7480   1.7590   1.7777   1.7887   1.8417   1.8682   2.1136   2.1149
     3.8147   3.8277   3.8414   3.8447   4.2006   4.2119   4.2204   4.2246
     4.2296   4.2517   4.2850   4.3121   4.7821   4.7874   4.7911   4.7922
     5.0885   5.1741   5.1814   5.2089   5.3425   5.6241   5.6476   5.6574
     5.7000   5.7040   5.7742   5.8140   5.8224   5.9033   5.9230   5.9523
     6.0061   6.0114   6.1817   6.2088   6.2918   6.3117   6.3121   6.3230
     6.5104   6.5245   6.5315   6.5587   6.6968   6.7122   6.8592   6.9387
     6.9412   7.0086   7.0607   7.0918   7.2106   7.2166   7.3794   7.4048
     7.4118   7.4734   7.4788   7.5822   7.5948   7.6163   7.6242   7.6452
     7.6605   7.7138   7.7605   7.8002   7.8271   7.8373   7.8497   7.8824
     7.8921   7.9797   8.0537   8.0584   8.1040   8.1414   8.1499   8.2532

          k =-0.5000 0.0000-0.7263 ( 64376 PWs)   bands (ev):

   -19.8060 -19.8044 -19.8020 -19.8011 -19.2980 -19.2977 -19.2957 -19.2953
   -18.6743 -18.6697 -18.6440 -18.6438 -18.4112 -18.4112 -18.3969 -18.3954
   -17.7028 -17.7016 -17.6759 -17.6753 -17.0660 -17.0653 -17.0638 -17.0634
   -16.5401 -16.5399 -16.5284 -16.5282 -16.2771 -16.2759 -16.2754 -16.2742
   -15.4815 -15.4815 -15.4631 -15.4630 -15.2062 -15.2050 -15.1937 -15.1925
   -14.9953 -14.9947 -14.9931 -14.9924 -14.7825 -14.7812 -14.7739 -14.7726
   -14.5076 -14.5073 -14.4587 -14.4584 -14.2311 -14.2309 -14.2294 -14.2291
   -14.0329 -14.0318 -14.0203 -14.0189 -13.9644 -13.9642 -13.9589 -13.9586
   -13.8685 -13.8684 -13.8499 -13.8497 -13.2605 -13.2603 -13.2140 -13.2138
   -12.7581 -12.7578 -12.7482 -12.7479 -12.2498 -12.2496 -12.2329 -12.2326
   -12.0698 -12.0695 -12.0615 -12.0611 -11.2631 -11.2630 -11.2456 -11.2455
   -11.1598 -11.1596 -11.1480 -11.1477 -10.8859 -10.8844 -10.8738 -10.8722
   -10.6833 -10.6830 -10.6537 -10.6533  -9.5675  -9.5673  -9.5566  -9.5564
    -9.4560  -9.4554  -9.4490  -9.4484  -9.2808  -9.2798  -9.2672  -9.2662
    -8.9570  -8.9566  -8.9418  -8.9414  -8.7569  -8.7556  -8.7480  -8.7468
    -8.2966  -8.2958  -8.2916  -8.2910  -8.0558  -8.0550  -8.0433  -8.0425
    -7.8444  -7.8441  -7.8115  -7.8112  -7.2384  -7.2375  -7.2103  -7.2094
    -6.9271  -6.9267  -6.9213  -6.9209  -6.6592  -6.6587  -6.6238  -6.6232
    -6.2602  -6.2598  -6.2292  -6.2288  -6.1479  -6.1473  -6.1361  -6.1355
    -5.8863  -5.8858  -5.8778  -5.8772  -5.7057  -5.7052  -5.6851  -5.6850
    -5.6497  -5.6492  -5.6089  -5.6088  -5.3021  -5.3020  -5.2885  -5.2883
    -5.0814  -5.0811  -5.0576  -5.0573  -4.8433  -4.8430  -4.8287  -4.8283
    -4.7135  -4.7130  -4.6362  -4.6360  -4.6164  -4.6163  -4.5761  -4.5758
    -4.5140  -4.5138  -4.4843  -4.4838  -4.4513  -4.4507  -4.3952  -4.3946
    -4.2970  -4.2965  -4.2216  -4.2210  -4.1971  -4.1968  -4.1486  -4.1484
    -4.0630  -4.0626  -4.0290  -4.0285  -4.0165  -4.0158  -3.9390  -3.9387
    -3.9122  -3.9116  -3.8209  -3.8206  -3.7947  -3.7944  -3.7415  -3.7413
    -3.6892  -3.6882  -3.6557  -3.6551  -3.6289  -3.6288  -3.5989  -3.5988
    -3.4757  -3.4749  -3.4075  -3.4068  -3.3316  -3.3314  -3.2973  -3.2970
    -3.2555  -3.2551  -3.2347  -3.2344  -3.1739  -3.1735  -3.1565  -3.1562
    -3.0406  -3.0399  -2.9930  -2.9925  -2.9747  -2.9742  -2.9417  -2.9411
    -2.9165  -2.9158  -2.8712  -2.8712  -2.8099  -2.8090  -2.7734  -2.7727
    -2.6845  -2.6833  -2.6315  -2.6283  -2.5595  -2.5588  -2.5220  -2.5207
    -2.4913  -2.4901  -2.4797  -2.4789  -2.2374  -2.2372  -2.2186  -2.2184
    -2.1355  -2.1349  -2.1073  -2.1069  -1.9325  -1.9321  -1.8834  -1.8832
    -1.8332  -1.8329  -1.8012  -1.7999  -1.7067  -1.7057  -1.6914  -1.6909
    -1.5752  -1.5745  -1.5608  -1.5596  -1.4608  -1.4599  -1.4276  -1.4269
    -1.3570  -1.3563  -1.3205  -1.3199  -1.1007  -1.1003  -1.0967  -1.0966
    -1.0921  -1.0920  -1.0436  -1.0433  -1.0170  -1.0166  -0.9819  -0.9818
    -0.9235  -0.9233  -0.8600  -0.8600  -0.8425  -0.8417  -0.8291  -0.8283
    -0.7879  -0.7878  -0.7300  -0.7299  -0.6821  -0.6820  -0.6621  -0.6620
    -0.5645  -0.5637  -0.5529  -0.5522  -0.3773  -0.3766  -0.3649  -0.3642
    -0.3636  -0.3631  -0.3442  -0.3438  -0.1202  -0.1194  -0.1008  -0.0999
    -0.0456  -0.0454   0.0052   0.0055   0.0522   0.0524   0.1156   0.1160
     0.1470   0.1472   0.1694   0.1698   0.2507   0.2513   0.2736   0.2740
     0.2767   0.2772   0.4004   0.4005   0.7470   0.7471   0.7874   0.7877
     0.8309   0.8313   0.8767   0.8770   0.9434   0.9439   0.9604   0.9605
     0.9835   0.9840   0.9905   0.9911   1.0676   1.0687   1.0720   1.0728
     1.1917   1.1920   1.2178   1.2186   1.2783   1.2785   1.3031   1.3038
     1.7608   1.7631   1.7740   1.7764   1.8405   1.8407   2.1249   2.1252
     3.8270   3.8281   3.8368   3.8379   4.2055   4.2059   4.2240   4.2254
     4.2317   4.2334   4.3019   4.3021   4.7817   4.7827   4.7969   4.7981
     5.1185   5.1187   5.2071   5.2073   5.4925   5.4932   5.6367   5.6372
     5.6813   5.6816   5.8234   5.8238   5.8371   5.8374   5.9704   5.9713
     6.0081   6.0084   6.1953   6.1957   6.2894   6.2904   6.3193   6.3204
     6.4938   6.4948   6.5413   6.5423   6.7697   6.7702   6.8751   6.8758
     6.9259   6.9261   7.0026   7.0034   7.3125   7.3132   7.4436   7.4441
     7.5202   7.5204   7.5367   7.5376   7.5732   7.5733   7.6132   7.6134
     7.6954   7.6956   7.7189   7.7190   7.8120   7.8122   7.8448   7.8451
     7.9166   7.9170   7.9897   7.9899   8.1465   8.1469   8.2494   8.2497

          k =-0.5000-1.2405-0.1462 ( 64384 PWs)   bands (ev):

   -19.8060 -19.8042 -19.8020 -19.8008 -19.2983 -19.2974 -19.2960 -19.2950
   -18.6743 -18.6698 -18.6440 -18.6438 -18.4114 -18.4113 -18.3970 -18.3956
   -17.7006 -17.6994 -17.6777 -17.6772 -17.0660 -17.0655 -17.0633 -17.0632
   -16.5245 -16.5244 -16.5136 -16.5134 -16.2964 -16.2961 -16.2937 -16.2933
   -15.4793 -15.4791 -15.4617 -15.4616 -15.1980 -15.1975 -15.1890 -15.1885
   -15.0025 -15.0024 -14.9934 -14.9933 -14.7884 -14.7880 -14.7765 -14.7761
   -14.5207 -14.5204 -14.4423 -14.4420 -14.2337 -14.2333 -14.2253 -14.2248
   -14.0306 -14.0302 -14.0184 -14.0181 -13.9793 -13.9788 -13.9546 -13.9541
   -13.8662 -13.8660 -13.8479 -13.8477 -13.2476 -13.2473 -13.2223 -13.2221
   -12.7768 -12.7767 -12.7325 -12.7323 -12.2459 -12.2458 -12.2348 -12.2347
   -12.0891 -12.0889 -12.0402 -12.0399 -11.2681 -11.2677 -11.2379 -11.2375
   -11.1752 -11.1750 -11.1329 -11.1326 -10.8897 -10.8892 -10.8682 -10.8677
   -10.6728 -10.6726 -10.6642 -10.6639  -9.5731  -9.5729  -9.5494  -9.5493
    -9.4630  -9.4628  -9.4410  -9.4407  -9.2796  -9.2794  -9.2705  -9.2702
    -8.9591  -8.9588  -8.9385  -8.9382  -8.7563  -8.7560  -8.7479  -8.7476
    -8.2977  -8.2972  -8.2941  -8.2939  -8.0647  -8.0646  -8.0351  -8.0350
    -7.8217  -7.8214  -7.8202  -7.8198  -7.2440  -7.2436  -7.2201  -7.2196
    -6.9414  -6.9411  -6.9051  -6.9048  -6.6429  -6.6427  -6.6277  -6.6275
    -6.2852  -6.2849  -6.2252  -6.2250  -6.1811  -6.1810  -6.0899  -6.0898
    -5.8945  -5.8942  -5.8659  -5.8655  -5.7085  -5.7083  -5.6763  -5.6762
    -5.6462  -5.6455  -5.6145  -5.6141  -5.3099  -5.3098  -5.2751  -5.2750
    -5.0851  -5.0850  -5.0434  -5.0431  -4.8338  -4.8332  -4.7604  -4.7603
    -4.7004  -4.6998  -4.6306  -4.6303  -4.6009  -4.6002  -4.5621  -4.5619
    -4.4642  -4.4639  -4.4360  -4.4358  -4.3967  -4.3963  -4.3845  -4.3836
    -4.2646  -4.2641  -4.1667  -4.1665  -4.1419  -4.1417  -4.0950  -4.0945
    -4.0573  -4.0570  -3.9914  -3.9913  -3.9676  -3.9672  -3.9346  -3.9344
    -3.9070  -3.9065  -3.8458  -3.8448  -3.7910  -3.7901  -3.7650  -3.7646
    -3.7420  -3.7384  -3.7147  -3.7141  -3.6821  -3.6818  -3.6218  -3.6212
    -3.5641  -3.5638  -3.5440  -3.5438  -3.3950  -3.3947  -3.3825  -3.3814
    -3.2841  -3.2823  -3.2271  -3.2258  -3.2136  -3.2132  -3.1508  -3.1506
    -3.1228  -3.1222  -3.0919  -3.0908  -3.0137  -3.0126  -2.9599  -2.9595
    -2.9297  -2.9275  -2.8363  -2.8358  -2.8070  -2.8066  -2.7775  -2.7765
    -2.6876  -2.6872  -2.6375  -2.6370  -2.5526  -2.5524  -2.5046  -2.5040
    -2.4582  -2.4561  -2.3945  -2.3926  -2.2436  -2.2432  -2.2125  -2.2124
    -2.1414  -2.1413  -2.0919  -2.0915  -2.0394  -2.0392  -1.8774  -1.8764
    -1.8672  -1.8667  -1.8395  -1.8390  -1.8117  -1.8113  -1.6765  -1.6764
    -1.6415  -1.6411  -1.5497  -1.5491  -1.5212  -1.5210  -1.4239  -1.4238
    -1.3839  -1.3836  -1.2671  -1.2666  -1.1580  -1.1578  -1.0907  -1.0905
    -1.0487  -1.0487  -1.0047  -1.0045  -0.9748  -0.9746  -0.9332  -0.9328
    -0.8753  -0.8748  -0.8250  -0.8250  -0.7932  -0.7931  -0.7707  -0.7705
    -0.7517  -0.7515  -0.7182  -0.7179  -0.7056  -0.7055  -0.6932  -0.6930
    -0.6612  -0.6610  -0.6096  -0.6094  -0.3762  -0.3757  -0.3532  -0.3525
    -0.2636  -0.2625  -0.2332  -0.2323  -0.1691  -0.1689  -0.1245  -0.1243
    -0.1064  -0.1062  -0.0243  -0.0241   0.0181   0.0183   0.1077   0.1079
     0.1576   0.1580   0.1973   0.1981   0.2327   0.2331   0.2926   0.2931
     0.3121   0.3131   0.5746   0.5750   0.6762   0.6765   0.7049   0.7051
     0.7764   0.7765   0.8545   0.8545   0.9493   0.9498   0.9866   0.9868
     1.0331   1.0333   1.0566   1.0568   1.0767   1.0769   1.0824   1.0829
     1.1115   1.1116   1.2667   1.2671   1.2761   1.2765   1.4819   1.4823
     1.7581   1.7585   1.7777   1.7781   1.9265   1.9267   2.0274   2.0277
     3.8514   3.8516   3.8737   3.8740   4.1369   4.1372   4.2302   4.2306
     4.2379   4.2383   4.3227   4.3229   4.7287   4.7290   4.8275   4.8276
     5.0572   5.0574   5.2889   5.2891   5.5116   5.5116   5.6857   5.6859
     5.7497   5.7498   5.7956   5.7958   5.8043   5.8044   5.9047   5.9050
     6.0062   6.0064   6.1858   6.1862   6.2782   6.2783   6.2838   6.2842
     6.5538   6.5538   6.5748   6.5749   6.7772   6.7776   6.8356   6.8360
     6.9877   6.9883   7.0473   7.0479   7.4173   7.4173   7.4591   7.4593
     7.4974   7.4976   7.5436   7.5439   7.5932   7.5935   7.6750   7.6750
     7.7663   7.7665   7.8864   7.8864   7.9254   7.9256   8.0376   8.0377
     8.1391   8.1393   8.2072   8.2073   8.2559   8.2559   8.3321   8.3323

          k =-0.5000-1.2405-0.7263 ( 64328 PWs)   bands (ev):

   -19.8059 -19.8043 -19.8018 -19.8010 -19.2980 -19.2977 -19.2957 -19.2953
   -18.6743 -18.6698 -18.6440 -18.6438 -18.4113 -18.4113 -18.3970 -18.3955
   -17.7006 -17.6993 -17.6777 -17.6772 -17.0660 -17.0654 -17.0633 -17.0632
   -16.5239 -16.5239 -16.5141 -16.5141 -16.2960 -16.2957 -16.2940 -16.2937
   -15.4792 -15.4791 -15.4617 -15.4616 -15.1941 -15.1936 -15.1929 -15.1924
   -15.0024 -15.0024 -14.9935 -14.9935 -14.7841 -14.7839 -14.7807 -14.7805
   -14.5202 -14.5199 -14.4428 -14.4425 -14.2303 -14.2303 -14.2280 -14.2278
   -14.0266 -14.0264 -14.0220 -14.0219 -13.9695 -13.9693 -13.9661 -13.9657
   -13.8615 -13.8614 -13.8510 -13.8509 -13.2454 -13.2451 -13.2245 -13.2242
   -12.7736 -12.7735 -12.7361 -12.7359 -12.2456 -12.2454 -12.2352 -12.2351
   -12.0863 -12.0860 -12.0423 -12.0421 -11.2627 -11.2626 -11.2434 -11.2434
   -11.1749 -11.1747 -11.1332 -11.1329 -10.8798 -10.8793 -10.8783 -10.8777
   -10.6735 -10.6734 -10.6634 -10.6632  -9.5697  -9.5696  -9.5522  -9.5521
    -9.4593  -9.4591  -9.4446  -9.4444  -9.2804  -9.2802  -9.2692  -9.2690
    -8.9583  -8.9579  -8.9396  -8.9393  -8.7538  -8.7537  -8.7501  -8.7498
    -8.2979  -8.2975  -8.2933  -8.2931  -8.0649  -8.0648  -8.0356  -8.0354
    -7.8231  -7.8230  -7.8191  -7.8189  -7.2338  -7.2334  -7.2312  -7.2312
    -6.9283  -6.9282  -6.9207  -6.9204  -6.6407  -6.6406  -6.6272  -6.6270
    -6.2658  -6.2655  -6.2371  -6.2368  -6.1673  -6.1672  -6.1111  -6.1110
    -5.8916  -5.8913  -5.8717  -5.8715  -5.6948  -5.6947  -5.6809  -5.6809
    -5.6366  -5.6363  -5.6335  -5.6335  -5.3109  -5.3107  -5.2657  -5.2656
    -5.0847  -5.0845  -5.0435  -5.0432  -4.8038  -4.8036  -4.7924  -4.7923
    -4.6983  -4.6981  -4.6178  -4.6177  -4.5765  -4.5762  -4.5751  -4.5750
    -4.4670  -4.4668  -4.4333  -4.4330  -4.4058  -4.4056  -4.4051  -4.4050
    -4.2885  -4.2883  -4.1681  -4.1678  -4.1328  -4.1325  -4.0813  -4.0813
    -4.0434  -4.0433  -4.0218  -4.0217  -3.9417  -3.9414  -3.9398  -3.9395
    -3.9259  -3.9257  -3.8176  -3.8171  -3.8148  -3.8145  -3.7561  -3.7561
    -3.7484  -3.7483  -3.6927  -3.6923  -3.6884  -3.6880  -3.6023  -3.6019
    -3.5836  -3.5835  -3.5484  -3.5482  -3.3844  -3.3841  -3.3710  -3.3707
    -3.2985  -3.2978  -3.2471  -3.2464  -3.1714  -3.1712  -3.1696  -3.1694
    -3.1058  -3.1055  -3.0953  -3.0950  -2.9878  -2.9871  -2.9612  -2.9608
    -2.9104  -2.9102  -2.8908  -2.8907  -2.8179  -2.8179  -2.7856  -2.7853
    -2.6599  -2.6593  -2.6472  -2.6471  -2.5455  -2.5454  -2.5032  -2.5030
    -2.4323  -2.4317  -2.4300  -2.4298  -2.2602  -2.2599  -2.1960  -2.1957
    -2.1605  -2.1604  -2.0953  -2.0949  -2.0385  -2.0383  -1.8870  -1.8866
    -1.8432  -1.8427  -1.8420  -1.8418  -1.8029  -1.8027  -1.6673  -1.6670
    -1.6502  -1.6499  -1.5101  -1.5100  -1.4776  -1.4775  -1.4700  -1.4699
    -1.4081  -1.4077  -1.2722  -1.2717  -1.1551  -1.1550  -1.0817  -1.0816
    -1.0633  -1.0632  -1.0030  -1.0028  -0.9620  -0.9618  -0.9241  -0.9239
    -0.8910  -0.8909  -0.8283  -0.8282  -0.8044  -0.8042  -0.7882  -0.7881
    -0.7349  -0.7348  -0.7203  -0.7201  -0.6966  -0.6965  -0.6783  -0.6783
    -0.6528  -0.6528  -0.6357  -0.6357  -0.3730  -0.3729  -0.3636  -0.3634
    -0.2474  -0.2473  -0.2364  -0.2363  -0.1680  -0.1678  -0.1327  -0.1326
    -0.1045  -0.1044  -0.0126  -0.0124   0.0150   0.0151   0.1080   0.1082
     0.1565   0.1567   0.2029   0.2033   0.2545   0.2546   0.2714   0.2714
     0.3055   0.3057   0.5762   0.5764   0.6837   0.6837   0.7013   0.7014
     0.7772   0.7773   0.8505   0.8506   0.9603   0.9604   0.9777   0.9779
     1.0318   1.0319   1.0556   1.0557   1.0699   1.0703   1.0848   1.0851
     1.1196   1.1197   1.2639   1.2639   1.2734   1.2736   1.4827   1.4830
     1.7673   1.7675   1.7696   1.7700   1.9243   1.9246   2.0301   2.0304
     3.8596   3.8597   3.8666   3.8668   4.1395   4.1397   4.2311   4.2312
     4.2382   4.2384   4.3174   4.3176   4.7644   4.7644   4.7846   4.7846
     5.0667   5.0669   5.2913   5.2915   5.5684   5.5684   5.6122   5.6123
     5.7924   5.7927   5.7945   5.7947   5.8537   5.8538   5.8944   5.8946
     5.9387   5.9388   6.1808   6.1811   6.2775   6.2775   6.2834   6.2835
     6.5321   6.5322   6.5542   6.5542   6.7855   6.7856   6.9341   6.9342
     6.9356   6.9356   7.0404   7.0404   7.4327   7.4328   7.4374   7.4375
     7.5014   7.5016   7.5350   7.5351   7.6701   7.6701   7.7130   7.7132
     7.7728   7.7728   7.7968   7.7969   7.9388   7.9390   7.9729   7.9730
     8.1729   8.1730   8.1842   8.1844   8.2615   8.2616   8.3218   8.3219

     the Fermi energy is     2.9439 ev

!    total energy              =   -5377.33774573 Ry
     total all-electron energy =    -40774.139128 Ry
     estimated scf accuracy    <       0.00000082 Ry
     smearing contrib. (-TS)   =      -0.00000000 Ry
     internal energy E=F+TS    =   -5377.33774573 Ry

     The total energy is F=E-TS. E is the sum of the following terms:
     one-electron contribution =   -2344.82289264 Ry
     hartree contribution      =    1498.56807171 Ry
     xc contribution           =   -1007.05077028 Ry
     ewald contribution        =   -1209.94257499 Ry
     DFT-D3 Dispersion         =      -1.38090586 Ry
     one-center paw contrib.   =   -2312.70867367 Ry

     convergence has been achieved in   8 iterations

     Forces acting on atoms (cartesian axes, Ry/au):

     atom    1 type  1   force =    -0.00021312   -0.00012049    0.00080241
     atom    2 type  1   force =     0.00022616   -0.00009667   -0.00075593
     atom    3 type  1   force =     0.00022219    0.00008316   -0.00073261
     atom    4 type  1   force =    -0.00020640    0.00012053    0.00080664
     atom    5 type  1   force =     0.00089051    0.00052661    0.00058220
     atom    6 type  1   force =    -0.00088471    0.00052698   -0.00058501
     atom    7 type  1   force =    -0.00087271   -0.00053178   -0.00057784
     atom    8 type  1   force =     0.00088028   -0.00053165    0.00057468
     atom    9 type  1   force =     0.00029322    0.00054111   -0.00079504
     atom   10 type  1   force =    -0.00030555    0.00053191    0.00081086
     atom   11 type  1   force =    -0.00032162   -0.00052968    0.00081690
     atom   12 type  1   force =     0.00032635   -0.00050983   -0.00075370
     atom   13 type  1   force =     0.00072527    0.00063678    0.00025145
     atom   14 type  1   force =    -0.00071341    0.00063626   -0.00025592
     atom   15 type  1   force =    -0.00069018   -0.00062871   -0.00027633
     atom   16 type  1   force =     0.00068776   -0.00063038    0.00027617
     atom   17 type  1   force =     0.00029883    0.00060625    0.00024470
     atom   18 type  1   force =    -0.00029425    0.00060489   -0.00024224
     atom   19 type  1   force =    -0.00026330   -0.00059526   -0.00023811
     atom   20 type  1   force =     0.00026256   -0.00059164    0.00023183
     atom   21 type  1   force =    -0.00057901   -0.00012199    0.00027482
     atom   22 type  1   force =     0.00056758   -0.00012200   -0.00026456
     atom   23 type  1   force =     0.00052834    0.00012786   -0.00022241
     atom   24 type  1   force =    -0.00052481    0.00012987    0.00021855
     atom   25 type  2   force =    -0.00057131   -0.00187192    0.00144383
     atom   26 type  2   force =    -0.00025122    0.00023365    0.00225784
     atom   27 type  2   force =    -0.00054724   -0.00099534    0.00357093
     atom   28 type  2   force =    -0.00075664    0.00231132    0.00224863
     atom   29 type  3   force =    -0.00075040   -0.00026531    0.00045783
     atom   30 type  3   force =     0.00077744   -0.00028399   -0.00041789
     atom   31 type  3   force =    -0.00050102    0.00027799    0.00017375
     atom   32 type  3   force =     0.00068157    0.00026069   -0.00020170
     atom   33 type  4   force =     0.00064632   -0.00029231   -0.00070597
     atom   34 type  4   force =    -0.00066589   -0.00031654    0.00070490
     atom   35 type  4   force =     0.00006997    0.00050975    0.00067275
     atom   36 type  4   force =    -0.00017909    0.00049156   -0.00067253
     atom   37 type  5   force =     0.00065885    0.00030579   -0.00092160
     atom   38 type  5   force =    -0.00069172    0.00027146    0.00097957
     atom   39 type  5   force =    -0.00039422   -0.00032337    0.00073505
     atom   40 type  5   force =     0.00035670   -0.00036556   -0.00065825
     atom   41 type  4   force =    -0.00001479    0.00030702    0.00048079
     atom   42 type  4   force =     0.00001085    0.00032803   -0.00048796
     atom   43 type  4   force =    -0.00010480   -0.00034208   -0.00045442
     atom   44 type  4   force =     0.00010660   -0.00032933    0.00044902
     atom   45 type  5   force =    -0.00038513    0.00017641   -0.00041869
     atom   46 type  5   force =     0.00036041    0.00020362    0.00039347
     atom   47 type  5   force =     0.00003364   -0.00012803    0.00067226
     atom   48 type  5   force =    -0.00004442   -0.00008577   -0.00072583
     atom   49 type  5   force =    -0.00064028    0.00026962    0.00053505
     atom   50 type  5   force =     0.00063016    0.00026881   -0.00051586
     atom   51 type  5   force =     0.00114232   -0.00016433   -0.00053295
     atom   52 type  5   force =    -0.00119731   -0.00014621    0.00054303
     atom   53 type  5   force =    -0.00051289    0.00062356   -0.00011053
     atom   54 type  5   force =     0.00050963    0.00059872   -0.00009919
     atom   55 type  5   force =     0.00040677   -0.00060798   -0.00017574
     atom   56 type  5   force =    -0.00041062   -0.00066721   -0.00013549
     atom   57 type  5   force =     0.00037785   -0.00009663   -0.00028943
     atom   58 type  5   force =    -0.00043139   -0.00010693    0.00035784
     atom   59 type  5   force =    -0.00020499    0.00009259    0.00025586
     atom   60 type  5   force =     0.00011749    0.00009712   -0.00018102
     atom   61 type  4   force =     0.00053752   -0.00011029   -0.00024884
     atom   62 type  4   force =    -0.00051902   -0.00011772    0.00023577
     atom   63 type  4   force =    -0.00054148    0.00014552    0.00029304
     atom   64 type  4   force =     0.00056469    0.00012349   -0.00030153
     atom   65 type  5   force =    -0.00005949    0.00001347    0.00005394
     atom   66 type  5   force =     0.00012414    0.00002988   -0.00009877
     atom   67 type  5   force =    -0.00013825    0.00004841    0.00017259
     atom   68 type  5   force =     0.00023422    0.00007075   -0.00022909
[...]
     atom  125 type  3   force =    -0.00143536    0.00011051    0.00040023
     atom  126 type  3   force =     0.00143525    0.00011060   -0.00040009
     atom  127 type  3   force =     0.00143502   -0.00011039   -0.00040032
     atom  128 type  3   force =    -0.00143518   -0.00011063    0.00039993
     atom  129 type  5   force =    -0.00066105   -0.00124799    0.00210924
     atom  130 type  5   force =     0.00066071   -0.00124636   -0.00210595
     atom  131 type  5   force =     0.00066146    0.00124874   -0.00211077
     atom  132 type  5   force =    -0.00066039    0.00124676    0.00210630
     atom  133 type  5   force =    -0.00009809    0.00058870    0.00010913
     atom  134 type  5   force =     0.00009797    0.00058878   -0.00010922
     atom  135 type  5   force =     0.00009815   -0.00058883   -0.00010945
     atom  136 type  5   force =    -0.00009810   -0.00058884    0.00010943
     atom  137 type  4   force =     0.00011539    0.00016739   -0.00001472
     atom  138 type  4   force =    -0.00011538    0.00016741    0.00001461
     atom  139 type  4   force =    -0.00011545   -0.00016733    0.00001480
     atom  140 type  4   force =     0.00011543   -0.00016735   -0.00001477
     atom  141 type  2   force =    -0.00008888   -0.00018031   -0.00002629
     atom  142 type  2   force =     0.00008885   -0.00018030    0.00002626
     atom  143 type  2   force =     0.00008898    0.00018023    0.00002630
     atom  144 type  2   force =    -0.00008880    0.00018033   -0.00002623
     atom  145 type  5   force =    -0.00060175    0.00037244   -0.00013425
     atom  146 type  5   force =     0.00060175    0.00037239    0.00013435
     atom  147 type  5   force =     0.00060115   -0.00037228    0.00013481
     atom  148 type  5   force =    -0.00060109   -0.00037228   -0.00013485
     atom  149 type  4   force =    -0.00012728    0.00008185   -0.00014985
     atom  150 type  4   force =     0.00012742    0.00008181    0.00014983
     atom  151 type  4   force =     0.00012734   -0.00008181    0.00014983
     atom  152 type  4   force =    -0.00012731   -0.00008182   -0.00014984
     atom  153 type  5   force =     0.00069444   -0.00104852   -0.00159752
     atom  154 type  5   force =    -0.00069522   -0.00104878    0.00159852
     atom  155 type  5   force =    -0.00069388    0.00104837    0.00159699
     atom  156 type  5   force =     0.00069469    0.00104889   -0.00159855
     atom  157 type  2   force =    -0.00011607   -0.00042496   -0.00018346
     atom  158 type  2   force =     0.00011611   -0.00042498    0.00018344
     atom  159 type  2   force =     0.00011609    0.00042493    0.00018343
     atom  160 type  2   force =    -0.00011613    0.00042495   -0.00018339
     atom  161 type  5   force =     0.00021894    0.00049466    0.00035523
     atom  162 type  5   force =    -0.00021890    0.00049459   -0.00035515
     atom  163 type  5   force =    -0.00021882   -0.00049436   -0.00035480
     atom  164 type  5   force =     0.00021862   -0.00049417    0.00035455
     atom  165 type  5   force =    -0.00167646   -0.00129290   -0.00110263
     atom  166 type  5   force =     0.00167648   -0.00129291    0.00110259
     atom  167 type  5   force =     0.00167608    0.00129274    0.00110249
     atom  168 type  5   force =    -0.00167589    0.00129275   -0.00110259
     atom  169 type  1   force =     0.00065635   -0.00023285   -0.00067471
     atom  170 type  1   force =    -0.00065642   -0.00023285    0.00067474
     atom  171 type  1   force =    -0.00065635    0.00023288    0.00067476
     atom  172 type  1   force =     0.00065643    0.00023288   -0.00067480
     atom  173 type  1   force =     0.00042669    0.00023029    0.00018977
     atom  174 type  1   force =    -0.00042669    0.00023029   -0.00018978
     atom  175 type  1   force =    -0.00042661   -0.00023024   -0.00018975
     atom  176 type  1   force =     0.00042659   -0.00023023    0.00018974
     atom  177 type  2   force =     0.00002286   -0.00058251    0.00035434
     atom  178 type  2   force =    -0.00002290   -0.00058252   -0.00035427
     atom  179 type  2   force =    -0.00002276    0.00058256   -0.00035443
     atom  180 type  2   force =     0.00002276    0.00058257    0.00035440
     atom  181 type  5   force =    -0.00164180   -0.00073378    0.00111766
     atom  182 type  5   force =     0.00164291   -0.00073371   -0.00111843
     atom  183 type  5   force =     0.00164047    0.00073388   -0.00111701
     atom  184 type  5   force =    -0.00164117    0.00073374    0.00111770

     Total force =     0.006928     Total SCF correction =     0.000092
     Energy error            =      5.7E-05 Ry
     Gradient error          =      9.0E-04 Ry/Bohr

     bfgs converged in  59 scf cycles and  58 bfgs steps
     (criteria: energy <  1.0E-04 Ry, force <  1.0E-03 Ry/Bohr)

     End of BFGS Geometry Optimization

     Final energy             =   -5377.3390887780 Ry

     File /scratch/calc/pyoutdir/pwscf.bfgs deleted, as requested
Begin final coordinates

ATOMIC_POSITIONS (angstrom)
Cl           14.3501622813        0.3766538902        9.1049263551
Cl           -2.1597637272        4.3266503800       16.2339346005
Cl            0.3100896222        7.5233491393        7.7876475859
Cl           16.8200343957        3.5733458408        0.6586346246
Cl           16.6550326843        0.8964084730        7.0329706562
Cl            0.4750967929        4.8464096413        1.4133113547
Cl           -1.9947760711        7.0035882615        9.8596110935
Cl           14.1851690872        3.0535898161       15.4792525989
Cl           13.1556938421        3.1675014134        3.6014904133
Cl            3.9744437031        7.1175058912        4.8447896384
Cl            1.5045791650        4.7324936198       13.2910779754
Cl           10.6858242773        0.7824858776       12.0477859045
Cl           16.0279041430        2.2006581564        4.2811084927
Cl            1.1022285599        6.1506612640        4.1651762791
Cl           -1.3676309388        5.6993420685       12.6114704252
Cl           13.5580275559        1.7493409192       12.7273948955
Cl           12.8154161141        7.1209201082       16.1950336084
Cl           -0.6250203557        3.1709195367        9.1438251220
Cl            1.8448714339        0.7790819524        0.6975316277
Cl           15.2852627642        4.7290779219        7.7487539904
Cl            9.8568900247        6.2566934005       15.7604837985
Cl            2.3335085366        2.3066990538        9.5783767078
Cl            4.8034007097        1.6433001117        1.1320721199
Cl           12.3267340513        5.5932980980        7.3142171544
O            11.2141814704        0.6696115020        8.9962190107
O             0.9761864963        4.6196863955       16.3427573045
O             3.4461036148        7.2304750090        7.8962539975
O            13.6840938539        3.2802797964        0.5498143526
N             9.2058885199        2.9945645813        9.5296561047
N             2.9845268613        6.9445478808       15.8092242237
N             5.4544091655        4.9054022497        7.3628324290
N            11.6757406173        0.9553988975        1.0834426195
H            10.2266921050        3.1903403765        9.4009187428
H             1.9637026583        7.1403374344       15.9379397263
H             4.4335614563        4.7096479825        7.4916496359
H            12.6965579120        0.7596504881        0.9546356640
C             6.2979925204        1.4327842216        7.8860956632
C            10.8321250940        5.3827852571        0.5601984286
C             8.3621769442        6.4672998734        9.0066520542
C             3.8282147978        2.5172980685       16.3322084065
H             5.2349765874        1.2791706871        8.0794165229
H            11.8951653720        5.2291712036        0.3668655820
H             9.4253378275        6.6208299289        8.8131326498
H             2.7650605214        2.6708317680       16.5257275832
C             7.0790721053        2.1105046371        8.8471067109
C             5.1113478000        6.0604954940       16.4917596788
C             7.5812256058        5.7894563071        8.0453654246
C             9.5489167668        1.8394542678        0.4009134828
C             8.4692678725        2.3056539003        8.6045270704
C             3.7211114746        6.2556634302       16.7343183146
C             6.1909445168        5.5943901154        8.2881491501
C            10.9391861775        1.6443949054        0.1581316537
C             9.0503591932        1.7832985913        7.4241865620
C             8.0797790409        5.7333014999        1.0220890218
C             5.6098666393        6.1166134322        9.4682283840
C             6.5805165073        2.1666157180       15.8706455779
C             8.2561601057        1.1141155711        6.5052766949
C             8.8739599836        5.0641121600        1.9410155350
C             6.4040932587        6.7859677296       10.3874501727
C             5.7863061309        2.8359676125       14.9514139556
H             8.7285990854        0.6864227496        5.6219674385
H             8.4015407331        4.6364193312        2.8243183463
H             5.9316818596        7.2135550352       11.2705517581
H             6.2587136286        3.2635540567       14.0683053142
C             6.8794449486        0.9503477625        6.7268734989
C            10.2506986466        4.9003485133        1.7194043236
C             7.7808893097        6.9495591372       10.1654935746
C             4.4095109229        2.9995536665       15.1733681515
H             6.2875472584        0.4156018682        5.9847435557
H            10.8425911625        4.3656044853        2.4615424241
H             8.3727345445        7.4844168042       10.9078646182
H             3.8176641963        3.5344182117       14.4309971723
C            12.4507451953        2.1519628751        6.0349871519
C             4.6793829918        6.1019829839        2.4112863243
C             2.2095283271        5.7480502366       10.8575690434
C             9.9808881629        1.7980479545       14.4812568409
C            12.7230066263        1.5016883150        7.2472391090
C             4.4071276191        5.4517082129        1.1990449599
C             1.9372246937        6.3982978703        9.6453037287
C            10.2531441564        2.4482686227       15.6935351819
C            14.0134460556        1.1199397669        7.5942641952
C             3.1166890557        5.0699253867        0.8520173930
C             0.6468301210        6.7800995007        9.2983389144
C            11.5435924311        2.8300879458       16.0405451973
C            15.0487600968        1.3581309802        6.6588852685
C             2.0813736426        5.3081218029        1.7874045655
C            -0.3885091962        6.5418612710       10.2336979959
C            12.5788933026        2.5918715905       15.1051681414
C            14.7686671763        1.9716867428        5.4202840149
C             2.3614679782        5.9216756139        3.0260056728
C            -0.1083899908        5.9283227370       11.4723020576
C            12.2988018008        1.9783161679       13.8665669937
C            13.4558450263        2.4016086569        5.1074024864
C             3.6742915802        6.3516156153        3.3388759840
C             1.2044087139        5.4983748298       11.7851739140
C            10.9859726231        1.5483921531       13.5536988195
C            10.9873426702        2.4347089636        5.9663216689
C             6.1428086893        6.3846606677        2.4800083473
C             3.6729806029        5.4652843928       10.9263438003
C             8.5175299054        1.5153160596       14.4126581436
C            10.6873952676        5.2988965740       13.3390891243
C             1.5030041072        1.3488999596       11.9997646331
C             3.9729030030        2.6010918529        3.5534827170
C            13.1572285901        6.5510934165        4.8927992394
C            11.0187817376        5.9396283379       14.5253294518
C             1.1716131756        1.9896287143       10.8135363368
C             3.6414912764        1.9603518091        2.3671962217
C            13.4886495206        5.9103483428        6.0790938412
C            12.3635704353        6.3443982402       14.7277278101
C            -0.1731713441        2.3943979414       10.6111331264
C             2.2967132146        1.5556063388        2.1648265918
C            14.8334190447        5.5056063597        6.2814605301
C            13.3347199128        6.1150648466       13.7356617908
C            -1.1443224749        2.1650620968       11.6032010411
C             1.3255678938        1.7849081645        3.1569125067
C            15.8045668220        5.7349079086        5.2893720302
C            12.9732042919        5.4978222415       12.5128489417
C            -0.7828035544        1.5478221415       12.8260080426
C             1.6871151361        2.4021868374        4.3797167171
C            15.4430096646        6.3521893923        4.0665746163
C            11.6573639356        5.0883294588       12.3400901724
C             0.5330317745        1.1383310958       12.9987729089
C             3.0029124188        2.8116661119        4.5524650158
C            14.1272376689        6.7616672711        3.8938205534
N            10.4457414189        1.9221100177        7.1778959426
N             6.6843833835        5.8721481865        1.2683765496
N             4.2145423112        5.9778590386        9.7146689737
N             7.9758729309        2.0278568918       15.6241777254
C            11.4381489096        1.2846464030        7.9669474781
C             5.6920334487        5.2345376769        0.4792023833
C             3.2220726380        6.6153042572        8.9257363985
C             8.9682295783        2.6655216828       16.4133570643
C             7.3241805312        3.2924492017       10.9671748850
C             4.8662515792        7.2424179351       14.3717306601
C             7.3361242303        4.6075382973        5.9253576941
C             9.7940125617        0.6575413692        2.5209185826
H             6.9169226536        3.7021936728       11.8871444118
H             5.2734782693        7.6521995590       13.4517056598
H             7.7433615425        4.1978205959        5.0054392500
H             9.3867691575        0.2478168299        3.4408494088
O            10.3466555958        2.9826939920        5.0857669554
O             6.7834708561        6.9327133525        3.3604886868
O             4.3135601716        4.9173119578       11.8067115103
O             7.8767442385        0.9672710599       13.5320240192
C             6.5413842286        2.6208497833       10.0672308041
C             5.6489680583        6.5708799265       15.2715944632
C             8.1188775045        5.2791806547        6.8253944064
C             9.0112447372        1.3291747665        1.6209006159
H             5.4822507056        2.4601970738       10.2823360099
H             6.7081635478        6.4101947772       15.0565243514
H             9.1780364127        5.4398130947        6.6102362992
H             7.9521004468        1.4898111118        1.8360494250
C            11.0014781179        4.3770636223       11.1883253250
C             1.1889456281        0.4270726143       14.1504997969
C             3.6588070813        3.5229079553        5.7042407911
C            13.4712741255        7.4728799369        2.7421316874
O            11.5667694719        4.0258489665       10.1268591935
O             0.6236119559        7.9758392392       15.2120294232
O             3.0935042292        3.8741235654        6.7657229271
O            14.0366685057       -0.0758546178        1.6804955832
C             8.7084775797        3.4931265046       10.6982303579
C             3.4819031263        7.4431393276       14.6406141963
C             5.9517678960        4.4068860121        6.1943504846
C            11.1783556624        0.4568748241        2.2519552068
C             9.6201112688        4.1689247827       11.5469654107
C             2.5702921294        0.2189245681       13.7918963073
C             5.0401802136        3.7310877115        5.3456044741
C            12.0899595042        7.6810922028        3.1006744067
Cl           14.1592686449        5.2752772763       11.2833607467
Cl           -1.9688719955        1.3252754508       14.0555004532
Cl            0.5010322752        2.6247115131        5.6091917131
Cl           16.6291035816        6.5747139392        2.8370952814
Cl           14.9645578826        6.5841500933       14.0072531563
Cl           -2.7741629409        2.6341466426       11.3316066872
Cl           -0.3042727422        1.3158620597        2.8852938114
Cl           17.4344082717        5.2658624498        5.5609935014
O             8.3209315038        4.6938621458       13.5377500920
O             3.8695167918        0.7438635508       11.8010773557
O             6.3392681128        3.2062076329        3.3548466826
O            10.7908558117        7.1562067795        5.0914471986
C             9.3660026627        4.7120127871       12.8691329919
C             2.8243408830        0.7620116622       12.4697702584
C             5.2943484038        3.1880173626        4.0233436366
C            11.8357955271        7.1380194721        4.4229338492
End final coordinates



     Writing all to output data dir /scratch/calc/pyoutdir/pwscf.save/
 
     init_run     :     11.74s CPU     12.97s WALL (       1 calls)
     electrons    :   6896.51s CPU   7185.67s WALL (      14 calls)
     update_pot   :     26.60s CPU     26.79s WALL (      13 calls)
     forces       :    121.00s CPU    131.39s WALL (      14 calls)
     force_dftd3  :      9.74s CPU     14.85s WALL (      14 calls)

     Called by init_run:
     wfcinit      :      8.73s CPU      9.33s WALL (       1 calls)
     potinit      :      0.41s CPU      0.73s WALL (       1 calls)
     hinit0       :      1.43s CPU      1.63s WALL (       1 calls)

     Called by electrons:
     c_bands      :   6520.42s CPU   6774.34s WALL (     119 calls)
     sum_band     :    301.05s CPU    323.23s WALL (     119 calls)
     v_of_rho     :      6.87s CPU      7.13s WALL (     123 calls)
     newd         :     31.80s CPU     40.00s WALL (     123 calls)
     PAW_pot      :     40.90s CPU     41.16s WALL (     136 calls)
     mix_rho      :      1.22s CPU      1.39s WALL (     119 calls)
     energy_dftd3 :      4.34s CPU      8.42s WALL (      14 calls)

     Called by c_bands:
     init_us_2    :     27.33s CPU     27.75s WALL (    2128 calls)
     init_us_2:cp :     27.32s CPU     27.74s WALL (    2128 calls)
     ppcg_k       :   5957.32s CPU   6181.40s WALL (     952 calls)
     wfcrot       :    547.60s CPU    574.62s WALL (     768 calls)

     Called by ppcg_*:
     h_psi        :   2875.29s CPU   2980.03s WALL (    8014 calls)
     s_psi        :    759.26s CPU    761.48s WALL (    8014 calls)

     Called by h_psi:
     h_psi:calbec :    752.46s CPU    768.24s WALL (    8014 calls)
     vloc_psi     :   1363.16s CPU   1441.59s WALL (    8014 calls)
     add_vuspsi   :    735.79s CPU    745.67s WALL (    8014 calls)

     General routines
     calbec       :    934.35s CPU    954.62s WALL (    9518 calls)
     fft          :      6.36s CPU      9.20s WALL (    1748 calls)
     ffts         :      0.11s CPU      0.12s WALL (     242 calls)
     fftw         :   1120.28s CPU   1186.70s WALL ( 6365588 calls)
     interpolate  :      0.42s CPU      0.44s WALL (     123 calls)
 
     Parallel routines
 
     PWSCF        :      1h58m CPU      2h 3m WALL

 
   This run was terminated on:  10:42:39  10Mar2024            

=------------------------------------------------------------------------------=
   JOB DONE.
=------------------------------------------------------------------------------=
