
     Program PWSCF v.7.2 starts on 27Aug2023 at 19:17:34 

     This program is part of the open-source Quantum ESPRESSO suite
     for quantum simulation of materials; please cite
         "P. Giannozzi et al., J. Phys.:Condens. Matter 21 395502 (2009);
         "P. Giannozzi et al., J. Phys.:Condens. Matter 29 465901 (2017);
         "P. Giannozzi et al., J. Chem. Phys. 152 154105 (2020);
          URL http://www.quantum-espresso.org", 
     in publications or presentations arising from this work. More details at
     http://www.quantum-espresso.org/quote

     Parallel version (MPI), running on    36 processors

     MPI processes distributed on     1 nodes
     769527 MiB available memory on the printing compute node when the environment starts
 
     Waiting for input...
     Reading input from standard input
Warning: card &CELL ignored
Warning: card / ignored

     Current dimensions of program PWSCF are:
     Max number of different atomic species (ntypx) = 10
     Max number of k-points (npk) =  40000
     Max angular momentum in pseudopotentials (lmaxx) =  4
     file Mo.pbe-spn-kjpaw_psl.1.0.0.UPF: wavefunction(s)  4S 4D renormalized
     file S.pbe-n-kjpaw_psl.1.0.0.UPF: wavefunction(s)  3S 3P renormalized
     file Pd.pbe-spn-kjpaw_psl.1.0.0.UPF: wavefunction(s)  4S 5S 4D renormalized
     file H.pbe-kjpaw_psl.1.0.0.UPF: wavefunction(s)  1S renormalized
 
     R & G space division:  proc/nbgrp/npool/nimage =      36
     Subspace diagonalization in iterative solution of the eigenvalue problem:
     one sub-group per band group will be used
     custom distributed-memory algorithm (size of sub-group:  6*  6 procs)

 
     Parallelization info
     --------------------
     sticks:   dense  smooth     PW     G-vecs:    dense   smooth      PW
     Min         586     335     89               165416    71459    9765
     Max         587     337     90               165425    71461    9778
     Sum       21109   12085   3205              5955087  2572543  351657
 
     Using Slab Decomposition
 


     bravais-lattice index     =            0
     lattice parameter (alat)  =      23.8395  a.u.
     unit-cell volume          =   28182.8498 (a.u.)^3
     number of atoms/cell      =          146
     number of atomic types    =            4
     number of electrons       =      1267.00
     number of Kohn-Sham states=          761
     kinetic-energy cutoff     =      77.0000  Ry
     charge density cutoff     =     539.0000  Ry
     scf convergence threshold =      1.0E-06
     mixing beta               =       0.2000
     number of iterations used =            8  plain     mixing
     energy convergence thresh.=      1.0E-04
     force convergence thresh. =      1.0E-03
     Exchange-correlation= SLA  PW   PBX  PBC
                           (   1   4   3   4   0   0   0)
     nstep                     =         1000


     Effective Screening Medium Method
     =================================
     Boundary Conditions: Vacuum-Slab-Vacuum
     total charge in unit cell        =   0.0000
     grid points for fit at edges     =        4 
 

     celldm(1)=  23.839504  celldm(2)=   0.000000  celldm(3)=   0.000000
     celldm(4)=   0.000000  celldm(5)=   0.000000  celldm(6)=   0.000000

     crystal axes: (cart. coord. in units of alat)
               a(1) = (   1.000000   0.000000   0.000000 )  
               a(2) = (  -0.500001   0.866026   0.000000 )  
               a(3) = (   0.000000   0.000000   2.401941 )  

     reciprocal axes: (cart. coord. in units 2 pi/alat)
               b(1) = (  1.000000  0.577351  0.000000 )  
               b(2) = (  0.000000  1.154700  0.000000 )  
               b(3) = (  0.000000  0.000000  0.416330 )  


     PseudoPot. # 1 for Mo read from file:
     ./pseudo/Mo.pbe-spn-kjpaw_psl.1.0.0.UPF
     MD5 check sum: 317bf72632116215fd98f72de1686f13
     Pseudo is Projector augmented-wave + core cor, Zval = 14.0
     Generated using 'atomic' code by A. Dal Corso  v.7.2
     Shape of augmentation charge: PSQ
     Using radial grid of 1229 points,  6 beta functions with: 
                l(1) =   0
                l(2) =   0
                l(3) =   1
                l(4) =   1
                l(5) =   2
                l(6) =   2
     Q(r) pseudized with 0 coefficients 


     PseudoPot. # 2 for S  read from file:
     ./pseudo/S.pbe-n-kjpaw_psl.1.0.0.UPF
     MD5 check sum: 8b7b5302570d38d5e87fed6a1065abda
     Pseudo is Projector augmented-wave + core cor, Zval =  6.0
     Generated using 'atomic' code by A. Dal Corso  v.7.2
     Shape of augmentation charge: PSQ
     Using radial grid of 1151 points,  6 beta functions with: 
                l(1) =   0
                l(2) =   0
                l(3) =   1
                l(4) =   1
                l(5) =   2
                l(6) =   2
     Q(r) pseudized with 0 coefficients 


     PseudoPot. # 3 for Pd read from file:
     ./pseudo/Pd.pbe-spn-kjpaw_psl.1.0.0.UPF
     MD5 check sum: a60571a671f2502b8a6a4569d20a6edb
     Pseudo is Projector augmented-wave + core cor, Zval = 18.0
     Generated using 'atomic' code by A. Dal Corso  v.7.2
     Shape of augmentation charge: PSQ
     Using radial grid of 1235 points,  6 beta functions with: 
                l(1) =   0
                l(2) =   0
                l(3) =   1
                l(4) =   1
                l(5) =   2
                l(6) =   2
     Q(r) pseudized with 0 coefficients 


     PseudoPot. # 4 for H  read from file:
     ./pseudo/H.pbe-kjpaw_psl.1.0.0.UPF
     MD5 check sum: b3cb3c48ee3b58cc53e4d592112d0ca6
     Pseudo is Projector augmented-wave, Zval =  1.0
     Generated using 'atomic' code by A. Dal Corso  v.7.2
     Shape of augmentation charge: PSQ
     Using radial grid of  929 points,  2 beta functions with: 
                l(1) =   0
                l(2) =   0
     Q(r) pseudized with 0 coefficients 


     atomic species   valence    mass     pseudopotential
        Mo            14.00    95.95000     Mo( 1.00)
        S              6.00    32.06000     S ( 1.00)
        Pd            18.00   106.42000     Pd( 1.00)
        H              1.00     1.00800     H ( 1.00)

     No symmetry found



   Cartesian axes

     site n.     atom                  positions (alat units)
         1           Mo  tau(   1) = (   0.1244805   0.2154429   0.4826124  )
         2           Mo  tau(   2) = (   0.1250004   0.0721694  -0.4825273  )
         3           Mo  tau(   3) = (   0.0000154   0.1443583  -0.0000534  )
         4           S   tau(   4) = (   0.0000004   0.0000006  -0.6064556  )
         5           S   tau(   5) = (   0.1249822   0.0722030  -0.1241916  )
         6           S   tau(   6) = (   0.0001873   0.1444894   0.3573292  )
         7           S   tau(   7) = (   0.0000004   0.0000005  -0.3584711  )
         8           S   tau(   8) = (   0.1250220   0.0721432   0.1241096  )
         9           S   tau(   9) = (  -0.0009222   0.1433430   0.6062350  )
        10           Mo  tau(  10) = (  -0.0011812   0.4330952   0.4826123  )
        11           Mo  tau(  11) = (   0.0000001   0.2886759  -0.4825273  )
        12           Mo  tau(  12) = (  -0.1249761   0.3608493  -0.0000533  )
        13           S   tau(  13) = (  -0.1249999   0.2165071  -0.6064556  )
        14           S   tau(  14) = (   0.0000232   0.2886904  -0.1241345  )
        15           S   tau(  15) = (  -0.1247753   0.3609305   0.3573291  )
        16           S   tau(  16) = (  -0.1249998   0.2165070  -0.3584711  )
        17           S   tau(  17) = (   0.0000901   0.2887289   0.1242236  )
        18           S   tau(  18) = (  -0.1263226   0.3605428   0.6062351  )
        19           Mo  tau(  19) = (  -0.1251400   0.6495983   0.4819363  )
        20           Mo  tau(  20) = (  -0.1250002   0.5051824  -0.4825273  )
        21           Mo  tau(  21) = (  -0.2500026   0.5773383  -0.0001491  )
        22           S   tau(  22) = (  -0.2500002   0.4330136  -0.6064556  )
        23           S   tau(  23) = (  -0.1249812   0.5051509  -0.1241919  )
        24           S   tau(  24) = (  -0.2500015   0.5775831   0.3575295  )
        25           S   tau(  25) = (  -0.2500001   0.4330135  -0.3584711  )
        26           S   tau(  26) = (  -0.1250129   0.5052153   0.1241101  )
        27           S   tau(  27) = (  -0.2500018   0.5771934   0.6060379  )
        28           Mo  tau(  28) = (   0.2499987  -0.0001601   0.4819365  )
        29           Mo  tau(  29) = (  -0.2500004   0.7216889  -0.4825273  )
        30           Mo  tau(  30) = (  -0.3750135   0.7938631  -0.0001491  )
        31           S   tau(  31) = (  -0.3750004   0.6495201  -0.6064556  )
        32           S   tau(  32) = (  -0.2500026   0.7216883  -0.1242347  )
        33           S   tau(  33) = (  -0.3747997   0.7937400   0.3575295  )
        34           S   tau(  34) = (  -0.3750004   0.6495200  -0.3584711  )
        35           S   tau(  35) = (  -0.2500029   0.7216883   0.1240299  )
        36           S   tau(  36) = (  -0.3751376   0.7939346   0.6060379  )
        37           Mo  tau(  37) = (   0.3755166   0.2154425   0.4826119  )
        38           Mo  tau(  38) = (   0.3750004   0.0721694  -0.4825273  )
        39           Mo  tau(  39) = (   0.2499990   0.1443474  -0.0000968  )
        40           S   tau(  40) = (   0.2500004   0.0000006  -0.6064556  )
        41           S   tau(  41) = (   0.3750152   0.0722028  -0.1241921  )
        42           S   tau(  42) = (   0.2499983   0.1443201   0.3580593  )
        43           S   tau(  43) = (   0.2500004   0.0000005  -0.3584711  )
        44           S   tau(  44) = (   0.3749754   0.0721432   0.1241106  )
        45           S   tau(  45) = (   0.2499987   0.1437775   0.6065499  )
        46           Mo  tau(  46) = (   0.2499984   0.4330123   0.4872880  )
        47           Mo  tau(  47) = (   0.2500001   0.2886759  -0.4825273  )
        48           Mo  tau(  48) = (   0.1250277   0.3608616  -0.0000572  )
        49           S   tau(  49) = (   0.1250001   0.2165071  -0.6064556  )
        50           S   tau(  50) = (   0.2499987   0.2886898  -0.1241693  )
        51           S   tau(  51) = (   0.1266397   0.3617911   0.3615924  )
        52           S   tau(  52) = (   0.1250002   0.2165070  -0.3584711  )
        53           S   tau(  53) = (   0.2499988   0.2886671   0.1241958  )
        54           S   tau(  54) = (   0.1173054   0.3564020   0.6108885  )
        55           Mo  tau(  55) = (   0.1243363   0.6504991   0.4826116  )
        56           Mo  tau(  56) = (   0.1249998   0.5051824  -0.4825273  )
        57           Mo  tau(  57) = (   0.0000060   0.5773464  -0.0000969  )
        58           S   tau(  58) = (  -0.0000002   0.4330136  -0.6064556  )
        59           S   tau(  59) = (   0.1250101   0.5051751  -0.1241696  )
        60           S   tau(  60) = (  -0.0000165   0.5773581   0.3580590  )
        61           S   tau(  61) = (  -0.0000001   0.4330135  -0.3584711  )
        62           S   tau(  62) = (   0.1249907   0.5051868   0.1241956  )
        63           S   tau(  63) = (  -0.0004863   0.5776299   0.6065497  )
        64           Mo  tau(  64) = (   0.5000682   0.0000393   0.4813064  )
        65           Mo  tau(  65) = (  -0.0000004   0.7216889  -0.4825273  )
        66           Mo  tau(  66) = (  -0.1249919   0.7938635  -0.0001489  )
        67           S   tau(  67) = (  -0.1250004   0.6495201  -0.6064556  )
        68           S   tau(  68) = (   0.0000350   0.7216859  -0.1241920  )
        69           S   tau(  69) = (  -0.1252051   0.7937392   0.3575294  )
        70           S   tau(  70) = (  -0.1250004   0.6495200  -0.3584711  )
        71           S   tau(  71) = (  -0.0000364   0.7216812   0.1241103  )
        72           S   tau(  72) = (  -0.1248667   0.7939344   0.6060378  )
        73           Mo  tau(  73) = (   0.6250985   0.2164481   0.4814760  )
        74           Mo  tau(  74) = (   0.6250004   0.0721694  -0.4825273  )
        75           Mo  tau(  75) = (   0.4999807   0.1443583  -0.0000532  )
        76           S   tau(  76) = (   0.5000004   0.0000006  -0.6064556  )
        77           S   tau(  77) = (   0.6249710   0.0721537  -0.1241599  )
        78           S   tau(  78) = (   0.4998101   0.1444887   0.3573287  )
        79           S   tau(  79) = (   0.5000004   0.0000005  -0.3584711  )
        80           S   tau(  80) = (   0.6250072   0.0721744   0.1241160  )
        81           S   tau(  81) = (   0.5009199   0.1433424   0.6062338  )
        82           Mo  tau(  82) = (   0.5011786   0.4330950   0.4826115  )
        83           Mo  tau(  83) = (   0.5000001   0.2886759  -0.4825273  )
        84           Mo  tau(  84) = (   0.3749686   0.3608615  -0.0000573  )
        85           S   tau(  85) = (   0.3750001   0.2165071  -0.6064556  )
        86           S   tau(  86) = (   0.4999725   0.2886900  -0.1241349  )
        87           S   tau(  87) = (   0.3733572   0.3617909   0.3615920  )
        88           S   tau(  88) = (   0.3750002   0.2165070  -0.3584711  )
        89           S   tau(  89) = (   0.4999057   0.2887288   0.1242238  )
        90           S   tau(  90) = (   0.3826919   0.3564018   0.6108876  )
        91           Mo  tau(  91) = (   0.3756598   0.6504996   0.4826113  )
        92           Mo  tau(  92) = (   0.3749998   0.5051824  -0.4825273  )
        93           Mo  tau(  93) = (   0.2499978   0.5773166  -0.0000576  )
        94           S   tau(  94) = (   0.2499998   0.4330136  -0.6064556  )
        95           S   tau(  95) = (   0.3749857   0.5051746  -0.1241697  )
        96           S   tau(  96) = (   0.2499981   0.5754545   0.3615919  )
        97           S   tau(  97) = (   0.2499999   0.4330135  -0.3584711  )
        98           S   tau(  98) = (   0.3750048   0.5051860   0.1241960  )
        99           S   tau(  99) = (   0.2499983   0.5862331   0.6108872  )
       100           Mo  tau( 100) = (   0.7499988   0.0001148   0.4814756  )
       101           Mo  tau( 101) = (   0.2499996   0.7216889  -0.4825273  )
       102           Mo  tau( 102) = (   0.1250062   0.7938321  -0.0000534  )
       103           S   tau( 103) = (   0.1249996   0.6495201  -0.6064556  )
       104           S   tau( 104) = (   0.2499971   0.7216593  -0.1241350  )
       105           S   tau( 105) = (   0.1250350   0.7936175   0.3573284  )
       106           S   tau( 106) = (   0.1249996   0.6495200  -0.3584711  )
       107           S   tau( 107) = (   0.2499972   0.7215818   0.1242234  )
       108           S   tau( 108) = (   0.1245975   0.7951515   0.6062336  )
       109           Mo  tau( 109) = (  -0.1251006   0.2164484   0.4814769  )
       110           Mo  tau( 110) = (   0.8750004   0.0721694  -0.4825273  )
       111           Mo  tau( 111) = (   0.7499976   0.1443379  -0.0001196  )
       112           S   tau( 112) = (   0.7500004   0.0000006  -0.6064556  )
       113           S   tau( 113) = (   0.8750246   0.0721533  -0.1241599  )
       114           S   tau( 114) = (   0.7499994   0.1443376   0.3572937  )
       115           S   tau( 115) = (   0.7500004   0.0000005  -0.3584711  )
       116           S   tau( 116) = (   0.8749884   0.0721739   0.1241157  )
       117           S   tau( 117) = (   0.7499987   0.1443370   0.6058240  )
       118           Mo  tau( 118) = (  -0.2500010   0.4329316   0.4813070  )
       119           Mo  tau( 119) = (   0.7500001   0.2886759  -0.4825273  )
       120           Mo  tau( 120) = (   0.6249710   0.3608493  -0.0000534  )
       121           S   tau( 121) = (   0.6250001   0.2165071  -0.6064556  )
       122           S   tau( 122) = (   0.7499973   0.2887067  -0.1241600  )
       123           S   tau( 123) = (   0.6247737   0.3609305   0.3573287  )
       124           S   tau( 124) = (   0.6250002   0.2165070  -0.3584711  )
       125           S   tau( 125) = (   0.7499971   0.2886649   0.1241160  )
       126           S   tau( 126) = (   0.6263203   0.3605423   0.6062340  )
       127           Mo  tau( 127) = (  -0.3748636   0.6495986   0.4819361  )
       128           Mo  tau( 128) = (   0.6249998   0.5051824  -0.4825273  )
       129           Mo  tau( 129) = (   0.4999891   0.5773453  -0.0000967  )
       130           S   tau( 130) = (   0.4999998   0.4330136  -0.6064556  )
       131           S   tau( 131) = (   0.6249761   0.5051506  -0.1241920  )
       132           S   tau( 132) = (   0.5000130   0.5773585   0.3580587  )
       133           S   tau( 133) = (   0.4999999   0.4330135  -0.3584711  )
       134           S   tau( 134) = (   0.6250081   0.5052147   0.1241104  )
       135           S   tau( 135) = (   0.5004826   0.5776298   0.6065487  )
       136           Mo  tau( 136) = (  -0.0000706   0.0000401   0.4813070  )
       137           Mo  tau( 137) = (   0.4999996   0.7216889  -0.4825273  )
       138           Mo  tau( 138) = (   0.3749881   0.7938314  -0.0000535  )
       139           S   tau( 139) = (   0.3749996   0.6495201  -0.6064556  )
       140           S   tau( 140) = (   0.4999594   0.7216844  -0.1241918  )
       141           S   tau( 141) = (   0.3749610   0.7936184   0.3573285  )
       142           S   tau( 142) = (   0.3749996   0.6495200  -0.3584711  )
       143           S   tau( 143) = (   0.5000310   0.7216802   0.1241101  )
       144           S   tau( 144) = (   0.3753979   0.7951517   0.6062337  )
       145           Pd  tau( 145) = (   0.2499985   0.4330123   0.7148096  )
       146           H   tau( 146) = (  -0.0033293   0.2872697   0.6791477  )

     --------------------------------------------
     DFT-D3 Dispersion Correction (3-body terms):
     --------------------------------------------
       Reference C6 values for interpolation: 

         atom   Coordination number   C6
         H          0.912             6.05
         H          0.000            15.18
         S          0.000           268.01
         S          0.995           261.99
         S          1.990           251.62
         Mo         0.000          1691.79
         Mo         1.942          1004.01
         Mo        11.056           674.22
         Pd         0.000          1217.01
         Pd         1.863           573.90
         Pd         5.710           531.75

       Values used:

         atom   Coordination number  R0_AB[au]  C6      C8
         Mo        10.178            3.547    674.22  77634.20
         Mo        10.189            3.547    674.22  77634.20
         Mo        10.200            3.547    674.22  77634.20
         S          3.753            3.128    251.62  12327.25
         S          3.858            3.128    251.62  12327.25
         S          3.848            3.128    251.62  12327.25
         S          3.859            3.128    251.62  12327.25
         S          3.860            3.128    251.62  12327.25
         S          3.922            3.128    251.62  12327.25
         Mo        10.178            3.547    674.22  77634.20
         Mo        10.189            3.547    674.22  77634.20
         Mo        10.201            3.547    674.22  77634.20
         S          3.753            3.128    251.62  12327.25
         S          3.859            3.128    251.62  12327.25
         S          3.848            3.128    251.62  12327.25
         S          3.858            3.128    251.62  12327.25
         S          3.855            3.128    251.62  12327.25
         S          3.929            3.128    251.62  12327.25
         Mo        10.208            3.547    674.22  77634.20
         Mo        10.189            3.547    674.22  77634.20
         Mo        10.200            3.547    674.22  77634.20
         S          3.753            3.128    251.62  12327.25
         S          3.858            3.128    251.62  12327.25
         S          3.862            3.128    251.62  12327.25
         S          3.859            3.128    251.62  12327.25
         S          3.860            3.128    251.62  12327.25
         S          3.759            3.128    251.62  12327.25
         Mo        10.208            3.547    674.22  77634.20
         Mo        10.189            3.547    674.22  77634.20
         Mo        10.200            3.547    674.22  77634.20
         S          3.753            3.128    251.62  12327.25
         S          3.858            3.128    251.62  12327.25
         S          3.862            3.128    251.62  12327.25
         S          3.859            3.128    251.62  12327.25
         S          3.862            3.128    251.62  12327.25
         S          3.759            3.128    251.62  12327.25
         Mo        10.173            3.547    674.22  77634.20
         Mo        10.189            3.547    674.22  77634.20
         Mo        10.202            3.547    674.22  77634.20
         S          3.753            3.128    251.62  12327.25
         S          3.858            3.128    251.62  12327.25
         S          3.857            3.128    251.62  12327.25
         S          3.859            3.128    251.62  12327.25
         S          3.860            3.128    251.62  12327.25
         S          3.751            3.128    251.62  12327.25
         Mo        10.810            3.547    674.22  77634.20
         Mo        10.189            3.547    674.22  77634.20
         Mo        10.202            3.547    674.22  77634.20
         S          3.753            3.128    251.62  12327.25
         S          3.859            3.128    251.62  12327.25
         S          3.866            3.128    251.62  12327.25
         S          3.859            3.128    251.62  12327.25
         S          3.853            3.128    251.62  12327.25
         S          4.848            3.128    251.62  12327.25
         Mo        10.173            3.547    674.22  77634.20
         Mo        10.189            3.547    674.22  77634.20
         Mo        10.202            3.547    674.22  77634.20
         S          3.753            3.128    251.62  12327.25
         S          3.859            3.128    251.62  12327.25
         S          3.857            3.128    251.62  12327.25
         S          3.859            3.128    251.62  12327.25
         S          3.853            3.128    251.62  12327.25
         S          3.751            3.128    251.62  12327.25
         Mo        10.222            3.547    674.22  77634.20
         Mo        10.189            3.547    674.22  77634.20
         Mo        10.200            3.547    674.22  77634.20
         S          3.753            3.128    251.62  12327.25
         S          3.858            3.128    251.62  12327.25
         S          3.862            3.128    251.62  12327.25
         S          3.859            3.128    251.62  12327.25
         S          3.860            3.128    251.62  12327.25
         S          3.759            3.128    251.62  12327.25
         Mo        10.213            3.547    674.22  77634.20
         Mo        10.189            3.547    674.22  77634.20
         Mo        10.201            3.547    674.22  77634.20
         S          3.753            3.128    251.62  12327.25
         S          3.858            3.128    251.62  12327.25
         S          3.848            3.128    251.62  12327.25
         S          3.859            3.128    251.62  12327.25
         S          3.860            3.128    251.62  12327.25
         S          3.798            3.128    251.62  12327.25
         Mo        10.173            3.547    674.22  77634.20
         Mo        10.189            3.547    674.22  77634.20
         Mo        10.202            3.547    674.22  77634.20
         S          3.753            3.128    251.62  12327.25
         S          3.859            3.128    251.62  12327.25
         S          3.866            3.128    251.62  12327.25
         S          3.859            3.128    251.62  12327.25
         S          3.855            3.128    251.62  12327.25
         S          4.645            3.128    251.62  12327.25
         Mo        10.173            3.547    674.22  77634.20
         Mo        10.189            3.547    674.22  77634.20
         Mo        10.202            3.547    674.22  77634.20
         S          3.753            3.128    251.62  12327.25
         S          3.859            3.128    251.62  12327.25
         S          3.866            3.128    251.62  12327.25
         S          3.859            3.128    251.62  12327.25
         S          3.853            3.128    251.62  12327.25
         S          4.645            3.128    251.62  12327.25
         Mo        10.213            3.547    674.22  77634.20
         Mo        10.189            3.547    674.22  77634.20
         Mo        10.201            3.547    674.22  77634.20
         S          3.753            3.128    251.62  12327.25
         S          3.859            3.128    251.62  12327.25
         S          3.848            3.128    251.62  12327.25
         S          3.859            3.128    251.62  12327.25
         S          3.855            3.128    251.62  12327.25
         S          3.798            3.128    251.62  12327.25
         Mo        10.219            3.547    674.22  77634.20
         Mo        10.189            3.547    674.22  77634.20
         Mo        10.199            3.547    674.22  77634.20
         S          3.753            3.128    251.62  12327.25
         S          3.858            3.128    251.62  12327.25
         S          3.855            3.128    251.62  12327.25
         S          3.858            3.128    251.62  12327.25
         S          3.860            3.128    251.62  12327.25
         S          3.777            3.128    251.62  12327.25
         Mo        10.223            3.547    674.22  77634.20
         Mo        10.189            3.547    674.22  77634.20
         Mo        10.201            3.547    674.22  77634.20
         S          3.753            3.128    251.62  12327.25
         S          3.858            3.128    251.62  12327.25
         S          3.848            3.128    251.62  12327.25
         S          3.858            3.128    251.62  12327.25
         S          3.860            3.128    251.62  12327.25
         S          3.798            3.128    251.62  12327.25
         Mo        10.208            3.547    674.22  77634.20
         Mo        10.189            3.547    674.22  77634.20
         Mo        10.202            3.547    674.22  77634.20
         S          3.753            3.128    251.62  12327.25
         S          3.858            3.128    251.62  12327.25
         S          3.857            3.128    251.62  12327.25
         S          3.859            3.128    251.62  12327.25
         S          3.860            3.128    251.62  12327.25
         S          3.751            3.128    251.62  12327.25
         Mo        10.223            3.547    674.22  77634.20
         Mo        10.189            3.547    674.22  77634.20
         Mo        10.201            3.547    674.22  77634.20
         S          3.753            3.128    251.62  12327.25
         S          3.858            3.128    251.62  12327.25
         S          3.848            3.128    251.62  12327.25
         S          3.859            3.128    251.62  12327.25
         S          3.860            3.128    251.62  12327.25
         S          3.798            3.128    251.62  12327.25
         Pd         3.772            3.168    556.97  51031.97
         H          0.477            2.062      9.69    117.16

         Molecular C6 ( Ry / a.u.^6 ) =   7805789.75


     number of k points=     4  Gaussian smearing, width (Ry)=  0.0100
                       cart. coord. in units 2pi/alat
        k(    1) = (   0.0000000   0.0000000   0.0000000), wk =   0.5000000
        k(    2) = (   0.0000000  -0.5773499   0.0000000), wk =   0.5000000
        k(    3) = (  -0.5000000  -0.2886755   0.0000000), wk =   0.5000000
        k(    4) = (  -0.5000000  -0.8660254   0.0000000), wk =   0.5000000

     Dense  grid:  5955087 G-vectors     FFT dimensions: ( 180, 180, 432)

     Smooth grid:  2572543 G-vectors     FFT dimensions: ( 135, 135, 320)

     Estimated max dynamical RAM per process >       2.13 GB

     Estimated total dynamical RAM >      76.81 GB

     Initial potential from superposition of free atoms

     starting charge    1266.9542, renormalised to    1267.0000

     negative rho (up, down):  9.265E-04 0.000E+00
     Starting wfcs are  875 randomized atomic wfcs
     Checking if some PAW data can be deallocated... 

     total cpu time spent up to now is      105.8 secs

     Self-consistent Calculation

     iteration #  1     ecut=    77.00 Ry     beta= 0.20
     Davidson diagonalization with overlap
     ethr =  1.00E-02,  avg # of iterations =  2.0

     Threshold (ethr) on eigenvalues was too large:
     Diagonalizing with lowered threshold

     Davidson diagonalization with overlap
     ethr =  1.64E-04,  avg # of iterations = 17.2

     negative rho (up, down):  2.821E-04 0.000E+00

     total cpu time spent up to now is     1242.8 secs

     total energy              =  -24358.16193084 Ry
     estimated scf accuracy    <       5.09251716 Ry

     iteration #  2     ecut=    77.00 Ry     beta= 0.20
     Davidson diagonalization with overlap
     ethr =  4.02E-04,  avg # of iterations =  1.8

     negative rho (up, down):  4.085E-05 0.000E+00

     total cpu time spent up to now is     1463.3 secs

     total energy              =  -24357.15924737 Ry
     estimated scf accuracy    <       2.63166346 Ry

     iteration #  3     ecut=    77.00 Ry     beta= 0.20
     Davidson diagonalization with overlap
     ethr =  2.08E-04,  avg # of iterations = 11.2

     negative rho (up, down):  2.922E-05 0.000E+00

     total cpu time spent up to now is     1763.6 secs

     total energy              =  -24357.46949852 Ry
     estimated scf accuracy    <       0.65045989 Ry

     iteration #  4     ecut=    77.00 Ry     beta= 0.20
     Davidson diagonalization with overlap
     ethr =  5.13E-05,  avg # of iterations = 18.5

     negative rho (up, down):  3.363E-05 0.000E+00

     total cpu time spent up to now is     2417.8 secs

     total energy              =  -24358.07129258 Ry
     estimated scf accuracy    <       0.33660538 Ry

     iteration #  5     ecut=    77.00 Ry     beta= 0.20
     Davidson diagonalization with overlap
     ethr =  2.66E-05,  avg # of iterations = 12.8

     negative rho (up, down):  6.265E-05 0.000E+00

     total cpu time spent up to now is     2754.2 secs

     total energy              =  -24358.12393989 Ry
     estimated scf accuracy    <       0.17736129 Ry

     iteration #  6     ecut=    77.00 Ry     beta= 0.20
     Davidson diagonalization with overlap
     c_bands:  3 eigenvalues not converged
     c_bands:  5 eigenvalues not converged
     c_bands:  2 eigenvalues not converged
     ethr =  1.40E-05,  avg # of iterations = 23.5

     negative rho (up, down):  1.893E-04 0.000E+00

     total cpu time spent up to now is     3174.3 secs

     total energy              =  -24358.12448181 Ry
     estimated scf accuracy    <       0.11708369 Ry

     iteration #  7     ecut=    77.00 Ry     beta= 0.20
     Davidson diagonalization with overlap
     c_bands:  5 eigenvalues not converged
     c_bands:  4 eigenvalues not converged
     c_bands:  1 eigenvalues not converged
     ethr =  9.24E-06,  avg # of iterations = 22.2

     negative rho (up, down):  6.231E-04 0.000E+00

     total cpu time spent up to now is     3592.8 secs

     total energy              =  -24358.16859334 Ry
     estimated scf accuracy    <       0.04585253 Ry

     iteration #  8     ecut=    77.00 Ry     beta= 0.20
     Davidson diagonalization with overlap
     c_bands:  4 eigenvalues not converged
     c_bands:  5 eigenvalues not converged
     c_bands:  2 eigenvalues not converged
     c_bands:  4 eigenvalues not converged
     ethr =  3.62E-06,  avg # of iterations = 30.0

     negative rho (up, down):  5.281E-04 0.000E+00

     total cpu time spent up to now is     4242.1 secs

     total energy              =  -24358.18194605 Ry
     estimated scf accuracy    <       0.04832880 Ry

     iteration #  9     ecut=    77.00 Ry     beta= 0.20
     Davidson diagonalization with overlap
     c_bands:  2 eigenvalues not converged
     c_bands:  2 eigenvalues not converged
     ethr =  3.62E-06,  avg # of iterations = 16.8

     negative rho (up, down):  4.846E-04 0.000E+00

     total cpu time spent up to now is     4554.1 secs

     total energy              =  -24358.18074745 Ry
     estimated scf accuracy    <       0.01004395 Ry

     iteration # 10     ecut=    77.00 Ry     beta= 0.20
     Davidson diagonalization with overlap
     c_bands:  1 eigenvalues not converged
     c_bands:  3 eigenvalues not converged
     c_bands:  3 eigenvalues not converged
     c_bands:  2 eigenvalues not converged
     ethr =  7.93E-07,  avg # of iterations = 45.0

     negative rho (up, down):  5.083E-04 0.000E+00

     total cpu time spent up to now is     5498.3 secs

     total energy              =  -24358.19478034 Ry
     estimated scf accuracy    <       0.00298658 Ry

     iteration # 11     ecut=    77.00 Ry     beta= 0.20
     Davidson diagonalization with overlap
     c_bands:  2 eigenvalues not converged
     c_bands:  4 eigenvalues not converged
     c_bands:  5 eigenvalues not converged
     ethr =  2.36E-07,  avg # of iterations = 17.0

     negative rho (up, down):  6.267E-04 0.000E+00

     total cpu time spent up to now is     5947.0 secs

     total energy              =  -24358.19479535 Ry
     estimated scf accuracy    <       0.00366036 Ry

     iteration # 12     ecut=    77.00 Ry     beta= 0.20
     Davidson diagonalization with overlap
     c_bands:  1 eigenvalues not converged
     c_bands:  5 eigenvalues not converged
     ethr =  2.36E-07,  avg # of iterations = 13.0

     negative rho (up, down):  1.001E-03 0.000E+00

     total cpu time spent up to now is     6206.7 secs

     total energy              =  -24358.19442568 Ry
     estimated scf accuracy    <       0.00101600 Ry

     iteration # 13     ecut=    77.00 Ry     beta= 0.20
     Davidson diagonalization with overlap
     c_bands:  5 eigenvalues not converged
     ethr =  8.02E-08,  avg # of iterations = 26.2

     negative rho (up, down):  8.265E-04 0.000E+00

     total cpu time spent up to now is     7122.8 secs

     total energy              =  -24358.19509859 Ry
     estimated scf accuracy    <       0.00388974 Ry

     iteration # 14     ecut=    77.00 Ry     beta= 0.20
     Davidson diagonalization with overlap
     ethr =  8.02E-08,  avg # of iterations =  7.5

     negative rho (up, down):  8.527E-04 0.000E+00

     total cpu time spent up to now is     7518.5 secs

     total energy              =  -24358.19564521 Ry
     estimated scf accuracy    <       0.00024449 Ry

     iteration # 15     ecut=    77.00 Ry     beta= 0.20
     Davidson diagonalization with overlap
     c_bands:  1 eigenvalues not converged
     ethr =  1.93E-08,  avg # of iterations = 14.2

     negative rho (up, down):  8.725E-04 0.000E+00

     total cpu time spent up to now is     8046.4 secs

     total energy              =  -24358.19590767 Ry
     estimated scf accuracy    <       0.00005568 Ry

     iteration # 16     ecut=    77.00 Ry     beta= 0.20
     Davidson diagonalization with overlap
     ethr =  4.39E-09,  avg # of iterations = 15.0

     negative rho (up, down):  9.282E-04 0.000E+00

     total cpu time spent up to now is     8568.9 secs

     total energy              =  -24358.19590915 Ry
     estimated scf accuracy    <       0.00007421 Ry

     iteration # 17     ecut=    77.00 Ry     beta= 0.20
     Davidson diagonalization with overlap
     ethr =  4.39E-09,  avg # of iterations = 13.5

     negative rho (up, down):  9.411E-04 0.000E+00

     total cpu time spent up to now is     9070.8 secs

     total energy              =  -24358.19594902 Ry
     estimated scf accuracy    <       0.00005772 Ry

     iteration # 18     ecut=    77.00 Ry     beta= 0.20
     Davidson diagonalization with overlap
     ethr =  4.39E-09,  avg # of iterations =  1.0

     negative rho (up, down):  9.347E-04 0.000E+00

     total cpu time spent up to now is     9276.9 secs

     total energy              =  -24358.19593457 Ry
     estimated scf accuracy    <       0.00003639 Ry

     iteration # 19     ecut=    77.00 Ry     beta= 0.20
     Davidson diagonalization with overlap
     ethr =  2.87E-09,  avg # of iterations =  2.0

     negative rho (up, down):  9.372E-04 0.000E+00

     total cpu time spent up to now is     9502.1 secs

     total energy              =  -24358.19592747 Ry
     estimated scf accuracy    <       0.00001189 Ry

     iteration # 20     ecut=    77.00 Ry     beta= 0.20
     Davidson diagonalization with overlap
     c_bands:  4 eigenvalues not converged
     ethr =  9.38E-10,  avg # of iterations = 16.2

     negative rho (up, down):  9.376E-04 0.000E+00

     total cpu time spent up to now is     9967.9 secs

     total energy              =  -24358.19593937 Ry
     estimated scf accuracy    <       0.00000211 Ry

     iteration # 21     ecut=    77.00 Ry     beta= 0.20
     Davidson diagonalization with overlap
     c_bands:  1 eigenvalues not converged
     c_bands:  1 eigenvalues not converged
     ethr =  1.67E-10,  avg # of iterations = 19.2

     negative rho (up, down):  9.377E-04 0.000E+00

     total cpu time spent up to now is    10521.7 secs

     total energy              =  -24358.19594036 Ry
     estimated scf accuracy    <       0.00000288 Ry

     iteration # 22     ecut=    77.00 Ry     beta= 0.20
     Davidson diagonalization with overlap
     c_bands:  1 eigenvalues not converged
     ethr =  1.67E-10,  avg # of iterations =  6.2

     negative rho (up, down):  9.397E-04 0.000E+00

     total cpu time spent up to now is    10752.6 secs

     total energy              =  -24358.19593886 Ry
     estimated scf accuracy    <       0.00000122 Ry

     iteration # 23     ecut=    77.00 Ry     beta= 0.20
     Davidson diagonalization with overlap
     c_bands:  3 eigenvalues not converged
     ethr =  9.64E-11,  avg # of iterations = 14.5

     negative rho (up, down):  9.403E-04 0.000E+00

     total cpu time spent up to now is    11125.9 secs

     End of self-consistent calculation

          k = 0.0000 0.0000 0.0000 (321495 PWs)   bands (ev):

   -88.7762 -66.6841 -66.6630 -66.6630 -66.6630 -66.6630 -66.6630 -66.6630
   -66.6418 -66.6418 -66.6418 -66.6418 -66.6418 -66.6418 -66.6418 -66.6418
   -66.6418 -66.6184 -66.5977 -66.5976 -66.5974 -66.5973 -66.5972 -66.5970
   -66.5768 -66.5766 -66.5764 -66.5762 -66.5761 -66.5760 -66.5760 -66.5758
   -66.5757 -66.5584 -66.5477 -66.5409 -66.5366 -66.5328 -66.5273 -66.5203
   -66.5199 -66.5106 -66.5093 -66.5031 -66.5023 -66.4884 -66.4877 -66.4814
   -66.4785 -54.6180 -54.5769 -54.5361 -41.0105 -41.0105 -41.0105 -40.9438
   -40.9437 -40.9437 -40.9357 -40.9357 -40.9357 -40.9357 -40.9357 -40.9357
   -40.8829 -40.8713 -40.8691 -40.8691 -40.8690 -40.8689 -40.8689 -40.8688
   -40.8686 -40.8442 -40.8102 -40.8101 -40.8101 -40.8101 -40.8101 -40.8101
   -40.8097 -40.8077 -40.8028 -40.8028 -40.8028 -40.8028 -40.8028 -40.8028
   -40.8025 -40.7917 -40.7834 -40.7791 -40.7783 -40.7753 -40.7753 -40.7753
   -40.7753 -40.7753 -40.7753 -40.7611 -40.7611 -40.7611 -40.7611 -40.7611
   -40.7611 -40.7610 -40.7610 -40.7610 -40.7437 -40.7436 -40.7436 -40.7435
   -40.7434 -40.7433 -40.7380 -40.7379 -40.7378 -40.7376 -40.7375 -40.7374
   -40.7229 -40.7089 -40.7089 -40.7088 -40.7087 -40.7086 -40.7086 -40.7006
   -40.6975 -40.6975 -40.6975 -40.6967 -40.6965 -40.6962 -40.6961 -40.6960
   -40.6959 -40.6959 -40.6957 -40.6956 -40.6869 -40.6867 -40.6814 -40.6779
   -40.6761 -40.6745 -40.6737 -40.6708 -40.6690 -40.6620 -40.6602 -40.6510
   -40.6507 -40.6507 -40.6507 -40.6507 -40.6507 -40.6507 -40.6484 -40.6452
   -40.6410 -40.6366 -40.6353 -40.6352 -40.6313 -40.6311 -40.6310 -40.6310
   -40.6302 -40.6260 -40.6226 -40.6198 -40.6158 -40.6099 -40.6081 -40.6034
   -40.6034 -40.5845 -40.5843 -40.5843 -40.5841 -40.5841 -40.5840 -40.5621
   -40.5590 -40.5562 -40.5370 -40.5370 -40.5203 -40.5168 -40.5162 -40.5063
   -40.5026 -40.4949 -40.4589 -40.4529 -20.1203 -20.0256 -19.9006 -19.3180
   -19.2563 -19.2525 -19.2501 -19.2500 -19.2498 -19.2349 -19.1888 -19.1685
   -19.1423 -19.1417 -19.1380 -19.0872 -19.0666 -19.0572 -19.0240 -19.0209
   -19.0127 -18.8702 -18.7070 -18.5571 -18.5107 -18.4873 -18.4702 -18.4569
   -18.4545 -18.4525 -18.3967 -18.3670 -18.3572 -18.3102 -18.3098 -18.3007
   -18.2416 -18.2203 -18.2039 -18.1802 -18.1728 -18.1637 -18.1472 -18.1442
   -18.1442 -18.1441 -18.1437 -18.1436 -18.1405 -18.1092 -18.1035 -18.1035
   -18.1034 -18.0716 -18.0696 -18.0654 -18.0654 -18.0588 -18.0541 -18.0345
   -18.0333 -18.0324 -18.0129 -17.9992 -17.9908 -17.9812 -17.9719 -17.9706
   -17.9667 -17.9468 -17.9458 -17.9376 -17.9344 -17.9250 -17.9211 -17.9179
   -17.9166 -17.9149 -17.8876 -17.8873 -17.8770 -17.8651 -17.8595 -17.8510
   -17.8483 -17.8448 -17.8429 -17.8212 -17.8192 -17.8074 -17.7880 -17.7826
   -17.7769 -17.7705 -17.7655 -17.7614 -12.1530 -11.9335 -11.7616 -11.7616
   -11.7582 -11.6993 -11.6991 -11.6764 -11.6371 -11.6369 -11.6054 -11.4039
   -11.2406 -11.2151 -11.2142 -11.2088 -11.2081 -11.2011 -11.1654 -11.1370
   -11.1348 -11.1336 -11.1320 -11.1320 -11.1256 -11.0857 -11.0666 -11.0190
   -11.0165 -11.0090 -10.9921 -10.9778 -10.9768 -10.9743 -10.9331 -10.9270
   -10.9199 -10.9176 -10.9173 -10.9158 -10.9021 -10.9004 -10.8683 -10.8580
   -10.8398 -10.8361 -10.8358 -10.8357 -10.8334 -10.8329 -10.8225 -10.8089
   -10.8085 -10.8045 -10.7926 -10.7905 -10.7889 -10.7867 -10.7864 -10.7821
   -10.7723 -10.7705 -10.7403 -10.7297 -10.7290 -10.7287 -10.6759 -10.6707
   -10.6594 -10.6508 -10.6275 -10.6154 -10.6040 -10.6003 -10.5977 -10.2044
   -10.1846 -10.0543 -10.0499 -10.0493  -9.9229  -9.8936  -9.8911  -9.8230
    -9.7951  -9.7831  -9.7824  -9.7776  -9.7765  -9.7762  -9.7394  -9.7241
    -9.7205  -9.7119  -9.6940  -9.6919  -9.6894  -9.6844  -9.6801  -9.6300
    -9.6296  -9.6283  -9.6259  -9.6219  -9.6190  -9.5807  -9.5796  -9.5789
    -9.5784  -9.5780  -9.5751  -9.5636  -9.5576  -9.5539  -9.5516  -9.5324
    -9.5316  -9.5237  -9.5123  -9.5110  -9.4565  -9.4542  -9.4375  -9.4345
    -9.4332  -9.4329  -9.3732  -9.3501  -9.3415  -9.3238  -9.3204  -9.3114
    -9.2956  -9.2951  -9.2424  -9.2398  -9.2214  -9.2166  -9.2008  -9.1938
    -9.1926  -9.1872  -9.1851  -9.1717  -9.0594  -9.0558  -9.0332  -9.0284
    -9.0234  -9.0223  -9.0221  -9.0219  -9.0144  -9.0121  -8.9946  -8.9525
    -8.9432  -8.9406  -8.9211  -8.9125  -8.8895  -8.8752  -8.8626  -8.8506
    -8.8500  -8.8187  -8.8043  -8.8037  -8.8029  -8.8023  -8.7968  -8.7822
    -8.7772  -8.7436  -8.7401  -8.7366  -8.7268  -8.7216  -8.7211  -8.7203
    -8.7001  -8.6959  -8.6835  -8.4804  -8.4333  -8.4333  -8.3818  -8.3647
    -8.3611  -8.3598  -8.3213  -8.3212  -8.3212  -8.3211  -8.3211  -8.3210
    -8.2850  -8.2776  -8.2550  -8.2526  -8.2524  -8.2503  -8.2429  -8.2429
    -8.2114  -8.2026  -8.2018  -8.1857  -8.1759  -8.0264  -8.0185  -7.9662
    -7.9160  -7.9116  -7.7736  -7.7073  -7.7026  -7.6880  -7.5860  -7.5859
    -7.5859  -7.5857  -7.5857  -7.5856  -7.5684  -7.5422  -7.5402  -7.5399
    -7.5392  -7.5392  -7.5391  -7.5356  -7.5262  -7.5225  -7.5193  -7.5160
    -7.5135  -7.5106  -7.5050  -7.4924  -7.4844  -7.4798  -7.4729  -7.4718
    -7.4683  -7.4674  -7.4667  -7.4653  -7.4460  -7.4459  -7.4332  -7.4314
    -7.4246  -7.4228  -7.4214  -7.4212  -7.4198  -7.4187  -7.3896  -7.3884
    -7.3265  -7.3044  -7.3044  -7.2592  -7.2462  -7.2433  -7.2328  -7.2310
    -7.2039  -7.1812  -7.1785  -7.1650  -7.0836  -6.9799  -6.9767  -6.9314
    -6.9196  -6.9172  -6.8626  -6.8503  -6.8385  -6.8088  -6.8002  -6.7997
    -6.7297  -6.7162  -6.6870  -6.6868  -6.6493  -6.6479  -6.6244  -6.6211
    -6.6160  -6.6131  -6.5993  -6.5992  -6.5878  -6.5277  -6.5235  -6.5229
    -6.5188  -6.5181  -6.5113  -6.5052  -6.5025  -6.4833  -6.4566  -6.4563
    -6.4450  -6.4317  -6.4292  -6.4279  -6.4254  -6.4242  -6.3709  -6.3604
    -6.3524  -6.3524  -6.3524  -6.3524  -6.3524  -6.3523  -6.3368  -6.3165
    -6.2802  -6.2767  -6.2761  -6.2749  -6.2748  -6.2731  -6.2543  -6.2190
    -6.2167  -6.1762  -6.1564  -6.1448  -5.9435  -5.7241  -5.6994  -5.4981
    -5.1577  -4.6817  -3.8997  -3.8415  -3.8384  -3.8360  -3.8351  -3.8227
    -3.8078  -3.8050  -3.8047  -3.8039  -3.8016  -3.7922  -3.7229  -3.6112
    -3.6045  -3.5905  -3.5902  -3.5864  -3.5844  -3.5762  -3.5761  -3.5745
    -3.5738  -3.4930  -3.4930  -3.4929  -3.4911  -3.4794  -3.4765  -3.4756
    -3.4754  -3.4736  -3.4731  -3.4266  -3.4262  -3.4261  -3.4030  -3.3998
    -3.3857  -3.3821  -3.3820  -3.3744  -3.3737  -3.3736  -3.3660  -3.3654
    -3.3636  -3.3567  -3.3557  -3.3417  -3.3321  -3.3183  -3.2992  -3.2836
    -3.2787  -3.2749  -3.2609  -3.2532  -3.2469  -3.2452  -3.2371  -3.2297
    -3.1219  -3.0268  -3.0267  -3.0259  -3.0218  -3.0218  -2.9672  -2.9582
    -2.9578  -2.9548  -2.9546  -2.9545  -2.9543  -2.9543  -2.9540  -2.9333
    -2.9331  -2.9327  -2.9199  -2.9088  -2.9072  -2.9014  -2.8973  -2.8959
    -2.8921  -2.8867  -2.8847  -2.8828  -2.8809  -2.8766  -2.8729  -2.8512
    -2.8495  -2.8300  -2.8082  -2.8064  -2.7933  -2.7901  -2.7786  -2.7721
    -2.7712  -2.7433  -2.7397  -2.7294  -2.7284  -2.7273  -2.7259  -2.7057
    -2.7042  -2.6794  -2.6618  -2.6552  -2.6360  -2.6337  -2.6326  -2.6268
    -2.6263  -2.5890  -2.5396  -2.5017  -2.4723  -2.4712  -2.4571  -2.4564
    -2.4524

          k = 0.0000-0.5773 0.0000 (321564 PWs)   bands (ev):

   -88.7762 -66.6779 -66.6779 -66.6674 -66.6674 -66.6524 -66.6524 -66.6524
   -66.6524 -66.6480 -66.6480 -66.6418 -66.6418 -66.6418 -66.6418 -66.6374
   -66.6374 -66.6124 -66.6121 -66.6018 -66.6017 -66.5869 -66.5868 -66.5868
   -66.5866 -66.5825 -66.5822 -66.5764 -66.5764 -66.5760 -66.5759 -66.5718
   -66.5717 -66.5570 -66.5491 -66.5426 -66.5376 -66.5310 -66.5247 -66.5232
   -66.5173 -66.5110 -66.5102 -66.5028 -66.5024 -66.4888 -66.4873 -66.4819
   -66.4781 -54.6180 -54.5769 -54.5361 -40.9791 -40.9791 -40.9791 -40.9791
   -40.9525 -40.9524 -40.9405 -40.9405 -40.9125 -40.9124 -40.9122 -40.9121
   -40.8901 -40.8901 -40.8901 -40.8901 -40.8858 -40.8856 -40.8738 -40.8737
   -40.8532 -40.8524 -40.8442 -40.8321 -40.8321 -40.8258 -40.8235 -40.8234
   -40.8234 -40.8233 -40.8222 -40.8222 -40.8189 -40.8124 -40.8114 -40.8114
   -40.7985 -40.7949 -40.7820 -40.7820 -40.7820 -40.7820 -40.7733 -40.7733
   -40.7671 -40.7669 -40.7612 -40.7612 -40.7611 -40.7611 -40.7611 -40.7611
   -40.7556 -40.7556 -40.7539 -40.7525 -40.7525 -40.7518 -40.7481 -40.7464
   -40.7463 -40.7419 -40.7304 -40.7304 -40.7304 -40.7304 -40.7170 -40.7169
   -40.7169 -40.7169 -40.7144 -40.7107 -40.7084 -40.7081 -40.6962 -40.6962
   -40.6959 -40.6959 -40.6959 -40.6959 -40.6959 -40.6959 -40.6946 -40.6946
   -40.6939 -40.6875 -40.6874 -40.6838 -40.6838 -40.6832 -40.6804 -40.6792
   -40.6754 -40.6647 -40.6646 -40.6642 -40.6641 -40.6637 -40.6636 -40.6609
   -40.6563 -40.6503 -40.6478 -40.6478 -40.6459 -40.6446 -40.6372 -40.6350
   -40.6295 -40.6295 -40.6293 -40.6293 -40.6264 -40.6255 -40.6203 -40.6175
   -40.6173 -40.6173 -40.6172 -40.6166 -40.6117 -40.6084 -40.6001 -40.5984
   -40.5979 -40.5977 -40.5898 -40.5814 -40.5813 -40.5810 -40.5623 -40.5585
   -40.5558 -40.5510 -40.5507 -40.5499 -40.5473 -40.5351 -40.5282 -40.5204
   -40.5020 -40.4979 -40.4829 -40.4599 -19.8909 -19.8804 -19.8214 -19.7669
   -19.6844 -19.6418 -19.4498 -19.4466 -19.3724 -19.3481 -19.2541 -19.2324
   -18.8468 -18.7622 -18.7465 -18.7385 -18.7372 -18.7366 -18.7232 -18.6890
   -18.6595 -18.6436 -18.6274 -18.6027 -18.5954 -18.5673 -18.5528 -18.5431
   -18.5377 -18.5335 -18.4897 -18.4888 -18.4495 -18.4337 -18.4107 -18.4021
   -18.3963 -18.3866 -18.3544 -18.3026 -18.2880 -18.2597 -18.2303 -18.2232
   -18.2143 -18.2137 -18.1671 -18.1476 -18.1243 -18.1242 -18.1241 -18.1239
   -18.1119 -18.1100 -18.1045 -18.0982 -18.0766 -18.0538 -18.0516 -18.0513
   -18.0422 -18.0408 -18.0145 -18.0082 -18.0029 -17.9959 -17.9873 -17.9766
   -17.9738 -17.9706 -17.9420 -17.9347 -17.9321 -17.9284 -17.9218 -17.9118
   -17.8818 -17.8664 -17.8655 -17.8606 -17.8605 -17.8559 -17.8152 -17.8031
   -17.8012 -17.8003 -17.7947 -17.7853 -17.7847 -17.7820 -17.7564 -17.7493
   -17.7399 -17.7351 -17.6879 -17.6813 -12.0802 -11.6850 -11.6716 -11.4775
   -11.4729 -11.4716 -11.4715 -11.4630 -11.4504 -11.4408 -11.4160 -11.4028
   -11.3913 -11.3892 -11.3661 -11.3552 -11.3360 -11.3084 -11.3058 -11.3050
   -11.2836 -11.2796 -11.2767 -11.2583 -11.2533 -11.2533 -11.2223 -11.2082
   -11.2080 -11.1719 -11.1537 -11.1510 -11.1486 -11.1481 -11.0490 -11.0175
   -10.9878 -10.9755 -10.9630 -10.9593 -10.9204 -10.9154 -10.9059 -10.8940
   -10.8872 -10.8706 -10.8565 -10.8332 -10.8311 -10.8278 -10.8272 -10.8264
   -10.8211 -10.8133 -10.8077 -10.7936 -10.7909 -10.7731 -10.7670 -10.7631
   -10.7490 -10.7348 -10.7216 -10.6840 -10.5779 -10.5699 -10.5029 -10.4881
   -10.4396 -10.3739 -10.3318 -10.3251 -10.2432 -10.1740 -10.1268 -10.1232
   -10.1156 -10.1104 -10.0642 -10.0322 -10.0282 -10.0165  -9.9662  -9.9447
    -9.9364  -9.9335  -9.9309  -9.9286  -9.9172  -9.9079  -9.8976  -9.8910
    -9.8881  -9.8762  -9.8094  -9.7923  -9.7915  -9.7681  -9.7572  -9.7513
    -9.7470  -9.7220  -9.7194  -9.7076  -9.7073  -9.6945  -9.6709  -9.6568
    -9.6526  -9.6418  -9.6361  -9.6263  -9.6145  -9.6120  -9.6074  -9.5952
    -9.5530  -9.5259  -9.5258  -9.5117  -9.4934  -9.4768  -9.4668  -9.4652
    -9.4296  -9.4254  -9.3210  -9.3156  -9.2672  -9.2474  -9.1967  -9.1722
    -9.1577  -9.1537  -9.1486  -9.1413  -9.1300  -9.1260  -9.1214  -9.1174
    -9.0819  -9.0484  -9.0447  -9.0293  -9.0234  -9.0081  -8.9993  -8.9918
    -8.9840  -8.9742  -8.9665  -8.9559  -8.9526  -8.9364  -8.9359  -8.9288
    -8.9277  -8.9218  -8.9128  -8.9006  -8.8935  -8.8766  -8.8605  -8.8532
    -8.8518  -8.8371  -8.8360  -8.8348  -8.8308  -8.8239  -8.8165  -8.8063
    -8.8009  -8.7974  -8.7839  -8.7662  -8.7591  -8.7498  -8.7416  -8.7318
    -8.7113  -8.6986  -8.5425  -8.5094  -8.5079  -8.4880  -8.4476  -8.4242
    -8.4126  -8.4034  -8.2607  -8.2224  -8.1897  -8.1897  -8.1681  -8.1189
    -8.1177  -8.0941  -8.0600  -8.0529  -8.0039  -7.9313  -7.9302  -7.9145
    -7.8902  -7.8670  -7.8605  -7.8601  -7.8485  -7.8447  -7.8430  -7.8430
    -7.8412  -7.8356  -7.8245  -7.8000  -7.7973  -7.7971  -7.7959  -7.7900
    -7.7751  -7.7735  -7.7701  -7.7621  -7.7553  -7.7532  -7.7382  -7.7328
    -7.7246  -7.7225  -7.7165  -7.7138  -7.7042  -7.7004  -7.6895  -7.6852
    -7.6807  -7.6648  -7.6579  -7.6578  -7.6576  -7.6517  -7.6455  -7.6179
    -7.6169  -7.6104  -7.5919  -7.5895  -7.5889  -7.5730  -7.5632  -7.5348
    -7.5271  -7.5064  -7.4717  -7.4556  -7.4527  -7.3688  -7.3379  -7.2581
    -7.2476  -7.2406  -7.2287  -7.1980  -7.1859  -7.1536  -7.1191  -7.1138
    -7.0755  -7.0706  -7.0313  -7.0151  -7.0081  -7.0017  -6.9866  -6.9648
    -6.9479  -6.9380  -6.9357  -6.9280  -6.8958  -6.8840  -6.8705  -6.8305
    -6.8246  -6.8175  -6.7948  -6.7590  -6.7165  -6.6889  -6.6711  -6.6547
    -6.6547  -6.6546  -6.6545  -6.6337  -6.6152  -6.6067  -6.5981  -6.5887
    -6.5858  -6.5834  -6.5797  -6.5564  -6.5274  -6.5110  -6.5031  -6.4608
    -6.4345  -6.4207  -6.3475  -6.3234  -6.3232  -6.3231  -6.3213  -6.2805
    -6.2587  -6.2493  -6.2470  -6.2446  -6.2437  -6.2333  -6.2103  -6.2029
    -6.1807  -6.1763  -6.1701  -6.1641  -6.0241  -5.9745  -5.9745  -5.9143
    -5.8996  -5.8925  -5.8557  -5.7532  -5.6896  -5.6746  -5.6555  -5.5396
    -5.5266  -4.6997  -4.0215  -4.0168  -4.0164  -3.9914  -3.8920  -3.8898
    -3.8898  -3.8688  -3.8259  -3.8254  -3.8143  -3.7743  -3.7727  -3.7682
    -3.7570  -3.7181  -3.7019  -3.6484  -3.5970  -3.5943  -3.5918  -3.5910
    -3.5782  -3.5758  -3.5756  -3.5430  -3.5424  -3.5095  -3.5068  -3.4995
    -3.4980  -3.4844  -3.4740  -3.4712  -3.4678  -3.4627  -3.4603  -3.4244
    -3.4178  -3.4022  -3.3832  -3.3662  -3.3567  -3.3531  -3.3434  -3.3433
    -3.3267  -3.3139  -3.3105  -3.3051  -3.3030  -3.2679  -3.2670  -3.2667
    -3.2657  -3.2620  -3.2610  -3.2452  -3.2383  -3.2287  -3.2206  -3.2102
    -3.2044  -3.2007  -3.1971  -3.1912  -3.1867  -3.1621  -3.1351  -3.1300
    -3.1172  -3.1065  -3.1010  -3.0644  -3.0628  -3.0595  -3.0250  -3.0237
    -3.0208  -3.0036  -3.0031  -3.0028  -3.0027  -2.9805  -2.9758  -2.9626
    -2.9560  -2.9546  -2.9441  -2.9372  -2.9214  -2.9134  -2.9123  -2.9056
    -2.8954  -2.8856  -2.8797  -2.8758  -2.8632  -2.8587  -2.8523  -2.8392
    -2.8240  -2.8040  -2.7984  -2.7959  -2.7926  -2.7559  -2.7152  -2.6983
    -2.6454  -2.6425  -2.6410  -2.6394  -2.6247  -2.6220  -2.5672  -2.5596
    -2.5178  -2.5047  -2.4982  -2.4873  -2.4823  -2.4717  -2.3981  -2.3535
    -2.3175

          k =-0.5000-0.2887 0.0000 (321564 PWs)   bands (ev):

   -88.7762 -66.6779 -66.6779 -66.6674 -66.6674 -66.6524 -66.6524 -66.6524
   -66.6524 -66.6480 -66.6480 -66.6418 -66.6418 -66.6418 -66.6418 -66.6374
   -66.6374 -66.6125 -66.6121 -66.6018 -66.6017 -66.5868 -66.5868 -66.5868
   -66.5867 -66.5826 -66.5822 -66.5765 -66.5764 -66.5759 -66.5759 -66.5718
   -66.5717 -66.5564 -66.5508 -66.5418 -66.5354 -66.5330 -66.5252 -66.5208
   -66.5201 -66.5103 -66.5094 -66.5031 -66.5028 -66.4888 -66.4871 -66.4819
   -66.4782 -54.6180 -54.5769 -54.5361 -40.9791 -40.9791 -40.9791 -40.9791
   -40.9525 -40.9524 -40.9405 -40.9405 -40.9126 -40.9125 -40.9121 -40.9120
   -40.8901 -40.8901 -40.8901 -40.8901 -40.8859 -40.8855 -40.8738 -40.8737
   -40.8496 -40.8485 -40.8379 -40.8358 -40.8321 -40.8321 -40.8279 -40.8235
   -40.8235 -40.8234 -40.8233 -40.8222 -40.8222 -40.8158 -40.8114 -40.8114
   -40.8025 -40.7884 -40.7820 -40.7820 -40.7820 -40.7820 -40.7733 -40.7733
   -40.7672 -40.7668 -40.7612 -40.7612 -40.7611 -40.7611 -40.7611 -40.7611
   -40.7556 -40.7556 -40.7535 -40.7525 -40.7525 -40.7467 -40.7463 -40.7463
   -40.7462 -40.7390 -40.7304 -40.7304 -40.7304 -40.7304 -40.7170 -40.7170
   -40.7169 -40.7169 -40.7165 -40.7085 -40.7081 -40.7043 -40.6972 -40.6964
   -40.6963 -40.6959 -40.6959 -40.6959 -40.6959 -40.6958 -40.6957 -40.6946
   -40.6946 -40.6874 -40.6874 -40.6852 -40.6851 -40.6838 -40.6838 -40.6803
   -40.6664 -40.6647 -40.6646 -40.6641 -40.6641 -40.6638 -40.6636 -40.6632
   -40.6559 -40.6493 -40.6487 -40.6478 -40.6478 -40.6442 -40.6382 -40.6354
   -40.6295 -40.6294 -40.6294 -40.6293 -40.6253 -40.6238 -40.6202 -40.6190
   -40.6176 -40.6173 -40.6173 -40.6171 -40.6128 -40.6082 -40.5995 -40.5984
   -40.5980 -40.5972 -40.5919 -40.5859 -40.5814 -40.5812 -40.5643 -40.5568
   -40.5549 -40.5511 -40.5507 -40.5485 -40.5436 -40.5407 -40.5354 -40.5141
   -40.4996 -40.4900 -40.4773 -40.4705 -19.8881 -19.8813 -19.8131 -19.7759
   -19.6821 -19.6539 -19.4485 -19.4463 -19.3665 -19.3456 -19.2505 -19.2305
   -18.8538 -18.7746 -18.7411 -18.7385 -18.7372 -18.7363 -18.7207 -18.6885
   -18.6650 -18.6357 -18.6263 -18.6085 -18.5902 -18.5663 -18.5473 -18.5470
   -18.5437 -18.5233 -18.4896 -18.4890 -18.4466 -18.4377 -18.4107 -18.4082
   -18.3982 -18.3837 -18.3606 -18.3117 -18.2739 -18.2617 -18.2295 -18.2286
   -18.2174 -18.2113 -18.1608 -18.1475 -18.1244 -18.1243 -18.1241 -18.1239
   -18.1236 -18.1060 -18.1011 -18.0908 -18.0642 -18.0571 -18.0528 -18.0500
   -18.0442 -18.0354 -18.0201 -18.0092 -18.0068 -17.9944 -17.9784 -17.9773
   -17.9739 -17.9709 -17.9397 -17.9394 -17.9304 -17.9292 -17.9231 -17.9163
   -17.8802 -17.8688 -17.8659 -17.8606 -17.8605 -17.8579 -17.8155 -17.8050
   -17.8013 -17.8012 -17.7953 -17.7869 -17.7848 -17.7821 -17.7600 -17.7451
   -17.7405 -17.7299 -17.6894 -17.6801 -12.0654 -11.6844 -11.6692 -11.5264
   -11.4749 -11.4718 -11.4716 -11.4647 -11.4500 -11.4467 -11.4236 -11.3966
   -11.3920 -11.3779 -11.3613 -11.3561 -11.3400 -11.3269 -11.3067 -11.3058
   -11.2796 -11.2793 -11.2782 -11.2533 -11.2533 -11.2379 -11.2092 -11.2081
   -11.2028 -11.1757 -11.1533 -11.1504 -11.1490 -11.1483 -11.0380 -11.0212
   -10.9890 -10.9742 -10.9681 -10.9499 -10.9332 -10.9118 -10.9061 -10.8922
   -10.8858 -10.8643 -10.8448 -10.8399 -10.8332 -10.8274 -10.8265 -10.8242
   -10.8207 -10.8085 -10.8065 -10.7960 -10.7889 -10.7741 -10.7718 -10.7624
   -10.7506 -10.7371 -10.7335 -10.6816 -10.5898 -10.5584 -10.4960 -10.4898
   -10.4277 -10.3806 -10.3318 -10.3051 -10.2572 -10.1858 -10.1277 -10.1230
   -10.1171 -10.1086 -10.0479 -10.0475 -10.0266 -10.0051  -9.9687  -9.9431
    -9.9369  -9.9333  -9.9319  -9.9277  -9.9144  -9.8994  -9.8912  -9.8891
    -9.8862  -9.8783  -9.8114  -9.7980  -9.7967  -9.7673  -9.7574  -9.7503
    -9.7477  -9.7305  -9.7167  -9.7066  -9.7052  -9.6959  -9.6748  -9.6588
    -9.6573  -9.6423  -9.6353  -9.6160  -9.6121  -9.6099  -9.6071  -9.5998
    -9.5417  -9.5286  -9.5234  -9.5035  -9.4952  -9.4719  -9.4668  -9.4654
    -9.4360  -9.4270  -9.3508  -9.3112  -9.2568  -9.2514  -9.2016  -9.1927
    -9.1730  -9.1525  -9.1489  -9.1330  -9.1292  -9.1258  -9.1223  -9.1180
    -9.0902  -9.0558  -9.0385  -9.0285  -9.0111  -9.0079  -9.0032  -8.9920
    -8.9809  -8.9691  -8.9660  -8.9589  -8.9458  -8.9377  -8.9326  -8.9307
    -8.9278  -8.9255  -8.9114  -8.9030  -8.8853  -8.8820  -8.8595  -8.8530
    -8.8502  -8.8370  -8.8363  -8.8360  -8.8249  -8.8233  -8.8149  -8.8086
    -8.7998  -8.7988  -8.7849  -8.7659  -8.7597  -8.7480  -8.7370  -8.7330
    -8.7113  -8.6968  -8.5419  -8.5095  -8.5077  -8.4797  -8.4510  -8.4256
    -8.4143  -8.4048  -8.2523  -8.2209  -8.1897  -8.1897  -8.1747  -8.1186
    -8.1180  -8.0903  -8.0658  -8.0579  -7.9955  -7.9323  -7.9296  -7.9046
    -7.8987  -7.8624  -7.8622  -7.8595  -7.8482  -7.8449  -7.8430  -7.8430
    -7.8375  -7.8370  -7.8295  -7.8013  -7.7974  -7.7968  -7.7961  -7.7884
    -7.7745  -7.7738  -7.7689  -7.7631  -7.7565  -7.7487  -7.7337  -7.7302
    -7.7291  -7.7228  -7.7161  -7.7120  -7.7016  -7.6985  -7.6933  -7.6916
    -7.6813  -7.6696  -7.6578  -7.6578  -7.6515  -7.6456  -7.6416  -7.6309
    -7.6172  -7.6125  -7.5915  -7.5888  -7.5840  -7.5810  -7.5586  -7.5367
    -7.5242  -7.5001  -7.4879  -7.4679  -7.4474  -7.3802  -7.3067  -7.2778
    -7.2501  -7.2386  -7.2277  -7.2117  -7.1862  -7.1330  -7.1192  -7.1141
    -7.0702  -7.0700  -7.0368  -7.0162  -7.0077  -6.9985  -6.9738  -6.9635
    -6.9419  -6.9402  -6.9373  -6.9267  -6.8954  -6.8805  -6.8624  -6.8336
    -6.8275  -6.8192  -6.8018  -6.7644  -6.7285  -6.6857  -6.6668  -6.6547
    -6.6546  -6.6546  -6.6545  -6.6405  -6.6112  -6.6091  -6.5905  -6.5882
    -6.5851  -6.5813  -6.5786  -6.5457  -6.5260  -6.5126  -6.5051  -6.4653
    -6.4383  -6.4188  -6.3896  -6.3237  -6.3234  -6.3231  -6.3226  -6.2633
    -6.2587  -6.2563  -6.2473  -6.2453  -6.2434  -6.2296  -6.2150  -6.2056
    -6.1923  -6.1768  -6.1726  -6.1665  -5.9746  -5.9745  -5.9544  -5.9176
    -5.9085  -5.8912  -5.8866  -5.7567  -5.6947  -5.6671  -5.6548  -5.5502
    -5.5121  -4.6737  -4.0207  -4.0178  -4.0096  -4.0019  -3.8900  -3.8900
    -3.8855  -3.8730  -3.8258  -3.8255  -3.8141  -3.7743  -3.7668  -3.7595
    -3.7571  -3.7506  -3.6786  -3.6573  -3.5990  -3.5947  -3.5911  -3.5902
    -3.5777  -3.5758  -3.5756  -3.5435  -3.5377  -3.5302  -3.5046  -3.4980
    -3.4948  -3.4838  -3.4736  -3.4706  -3.4691  -3.4642  -3.4603  -3.4285
    -3.4124  -3.4071  -3.3885  -3.3647  -3.3562  -3.3556  -3.3436  -3.3434
    -3.3311  -3.3150  -3.3091  -3.3053  -3.2958  -3.2762  -3.2670  -3.2666
    -3.2663  -3.2652  -3.2447  -3.2381  -3.2372  -3.2213  -3.2137  -3.2132
    -3.2062  -3.2032  -3.1943  -3.1890  -3.1888  -3.1809  -3.1335  -3.1325
    -3.1208  -3.1066  -3.1012  -3.0646  -3.0624  -3.0502  -3.0266  -3.0237
    -3.0222  -3.0033  -3.0031  -3.0028  -3.0026  -2.9794  -2.9641  -2.9630
    -2.9546  -2.9543  -2.9454  -2.9340  -2.9217  -2.9120  -2.9108  -2.9063
    -2.8961  -2.8904  -2.8810  -2.8719  -2.8717  -2.8559  -2.8437  -2.8361
    -2.8241  -2.8150  -2.8023  -2.7945  -2.7925  -2.7503  -2.7236  -2.7027
    -2.6448  -2.6423  -2.6416  -2.6322  -2.6301  -2.6218  -2.5662  -2.5597
    -2.5136  -2.5027  -2.4996  -2.4918  -2.4821  -2.4710  -2.4208  -2.3372
    -2.3070

          k =-0.5000-0.8660 0.0000 (321564 PWs)   bands (ev):

   -88.7762 -66.6779 -66.6779 -66.6674 -66.6674 -66.6524 -66.6524 -66.6524
   -66.6524 -66.6480 -66.6480 -66.6418 -66.6418 -66.6418 -66.6418 -66.6374
   -66.6374 -66.6124 -66.6121 -66.6018 -66.6017 -66.5869 -66.5868 -66.5868
   -66.5866 -66.5825 -66.5822 -66.5764 -66.5764 -66.5760 -66.5759 -66.5718
   -66.5717 -66.5570 -66.5492 -66.5426 -66.5376 -66.5310 -66.5247 -66.5232
   -66.5173 -66.5110 -66.5102 -66.5029 -66.5024 -66.4889 -66.4872 -66.4819
   -66.4781 -54.6180 -54.5769 -54.5361 -40.9791 -40.9791 -40.9791 -40.9791
   -40.9525 -40.9524 -40.9405 -40.9405 -40.9125 -40.9124 -40.9122 -40.9121
   -40.8901 -40.8901 -40.8901 -40.8901 -40.8858 -40.8856 -40.8738 -40.8737
   -40.8532 -40.8523 -40.8443 -40.8321 -40.8321 -40.8258 -40.8235 -40.8234
   -40.8234 -40.8233 -40.8222 -40.8222 -40.8192 -40.8126 -40.8114 -40.8114
   -40.7984 -40.7948 -40.7820 -40.7820 -40.7820 -40.7820 -40.7733 -40.7733
   -40.7671 -40.7669 -40.7612 -40.7612 -40.7611 -40.7611 -40.7611 -40.7611
   -40.7556 -40.7556 -40.7539 -40.7525 -40.7525 -40.7517 -40.7480 -40.7463
   -40.7463 -40.7419 -40.7304 -40.7304 -40.7304 -40.7304 -40.7170 -40.7169
   -40.7169 -40.7169 -40.7144 -40.7106 -40.7084 -40.7081 -40.6962 -40.6962
   -40.6959 -40.6959 -40.6959 -40.6959 -40.6959 -40.6959 -40.6946 -40.6946
   -40.6939 -40.6875 -40.6874 -40.6838 -40.6838 -40.6832 -40.6803 -40.6791
   -40.6753 -40.6647 -40.6646 -40.6642 -40.6641 -40.6637 -40.6636 -40.6610
   -40.6563 -40.6503 -40.6478 -40.6478 -40.6459 -40.6446 -40.6372 -40.6350
   -40.6295 -40.6295 -40.6293 -40.6293 -40.6265 -40.6254 -40.6203 -40.6175
   -40.6173 -40.6173 -40.6172 -40.6166 -40.6119 -40.6084 -40.6000 -40.5984
   -40.5980 -40.5976 -40.5899 -40.5814 -40.5813 -40.5813 -40.5623 -40.5584
   -40.5557 -40.5510 -40.5507 -40.5501 -40.5471 -40.5352 -40.5281 -40.5207
   -40.5020 -40.4976 -40.4827 -40.4602 -19.8909 -19.8804 -19.8214 -19.7670
   -19.6843 -19.6419 -19.4498 -19.4465 -19.3726 -19.3480 -19.2542 -19.2322
   -18.8466 -18.7622 -18.7464 -18.7385 -18.7372 -18.7366 -18.7231 -18.6888
   -18.6595 -18.6439 -18.6273 -18.6027 -18.5954 -18.5674 -18.5527 -18.5432
   -18.5377 -18.5336 -18.4897 -18.4888 -18.4493 -18.4335 -18.4110 -18.4021
   -18.3963 -18.3865 -18.3546 -18.3028 -18.2879 -18.2595 -18.2301 -18.2233
   -18.2143 -18.2137 -18.1669 -18.1476 -18.1243 -18.1242 -18.1241 -18.1239
   -18.1115 -18.1101 -18.1046 -18.0983 -18.0763 -18.0538 -18.0516 -18.0513
   -18.0423 -18.0407 -18.0147 -18.0083 -18.0030 -17.9959 -17.9873 -17.9766
   -17.9738 -17.9706 -17.9419 -17.9348 -17.9322 -17.9284 -17.9218 -17.9118
   -17.8817 -17.8664 -17.8656 -17.8606 -17.8605 -17.8559 -17.8152 -17.8031
   -17.8012 -17.8003 -17.7949 -17.7853 -17.7847 -17.7820 -17.7561 -17.7494
   -17.7399 -17.7352 -17.6879 -17.6813 -12.0799 -11.6850 -11.6715 -11.4777
   -11.4729 -11.4716 -11.4715 -11.4630 -11.4504 -11.4410 -11.4160 -11.4029
   -11.3913 -11.3892 -11.3661 -11.3552 -11.3360 -11.3084 -11.3059 -11.3051
   -11.2836 -11.2796 -11.2767 -11.2583 -11.2533 -11.2533 -11.2223 -11.2082
   -11.2080 -11.1719 -11.1537 -11.1509 -11.1487 -11.1481 -11.0490 -11.0175
   -10.9878 -10.9755 -10.9630 -10.9593 -10.9203 -10.9155 -10.9058 -10.8940
   -10.8872 -10.8706 -10.8563 -10.8332 -10.8311 -10.8278 -10.8272 -10.8264
   -10.8211 -10.8132 -10.8078 -10.7936 -10.7908 -10.7730 -10.7670 -10.7631
   -10.7490 -10.7347 -10.7215 -10.6841 -10.5781 -10.5698 -10.5030 -10.4881
   -10.4399 -10.3740 -10.3319 -10.3247 -10.2433 -10.1739 -10.1267 -10.1232
   -10.1156 -10.1104 -10.0639 -10.0322 -10.0282 -10.0165  -9.9659  -9.9447
    -9.9364  -9.9335  -9.9309  -9.9286  -9.9172  -9.9079  -9.8977  -9.8911
    -9.8881  -9.8762  -9.8097  -9.7922  -9.7915  -9.7679  -9.7571  -9.7513
    -9.7470  -9.7219  -9.7194  -9.7076  -9.7073  -9.6945  -9.6708  -9.6572
    -9.6522  -9.6418  -9.6361  -9.6260  -9.6146  -9.6120  -9.6074  -9.5953
    -9.5528  -9.5259  -9.5258  -9.5117  -9.4934  -9.4771  -9.4668  -9.4652
    -9.4296  -9.4253  -9.3211  -9.3156  -9.2675  -9.2474  -9.1967  -9.1722
    -9.1578  -9.1541  -9.1484  -9.1413  -9.1299  -9.1260  -9.1214  -9.1174
    -9.0820  -9.0483  -9.0448  -9.0293  -9.0234  -9.0081  -8.9993  -8.9920
    -8.9840  -8.9742  -8.9664  -8.9559  -8.9527  -8.9363  -8.9359  -8.9288
    -8.9277  -8.9218  -8.9128  -8.9006  -8.8935  -8.8766  -8.8605  -8.8533
    -8.8518  -8.8371  -8.8360  -8.8349  -8.8308  -8.8239  -8.8165  -8.8064
    -8.8009  -8.7974  -8.7839  -8.7662  -8.7591  -8.7497  -8.7416  -8.7318
    -8.7113  -8.6985  -8.5425  -8.5094  -8.5079  -8.4879  -8.4476  -8.4242
    -8.4126  -8.4034  -8.2607  -8.2225  -8.1897  -8.1897  -8.1681  -8.1189
    -8.1177  -8.0944  -8.0600  -8.0531  -8.0039  -7.9313  -7.9302  -7.9143
    -7.8900  -7.8665  -7.8605  -7.8600  -7.8485  -7.8447  -7.8430  -7.8430
    -7.8412  -7.8356  -7.8245  -7.8001  -7.7973  -7.7971  -7.7959  -7.7900
    -7.7752  -7.7735  -7.7704  -7.7619  -7.7552  -7.7532  -7.7382  -7.7327
    -7.7246  -7.7226  -7.7166  -7.7138  -7.7043  -7.7004  -7.6895  -7.6852
    -7.6808  -7.6647  -7.6582  -7.6578  -7.6577  -7.6517  -7.6455  -7.6182
    -7.6169  -7.6104  -7.5919  -7.5896  -7.5889  -7.5729  -7.5631  -7.5348
    -7.5271  -7.5063  -7.4719  -7.4556  -7.4528  -7.3685  -7.3374  -7.2582
    -7.2476  -7.2406  -7.2287  -7.1980  -7.1857  -7.1537  -7.1191  -7.1138
    -7.0754  -7.0705  -7.0313  -7.0151  -7.0081  -7.0017  -6.9866  -6.9647
    -6.9481  -6.9380  -6.9357  -6.9280  -6.8958  -6.8839  -6.8706  -6.8305
    -6.8246  -6.8177  -6.7948  -6.7589  -6.7164  -6.6890  -6.6711  -6.6547
    -6.6547  -6.6546  -6.6545  -6.6337  -6.6150  -6.6066  -6.5984  -6.5887
    -6.5858  -6.5834  -6.5796  -6.5568  -6.5274  -6.5110  -6.5031  -6.4608
    -6.4344  -6.4208  -6.3474  -6.3234  -6.3232  -6.3231  -6.3213  -6.2805
    -6.2587  -6.2493  -6.2470  -6.2447  -6.2437  -6.2333  -6.2102  -6.2029
    -6.1808  -6.1762  -6.1701  -6.1641  -6.0241  -5.9745  -5.9745  -5.9143
    -5.8996  -5.8925  -5.8557  -5.7532  -5.6895  -5.6745  -5.6555  -5.5396
    -5.5266  -4.6997  -4.0214  -4.0168  -4.0164  -3.9914  -3.8920  -3.8900
    -3.8900  -3.8689  -3.8261  -3.8255  -3.8144  -3.7744  -3.7730  -3.7684
    -3.7570  -3.7180  -3.7020  -3.6486  -3.5969  -3.5942  -3.5917  -3.5909
    -3.5778  -3.5758  -3.5757  -3.5430  -3.5425  -3.5095  -3.5069  -3.4997
    -3.4981  -3.4842  -3.4741  -3.4710  -3.4678  -3.4626  -3.4603  -3.4247
    -3.4179  -3.4019  -3.3836  -3.3662  -3.3567  -3.3531  -3.3436  -3.3434
    -3.3268  -3.3147  -3.3106  -3.3050  -3.3029  -3.2679  -3.2668  -3.2667
    -3.2656  -3.2620  -3.2609  -3.2455  -3.2382  -3.2286  -3.2206  -3.2101
    -3.2047  -3.2008  -3.1970  -3.1912  -3.1868  -3.1623  -3.1350  -3.1301
    -3.1173  -3.1066  -3.1010  -3.0637  -3.0622  -3.0591  -3.0249  -3.0237
    -3.0208  -3.0036  -3.0030  -3.0028  -3.0027  -2.9803  -2.9758  -2.9626
    -2.9561  -2.9542  -2.9441  -2.9373  -2.9214  -2.9135  -2.9121  -2.9055
    -2.8954  -2.8856  -2.8795  -2.8757  -2.8632  -2.8586  -2.8521  -2.8391
    -2.8239  -2.8041  -2.7966  -2.7952  -2.7907  -2.7523  -2.7230  -2.6960
    -2.6454  -2.6425  -2.6410  -2.6389  -2.6248  -2.6221  -2.5671  -2.5596
    -2.5177  -2.5050  -2.4982  -2.4873  -2.4831  -2.4716  -2.3958  -2.3512
    -2.2938

     the Fermi energy is    -4.6887 ev

!    total energy              =  -24358.19593881 Ry
     total all-electron energy =   -475458.072751 Ry
     estimated scf accuracy    <       0.00000006 Ry
     smearing contrib. (-TS)   =      -0.00560270 Ry
     internal energy E=F+TS    =  -24358.19033611 Ry

     The total energy is F=E-TS. E is the sum of the following terms:
     one-electron contribution =  459374.06429762 Ry
     hartree contribution      = -229790.39451546 Ry
     xc contribution           =   -1459.64227973 Ry
     ewald contribution        = -236880.43417113 Ry
     DFT-D3 Dispersion         =      -3.98924663 Ry
     one-center paw contrib.   =  -15597.79442078 Ry

     convergence has been achieved in  23 iterations

     negative rho (up, down):  9.403E-04 0.000E+00

     Forces acting on atoms (cartesian axes, Ry/au):

     atom    1 type  1   force =    -0.00075678    0.00038478   -0.00133087
     atom    2 type  1   force =    -0.00000139    0.00000986    0.00187398
     atom    3 type  1   force =     0.00000108    0.00016391   -0.00003521
     atom    4 type  2   force =    -0.00000101    0.00000071   -0.00333384
     atom    5 type  2   force =    -0.00000227   -0.00000948   -0.00007678
     atom    6 type  2   force =     0.00006001   -0.00081529   -0.00076330
     atom    7 type  2   force =    -0.00000027    0.00000065    0.00156414
     atom    8 type  2   force =     0.00001195    0.00000229    0.00014567
     atom    9 type  2   force =     0.00024716    0.02806723    0.01311454
     atom   10 type  1   force =    -0.00002626   -0.00079179   -0.00153209
     atom   11 type  1   force =     0.00000799   -0.00000072    0.00187500
     atom   12 type  1   force =     0.00015531   -0.00009861   -0.00003011
     atom   13 type  2   force =     0.00000258   -0.00000317   -0.00333593
     atom   14 type  2   force =    -0.00002220   -0.00001633   -0.00013757
     atom   15 type  2   force =    -0.00068034    0.00047404   -0.00076262
     atom   16 type  2   force =    -0.00000011   -0.00000402    0.00158635
     atom   17 type  2   force =    -0.00003404   -0.00001875   -0.00015297
     atom   18 type  2   force =     0.02502541   -0.01411356    0.01356076
     atom   19 type  1   force =     0.00045084   -0.00151435    0.00025974
     atom   20 type  1   force =     0.00000433   -0.00000402    0.00186367
     atom   21 type  1   force =    -0.00008697    0.00001832   -0.00009169
     atom   22 type  2   force =     0.00000146    0.00000195   -0.00333908
     atom   23 type  2   force =    -0.00000757    0.00000300   -0.00008619
     atom   24 type  2   force =    -0.00014767   -0.00083291   -0.00000415
     atom   25 type  2   force =    -0.00000301    0.00000002    0.00156796
     atom   26 type  2   force =     0.00001184    0.00000753    0.00015417
     atom   27 type  2   force =     0.00007113    0.00053963    0.00102674
     atom   28 type  1   force =    -0.00108471    0.00114375    0.00025766
     atom   29 type  1   force =    -0.00000219    0.00000837    0.00187348
     atom   30 type  1   force =    -0.00003646   -0.00006778   -0.00009196
     atom   31 type  2   force =    -0.00000021   -0.00000029   -0.00333162
     atom   32 type  2   force =     0.00000062    0.00000310   -0.00011386
     atom   33 type  2   force =    -0.00078292    0.00028546   -0.00000264
     atom   34 type  2   force =    -0.00000926   -0.00000389    0.00157125
     atom   35 type  2   force =     0.00000116    0.00000362    0.00003733
     atom   36 type  2   force =     0.00049120   -0.00019374    0.00100611
     atom   37 type  1   force =    -0.00095834   -0.00005107    0.00091421
     atom   38 type  1   force =    -0.00000544    0.00000126    0.00187272
     atom   39 type  1   force =    -0.00001036    0.00000380   -0.00001052
     atom   40 type  2   force =     0.00000304   -0.00000128   -0.00333133
     atom   41 type  2   force =    -0.00000998    0.00000585   -0.00010118
     atom   42 type  2   force =     0.00225247   -0.00038153   -0.00073837
     atom   43 type  2   force =     0.00000165    0.00000668    0.00156360
     atom   44 type  2   force =    -0.00003258    0.00000915    0.00010582
     atom   45 type  2   force =     0.00150696   -0.00068500    0.00071149
     atom   46 type  1   force =     0.01355850    0.00780948   -0.01072594
     atom   47 type  1   force =    -0.00001000   -0.00000255    0.00186574
     atom   48 type  1   force =    -0.00018234   -0.00011471   -0.00001975
     atom   49 type  2   force =    -0.00000355    0.00000043   -0.00332830
     atom   50 type  2   force =    -0.00000343    0.00002514   -0.00008427
     atom   51 type  2   force =     0.00025814    0.00015843   -0.00054860
     atom   52 type  2   force =    -0.00000328    0.00000672    0.00156364
     atom   53 type  2   force =     0.00000396    0.00000272    0.00016165
     atom   54 type  2   force =    -0.03388077   -0.01946198    0.01463382
     atom   55 type  1   force =    -0.00051533   -0.00079875    0.00091126
     atom   56 type  1   force =    -0.00000205   -0.00000473    0.00187104
     atom   57 type  1   force =     0.00000981   -0.00000409   -0.00001275
     atom   58 type  2   force =    -0.00000110   -0.00000308   -0.00332911
     atom   59 type  2   force =     0.00002424   -0.00001703   -0.00008399
     atom   60 type  2   force =     0.00080065    0.00215793   -0.00073393
     atom   61 type  2   force =     0.00000903   -0.00000609    0.00156359
     atom   62 type  2   force =     0.00000790    0.00000175    0.00016394
     atom   63 type  2   force =     0.00016943    0.00164829    0.00072447
     atom   64 type  1   force =    -0.00006368   -0.00002850    0.00006772
     atom   65 type  1   force =     0.00000190    0.00000005    0.00186714
     atom   66 type  1   force =     0.00001774    0.00001707   -0.00003983
     atom   67 type  2   force =     0.00000098    0.00000116   -0.00333526
     atom   68 type  2   force =     0.00000061   -0.00000758   -0.00009617
     atom   69 type  2   force =     0.00017628    0.00010399   -0.00021666
     atom   70 type  2   force =     0.00000620   -0.00000092    0.00157019
     atom   71 type  2   force =    -0.00000688   -0.00002852    0.00010935
     atom   72 type  2   force =    -0.00015686   -0.00008739    0.00009008
     atom   73 type  1   force =     0.00121314    0.00054029    0.00016214
     atom   74 type  1   force =     0.00000031    0.00000624    0.00187294
     atom   75 type  1   force =    -0.00000532   -0.00005037   -0.00000792
     atom   76 type  2   force =    -0.00000028   -0.00000099   -0.00333243
     atom   77 type  2   force =     0.00005560    0.00002908   -0.00006525
     atom   78 type  2   force =    -0.00019595   -0.00014519   -0.00015642
     atom   79 type  2   force =    -0.00000174    0.00000131    0.00156434
     atom   80 type  2   force =    -0.00002712   -0.00001616    0.00015672
     atom   81 type  2   force =     0.00009572    0.00028956    0.00025708
     atom   82 type  1   force =    -0.00020972    0.00028169   -0.00005503
     atom   83 type  1   force =    -0.00000087   -0.00000389    0.00187341
     atom   84 type  1   force =     0.00004073    0.00003975   -0.00008131
     atom   85 type  2   force =    -0.00000025   -0.00000271   -0.00332469
     atom   86 type  2   force =     0.00002423   -0.00001383   -0.00009134
     atom   87 type  2   force =    -0.00071595    0.00007687   -0.00033209
     atom   88 type  2   force =    -0.00000017    0.00000045    0.00156179
     atom   89 type  2   force =     0.00004347   -0.00003151    0.00003626
     atom   90 type  2   force =     0.00166895   -0.00164424   -0.00257089
     atom   91 type  1   force =     0.00014839   -0.00029289   -0.00005355
     atom   92 type  1   force =     0.00000160    0.00000278    0.00186770
     atom   93 type  1   force =     0.00006468    0.00002002   -0.00008339
     atom   94 type  2   force =    -0.00000043   -0.00000178   -0.00332161
     atom   95 type  2   force =    -0.00000762   -0.00000207   -0.00006971
     atom   96 type  2   force =    -0.00029888   -0.00065363   -0.00033661
     atom   97 type  2   force =    -0.00000275    0.00000139    0.00156773
     atom   98 type  2   force =    -0.00004466   -0.00002396    0.00008639
     atom   99 type  2   force =    -0.00058335    0.00226755   -0.00257733
     atom  100 type  1   force =     0.00107614    0.00076466    0.00015911
     atom  101 type  1   force =    -0.00000016    0.00000110    0.00187427
     atom  102 type  1   force =    -0.00004133    0.00002517   -0.00001384
     atom  103 type  2   force =    -0.00000301    0.00000290   -0.00332733
     atom  104 type  2   force =     0.00000365    0.00002712   -0.00008344
     atom  105 type  2   force =    -0.00022096   -0.00010000   -0.00015462
     atom  106 type  2   force =     0.00000536   -0.00000299    0.00155842
     atom  107 type  2   force =    -0.00000338    0.00005278    0.00003397
     atom  108 type  2   force =     0.00030039   -0.00006275    0.00025314
     atom  109 type  1   force =    -0.00178580   -0.00105741   -0.00614451
     atom  110 type  1   force =     0.00000233    0.00000094    0.00187312
     atom  111 type  1   force =     0.00002189   -0.00000078    0.00015064
     atom  112 type  2   force =     0.00000104    0.00000219   -0.00333309
     atom  113 type  2   force =    -0.00004053    0.00002203   -0.00004983
     atom  114 type  2   force =    -0.00132566   -0.00076497   -0.00080267
     atom  115 type  2   force =     0.00000072    0.00000366    0.00158313
     atom  116 type  2   force =     0.00003955   -0.00001988    0.00021204
     atom  117 type  2   force =    -0.00045446   -0.00027081    0.00063498
     atom  118 type  1   force =    -0.01048722    0.00600781   -0.01374811
     atom  119 type  1   force =    -0.00000270   -0.00000572    0.00187368
     atom  120 type  1   force =    -0.00002153    0.00005767   -0.00007060
     atom  121 type  2   force =     0.00000209   -0.00000335   -0.00333296
     atom  122 type  2   force =    -0.00000028   -0.00005081   -0.00005747
     atom  123 type  2   force =     0.00043264    0.00053991    0.00007941
     atom  124 type  2   force =     0.00000172   -0.00000354    0.00158272
     atom  125 type  2   force =     0.00000685    0.00004024    0.00021864
     atom  126 type  2   force =    -0.00060484   -0.00064948    0.00123961
     atom  127 type  1   force =    -0.00022717   -0.00010044   -0.00051812
     atom  128 type  1   force =    -0.00001079    0.00000185    0.00187443
     atom  129 type  1   force =    -0.00000026    0.00001519    0.00001792
     atom  130 type  2   force =     0.00000197    0.00000309   -0.00332672
     atom  131 type  2   force =    -0.00000431    0.00000806   -0.00009548
     atom  132 type  2   force =    -0.00058439   -0.00034088    0.00027711
     atom  133 type  2   force =    -0.00000080    0.00000244    0.00156218
     atom  134 type  2   force =     0.00004093   -0.00001029    0.00008334
     atom  135 type  2   force =     0.00000443    0.00000187   -0.00023300
     atom  136 type  1   force =    -0.00002807   -0.01178858   -0.01341049
     atom  137 type  1   force =    -0.00000623   -0.00000516    0.00187480
     atom  138 type  1   force =     0.00005063   -0.00004236   -0.00007216
     atom  139 type  2   force =     0.00000372    0.00000287   -0.00333007
     atom  140 type  2   force =     0.00000496   -0.00000317   -0.00008319
     atom  141 type  2   force =     0.00066650    0.00010390    0.00008281
     atom  142 type  2   force =    -0.00000082   -0.00000281    0.00156302
     atom  143 type  2   force =     0.00001342    0.00004623    0.00007469
     atom  144 type  2   force =    -0.00084921   -0.00019198    0.00121669
     atom  145 type  3   force =    -0.00281152   -0.00162526    0.00215400
     atom  146 type  4   force =     0.00975078    0.00579137    0.00271209
     The non-local contrib.  to forces
     atom    1 type  1   force =    -0.00128952   -0.00017430    0.00573851
     atom    2 type  1   force =    -0.00000595    0.00000299   -0.00196428
     atom    3 type  1   force =     0.00009069    0.00007729   -0.00087170
     atom    4 type  2   force =     0.00000031   -0.00000116    0.26316294
     atom    5 type  2   force =     0.00002176   -0.00005415    0.26641328
     atom    6 type  2   force =    -0.00105274   -0.00083823    0.26727757
     atom    7 type  2   force =    -0.00000037   -0.00000141   -0.26459556
     atom    8 type  2   force =    -0.00024889    0.00024204   -0.26487640
[...]
     atom   63 type  2   force =     0.00030124   -0.00040440   -0.00421239
     atom   64 type  1   force =     0.00002405    0.00001391   -0.00257070
     atom   65 type  1   force =    -0.00000046   -0.00000035    0.00260659
     atom   66 type  1   force =    -0.00000147   -0.00000091   -0.00002228
     atom   67 type  2   force =    -0.00000005    0.00000004    0.00441205
     atom   68 type  2   force =    -0.00000174   -0.00000040   -0.00004890
     atom   69 type  2   force =     0.00000456    0.00000235   -0.00020738
     atom   70 type  2   force =    -0.00000033   -0.00000034    0.00023718
     atom   71 type  2   force =    -0.00000655    0.00000906    0.00009895
     atom   72 type  2   force =     0.00001525    0.00000896   -0.00439089
     atom   73 type  1   force =    -0.00004179    0.00004355   -0.00253733
     atom   74 type  1   force =     0.00000002    0.00000001    0.00260577
     atom   75 type  1   force =     0.00001339    0.00000150   -0.00001205
     atom   76 type  2   force =    -0.00000002   -0.00000001    0.00441182
     atom   77 type  2   force =     0.00000048    0.00000029   -0.00004565
     atom   78 type  2   force =     0.00003356    0.00001840   -0.00016000
     atom   79 type  2   force =    -0.00000081   -0.00000046    0.00023715
     atom   80 type  2   force =     0.00000976    0.00000570    0.00010830
     atom   81 type  2   force =    -0.00017087    0.00019649   -0.00431142
     atom   82 type  1   force =    -0.00018392    0.00001602   -0.00234532
     atom   83 type  1   force =    -0.00000006    0.00000028    0.00260613
     atom   84 type  1   force =     0.00002178    0.00000475   -0.00003327
     atom   85 type  2   force =     0.00000002   -0.00000000    0.00441177
     atom   86 type  2   force =     0.00000074    0.00000138   -0.00004691
     atom   87 type  2   force =     0.00001842    0.00004597    0.00007289
     atom   88 type  2   force =    -0.00000081   -0.00000002    0.00023712
     atom   89 type  2   force =     0.00002087    0.00000798    0.00010326
     atom   90 type  2   force =     0.00095436   -0.00059750   -0.00526353
     atom   91 type  1   force =    -0.00007806   -0.00016738   -0.00234535
     atom   92 type  1   force =     0.00000017    0.00000009    0.00260651
     atom   93 type  1   force =     0.00001495    0.00001646   -0.00003325
     atom   94 type  2   force =    -0.00000001   -0.00000001    0.00441172
     atom   95 type  2   force =     0.00000148    0.00000084   -0.00004819
     atom   96 type  2   force =     0.00004878   -0.00000700    0.00007292
     atom   97 type  2   force =    -0.00000059   -0.00000035    0.00023755
     atom   98 type  2   force =     0.00003652    0.00002101    0.00009376
     atom   99 type  2   force =    -0.00004022    0.00112529   -0.00526350
     atom  100 type  1   force =     0.00001685   -0.00005800   -0.00253737
     atom  101 type  1   force =     0.00000022   -0.00000019    0.00260612
     atom  102 type  1   force =     0.00000794    0.00001082   -0.00001203
     atom  103 type  2   force =     0.00000000    0.00000002    0.00441177
     atom  104 type  2   force =     0.00000156   -0.00000005   -0.00004692
     atom  105 type  2   force =     0.00003256    0.00001970   -0.00015998
     atom  106 type  2   force =    -0.00000041   -0.00000069    0.00023712
     atom  107 type  2   force =     0.00001729    0.00001405    0.00010333
     atom  108 type  2   force =     0.00008478   -0.00024614   -0.00431134
     atom  109 type  1   force =     0.00014365    0.00008300   -0.00237182
     atom  110 type  1   force =     0.00000055    0.00000020    0.00260655
     atom  111 type  1   force =    -0.00000478   -0.00000271   -0.00000101
     atom  112 type  2   force =     0.00000002   -0.00000005    0.00441179
     atom  113 type  2   force =     0.00000169   -0.00000056   -0.00004545
     atom  114 type  2   force =     0.00000186    0.00000121   -0.00016530
     atom  115 type  2   force =     0.00000046   -0.00000015    0.00023719
     atom  116 type  2   force =    -0.00000711   -0.00001089    0.00010356
     atom  117 type  2   force =     0.00012054    0.00006956   -0.00437035
     atom  118 type  1   force =     0.00006222   -0.00005706   -0.00249388
     atom  119 type  1   force =     0.00000044    0.00000037    0.00260655
     atom  120 type  1   force =     0.00000066    0.00000042   -0.00000042
     atom  121 type  2   force =    -0.00000003    0.00000004    0.00441179
     atom  122 type  2   force =     0.00000035    0.00000175   -0.00004542
     atom  123 type  2   force =    -0.00001040    0.00000349   -0.00014911
     atom  124 type  2   force =     0.00000010    0.00000047    0.00023719
     atom  125 type  2   force =    -0.00001303   -0.00000059    0.00010353
     atom  126 type  2   force =    -0.00022316    0.00004244   -0.00431155
     atom  127 type  1   force =    -0.00010510   -0.00006077   -0.00255694
     atom  128 type  1   force =     0.00000024    0.00000044    0.00260693
     atom  129 type  1   force =     0.00000531    0.00000300    0.00000125
     atom  130 type  2   force =     0.00000003   -0.00000003    0.00441181
     atom  131 type  2   force =     0.00000122    0.00000150   -0.00004446
     atom  132 type  2   force =    -0.00002109   -0.00001222   -0.00013031
     atom  133 type  2   force =    -0.00000006    0.00000040    0.00023723
     atom  134 type  2   force =    -0.00000307    0.00000568    0.00010497
     atom  135 type  2   force =    -0.00034898   -0.00020136   -0.00421868
     atom  136 type  1   force =    -0.00001834    0.00008222   -0.00249419
     atom  137 type  1   force =     0.00000050   -0.00000001    0.00260693
     atom  138 type  1   force =     0.00000064    0.00000033   -0.00000052
     atom  139 type  2   force =    -0.00000001    0.00000004    0.00441181
     atom  140 type  2   force =     0.00000193    0.00000031   -0.00004449
     atom  141 type  2   force =    -0.00000241   -0.00001091   -0.00014915
     atom  142 type  2   force =     0.00000032   -0.00000025    0.00023723
     atom  143 type  2   force =     0.00000345   -0.00000562    0.00010503
     atom  144 type  2   force =    -0.00007475   -0.00021441   -0.00431172
     atom  145 type  3   force =    -0.00064567   -0.00037256    0.00203777
     atom  146 type  4   force =     0.00011836    0.00006815   -0.00120696

     Total force =     0.003611     Total SCF correction =     0.000324
     Energy error            =      2.5E-05 Ry
     Gradient error          =      8.4E-04 Ry/Bohr

     bfgs converged in  26 scf cycles and  25 bfgs steps
     (criteria: energy <  1.0E-04 Ry, force <  1.0E-03 Ry/Bohr)

     End of BFGS Geometry Optimization

     Final energy             =  -24358.2373840354 Ry

     File ./outdir/pwscf.bfgs deleted, as requested
Begin final coordinates

ATOMIC_POSITIONS (angstrom)
Mo            1.5519428986        2.7228229171        6.1401278742
Mo            1.5769197498        0.9104407117       -6.0872367793    0   0   0
Mo            0.0003252429        1.8217615783       -0.0026924384
S             0.0000044503        0.0000077495       -7.6506323570    0   0   0
S             1.5771202935        0.9114036195       -1.5681805447
S             0.0119677786        1.8346891899        4.5174799929
S             0.0000053241        0.0000068460       -4.5222282367    0   0   0
S             1.5769030559        0.9102276834        1.5640872222
S            -0.0463180229        1.7740887023        7.6495790361
Mo           -0.0199986132        5.4454943411        6.1397917584
Mo            0.0000011799        3.6417399547       -6.0872367793    0   0   0
Mo           -1.5759911754        4.5520160255       -0.0026889369
S            -1.5769141197        2.7313069925       -7.6506323570    0   0   0
S             0.0004851234        3.6420279069       -1.5685056588
S            -1.5590673667        4.5556683316        4.5172417192
S            -1.5769132459        2.7313060890       -4.5222282367    0   0   0
S             0.0009661836        3.6423015769        1.5648614417
S            -1.6408595557        4.5358865285        7.6492323594
Mo           -1.5809656146        8.1895952109        6.0823496611
Mo           -1.5769173901        6.3730391977       -6.0872367793    0   0   0
Mo           -3.1536072891        7.2834309616       -0.0038677846
S            -3.1538326896        5.4626062355       -7.6506323570    0   0   0
S            -1.5759856192        6.3727433434       -1.5681734225
S            -3.1464262124        7.2876921089        4.4979392039
S            -3.1538318159        5.4626053320       -4.5222282367    0   0   0
S            -1.5771237550        6.3731453395        1.5640898756
S            -3.1661191124        7.2799045564        7.6366650248
Mo            3.1479943437       -0.0011320076        6.0826284112
Mo           -3.1538359601        9.1043384407       -6.0872367793    0   0   0
Mo           -4.7306814883       10.0149997359       -0.0038687824
S            -4.7307512596        8.1939054785       -7.6506323570    0   0   0
S            -3.1533439623        9.1046321388       -1.5689830686
S            -4.7234839927       10.0194154817        4.4982185732
S            -4.7307503859        8.1939045750       -4.5222282367    0   0   0
S            -3.1541856237        9.1041496451        1.5630446248
S            -4.7400723186       10.0060107109        7.6368692856
Mo            4.7307581125        2.7251061468        6.0815857070
Mo            4.7307503218        0.9104407117       -6.0872367793    0   0   0
Mo            3.1536740692        1.8213717081       -0.0017611206
S             3.1538350223        0.0000077495       -7.6506323570    0   0   0
S             4.7307907396        0.9109968395       -1.5673170958
S             3.1305347998        1.8332627526        4.5351065146
S             3.1538358961        0.0000068460       -4.5222282367    0   0   0
S             4.7294132971        0.9101123569        1.5656355087
S             3.1674991878        1.8083089270        7.6653703921
Mo            3.1820830222        5.4789533880        6.0865454620
Mo            3.1538317519        3.6417399547       -6.0872367793    0   0   0
Mo            1.5767512080        4.5520853177       -0.0020239569
S             1.5769164523        2.7313069925       -7.6506323570    0   0   0
S             3.1539704557        3.6421327752       -1.5671130637
S             1.5815654359        4.5548990483        4.5985094885
S             1.5769173261        2.7313060890       -4.5222282367    0   0   0
S             3.1527929442        3.6422507239        1.5668033099
S             1.3297947444        4.4099678374        7.8834734157
Mo            1.5715501386        8.1971050832        6.0814066016
Mo            1.5769131819        6.3730391977       -6.0872367793    0   0   0
Mo            0.0003460289        7.2830987240       -0.0017500219
S            -0.0000021176        5.4626062355       -7.6506323570    0   0   0
S             1.5773233403        6.3729785849       -1.5671028245
S            -0.0009729372        7.2573663643        4.5348124297
S            -0.0000012439        5.4626053320       -4.5222282367    0   0   0
S             1.5768345728        6.3718922260        1.5668115494
S            -0.0041939284        7.3017742664        7.6650625751
Mo            6.3068601875       -0.0004350339        6.0675640386
Mo           -0.0000053881        9.1043384407       -6.0872367793    0   0   0
Mo           -1.5768797197       10.0148049904       -0.0025549194
S            -1.5769206876        8.1939054785       -7.6506323570    0   0   0
S             0.0004986746        9.1041052661       -1.5673052258
S            -1.5833538672       10.0113031010        4.5131604757
S            -1.5769198139        8.1939045750       -4.5222282367    0   0   0
S            -0.0009679317        9.1033681014        1.5656481751
S            -1.5758326816       10.0153835860        7.6427541058
Mo            7.8795341564        2.7294508107        6.0560507712
Mo            7.8845808939        0.9104407117       -6.0872367793    0   0   0
Mo            6.3072130722        1.8207949759       -0.0012323140
S             6.3076655943        0.0000077495       -7.6506323570    0   0   0
S             7.8843665506        0.9103150100       -1.5665892767
S             6.2932693742        1.8183182609        4.4991749322
S             6.3076664681        0.0000068460       -4.5222282367    0   0   0
S             7.8842387383        0.9102548354        1.5653985792
S             6.3168564697        1.8146591921        7.6377201350
Mo            6.3252946305        5.4619851318        6.0577594825
Mo            6.3076623239        3.6417399547       -6.0872367793    0   0   0
Mo            4.7303954720        4.5523802363       -0.0013514921
S             4.7307470244        2.7313069925       -7.6506323570    0   0   0
S             6.3072706996        3.6415443465       -1.5668091861
S             4.7186954202        4.5562172438        4.5230432348
S             4.7307478981        2.7313060890       -4.5222282367    0   0   0
S             6.3073891237        3.6421927526        1.5653112521
S             4.8161340890        4.5134276238        7.6695558875
Mo            4.7390205531        8.2095921234        6.0578171676
Mo            4.7307437539        6.3730391977       -6.0872367793    0   0   0
Mo            3.1538312463        7.2830748427       -0.0013377041
S             3.1538284544        5.4626062355       -7.6506323570    0   0   0
S             4.7304551864        6.3728834780       -1.5670988473
S             3.1514167057        7.2710590740        4.5229831230
S             3.1538293281        5.4626053320       -4.5222282367    0   0   0
S             4.7309089857        6.3731295281        1.5656232463
S             3.1629115493        7.3768809006        7.6694750762
Mo            9.4573816854       -0.0033294205        6.0561382621
Mo            3.1538251839        9.1043384407       -6.0872367793    0   0   0
Mo            1.5766116947       10.0144308161       -0.0012186312
S             1.5769098844        8.1939054785       -7.6506323570    0   0   0
S             3.1534662217        9.1041076339       -1.5667924950
S             1.5675753135       10.0037544546        4.4991404673
S             1.5769107581        8.1939045750       -4.5222282367    0   0   0
S             3.1540844702        9.1038885807        1.5653253268
S             1.5761416019       10.0257913516        7.6376883563
Mo           -1.5929816904        2.7221517674        6.0690412356
Mo           11.0384114659        0.9104407117       -6.0872367793    0   0   0
Mo            9.4615691320        1.8209198007       -0.0014301728
S             9.4614961663        0.0000077495       -7.6506323570    0   0   0
S            11.0381917389        0.9107028842       -1.5672201259
S             9.4570192588        1.8183073796        4.4896799594
S             9.4614970401        0.0000068460       -4.5222282367    0   0   0
S            11.0395059778        0.9110624761        1.5650757224
S             9.4442624936        1.8110253734        7.6297084954
Mo           -3.1663099703        5.4613420276        6.0575465425
Mo            9.4614928959        3.6417399547       -6.0872367793    0   0   0
Mo            7.8846792830        4.5521954548       -0.0020925994
S             7.8845775964        2.7313069925       -7.6506323570    0   0   0
S             9.4616088930        3.6414170940       -1.5672242143
S             7.8857151261        4.5494295968        4.4828126621
S             7.8845784701        2.7313060890       -4.5222282367    0   0   0
S             9.4625605218        3.6423819885        1.5650681164
S             7.8841680420        4.5460616673        7.6304580648
Mo           -4.7290715406        8.1949708196        6.0610080272
Mo            7.8845743259        6.3730391977       -6.0872367793    0   0   0
Mo            6.3076937080        7.2834965662       -0.0024049400
S             6.3076590264        5.4626062355       -7.6506323570    0   0   0
S             7.8842796706        6.3726133280       -1.5682408686
S             6.3114760931        7.2857566840        4.4903033556
S             6.3076599001        5.4626053320       -4.5222282367    0   0   0
S             7.8854541990        6.3735837213        1.5636966769
S             6.3096871988        7.2846613077        7.6229317402
Mo           -0.0073738145       -0.0099633778        6.0578335663
Mo            6.3076557559        9.1043384407       -6.0872367793    0   0   0
Mo            4.7308108992       10.0148586961       -0.0020782581
S             4.7307404564        8.1939054785       -7.6506323570    0   0   0
S             6.3071322331        9.1043053851       -1.5682358907
S             4.7290580399       10.0173297872        4.4830144824
S             4.7307413301        8.1939045750       -4.5222282367    0   0   0
S             6.3085756441        9.1048346581        1.5637069628
S             4.7252180278       10.0175710212        7.6306135402
Pd            3.0778425241        5.4188240309        8.9735076141
H             0.3879246504        3.8673970245        8.7824330808
End final coordinates



     Writing all to output data dir ./outdir/pwscf.save/
 
     init_run     :    102.94s CPU    105.43s WALL (       1 calls)
     electrons    : 109081.72s CPU 110393.64s WALL (      26 calls)
     update_pot   :    114.40s CPU    114.80s WALL (      25 calls)
     forces       :   1728.02s CPU   1779.88s WALL (      26 calls)
     force_dftd3  :     12.21s CPU     12.23s WALL (      26 calls)

     Called by init_run:
     wfcinit      :     83.98s CPU     85.24s WALL (       1 calls)
     potinit      :      2.03s CPU      2.11s WALL (       1 calls)
     hinit0       :     11.70s CPU     11.72s WALL (       1 calls)

     Called by electrons:
     c_bands      :  97344.62s CPU  97971.82s WALL (     305 calls)
     sum_band     :  10715.31s CPU  11100.69s WALL (     305 calls)
     v_of_rho     :    124.44s CPU    126.31s WALL (     307 calls)
     newd         :    647.95s CPU    961.62s WALL (     307 calls)
     PAW_pot      :    185.32s CPU    185.33s WALL (     332 calls)
     mix_rho      :     28.40s CPU     28.50s WALL (     305 calls)
     energy_dftd3 :      5.51s CPU      5.51s WALL (      26 calls)

     Called by c_bands:
     init_us_2    :    480.45s CPU    480.57s WALL (    2648 calls)
     init_us_2:cp :    480.44s CPU    480.56s WALL (    2648 calls)
     cegterg      :  95740.72s CPU  96354.39s WALL (    1236 calls)

     Called by *egterg:
     cdiaghg      :   6330.24s CPU   6350.12s WALL (   16210 calls)
     h_psi        :  50755.64s CPU  50937.51s WALL (   16413 calls)
     s_psi        :  10229.43s CPU  10230.34s WALL (   16413 calls)
     g_psi        :    112.38s CPU    112.63s WALL (   15173 calls)

     Called by h_psi:
     h_psi:calbec :  10237.37s CPU  10239.65s WALL (   16413 calls)
     vloc_psi     :  30069.38s CPU  30143.75s WALL (   16413 calls)
     add_vuspsi   :  10315.63s CPU  10318.31s WALL (   16413 calls)

     General routines
     calbec       :  14546.72s CPU  14549.81s WALL (   18149 calls)
     fft          :    131.38s CPU    134.43s WALL (    4274 calls)
     ffts         :      5.48s CPU      5.53s WALL (     612 calls)
     fftw         :  23780.04s CPU  23832.98s WALL ( 6677194 calls)
     interpolate  :     12.41s CPU     12.55s WALL (     307 calls)
 
     Parallel routines
 
     PWSCF        :   1d 7h 0m CPU   1d 7h23m WALL

 
   This run was terminated on:   2:41:16  29Aug2023            

=------------------------------------------------------------------------------=
   JOB DONE.
=------------------------------------------------------------------------------=
Application 11105368 resources: utime ~4018191s, stime ~50341s, Rss ~2367016, inblocks ~0, outblocks ~39731864
