
     Program PWSCF v.7.3 starts on  2Apr2024 at  7:33:20 

     This program is part of the open-source Quantum ESPRESSO suite
     for quantum simulation of materials; please cite
         "P. Giannozzi et al., J. Phys.:Condens. Matter 21 395502 (2009);
         "P. Giannozzi et al., J. Phys.:Condens. Matter 29 465901 (2017);
         "P. Giannozzi et al., J. Chem. Phys. 152 154105 (2020);
          URL http://www.quantum-espresso.org", 
     in publications or presentations arising from this work. More details at
     http://www.quantum-espresso.org/quote

     Parallel version (MPI & OpenMP), running on      36 processor cores
     Number of MPI processes:                36
     Threads/MPI process:                     1

     MPI processes distributed on     1 nodes
     559272 MiB available memory on the printing compute node when the environment starts
 
     Waiting for input...
     Reading input from standard input
Warning: card &CELL ignored
Warning: card / ignored

     Current dimensions of program PWSCF are:
     Max number of different atomic species (ntypx) = 10
     Max number of k-points (npk) =  40000
     Max angular momentum in pseudopotentials (lmaxx) =  4
     file Mo.pbe-spn-kjpaw_psl.1.0.0.UPF: wavefunction(s)  4S 4D renormalized
     file S.pbe-n-kjpaw_psl.1.0.0.UPF: wavefunction(s)  3S 3P renormalized
     file Pt.pbe-spfn-kjpaw_psl.1.0.0.UPF: wavefunction(s)  5P 4F renormalized
     file Pd.pbe-spn-kjpaw_psl.1.0.0.UPF: wavefunction(s)  4S 5S 4D renormalized
 
     R & G space division:  proc/nbgrp/npool/nimage =      36
     Subspace diagonalization in iterative solution of the eigenvalue problem:
     one sub-group per band group will be used
     scalapack distributed-memory algorithm (size of sub-group:  6*  6 procs)

 
     Parallelization info
     --------------------
     sticks:   dense  smooth     PW     G-vecs:    dense   smooth      PW
     Min         586     335     89               165416    71459    9765
     Max         587     337     90               165425    71461    9778
     Sum       21109   12085   3205              5955087  2572543  351657
 
     Using Slab Decomposition
 


     bravais-lattice index     =            0
     lattice parameter (alat)  =      23.8395  a.u.
     unit-cell volume          =   28182.8498 (a.u.)^3
     number of atoms/cell      =          147
     number of atomic types    =            4
     number of electrons       =      1316.00
     number of Kohn-Sham states=          790
     kinetic-energy cutoff     =      77.0000  Ry
     charge density cutoff     =     539.0000  Ry
     scf convergence threshold =      1.0E-06
     mixing beta               =       0.2000
     number of iterations used =            8  plain     mixing
     energy convergence thresh.=      1.0E-04
     force convergence thresh. =      1.0E-03
     Exchange-correlation= SLA  PW   PBX  PBC
                           (   1   4   3   4   0   0   0)
     nstep                     =         1000


     Effective Screening Medium Method
     =================================
     Boundary Conditions: Vacuum-Slab-Vacuum
     total charge in unit cell        =   0.0000
     grid points for fit at edges     =        4 
 

     celldm(1)=  23.839504  celldm(2)=   0.000000  celldm(3)=   0.000000
     celldm(4)=   0.000000  celldm(5)=   0.000000  celldm(6)=   0.000000

     crystal axes: (cart. coord. in units of alat)
               a(1) = (   1.000000   0.000000   0.000000 )  
               a(2) = (  -0.500001   0.866026   0.000000 )  
               a(3) = (   0.000000   0.000000   2.401941 )  

     reciprocal axes: (cart. coord. in units 2 pi/alat)
               b(1) = (  1.000000  0.577351  0.000000 )  
               b(2) = (  0.000000  1.154700  0.000000 )  
               b(3) = (  0.000000  0.000000  0.416330 )  


     PseudoPot. # 1 for Mo read from file:
     ./pseudo/Mo.pbe-spn-kjpaw_psl.1.0.0.UPF
     MD5 check sum: 317bf72632116215fd98f72de1686f13
     Pseudo is Projector augmented-wave + core cor, Zval = 14.0
     Generated using 'atomic' code by A. Dal Corso  v.7.2
     Shape of augmentation charge: PSQ
     Using radial grid of 1229 points,  6 beta functions with: 
                l(1) =   0
                l(2) =   0
                l(3) =   1
                l(4) =   1
                l(5) =   2
                l(6) =   2
     Q(r) pseudized with 0 coefficients 


     PseudoPot. # 2 for S  read from file:
     ./pseudo/S.pbe-n-kjpaw_psl.1.0.0.UPF
     MD5 check sum: 8b7b5302570d38d5e87fed6a1065abda
     Pseudo is Projector augmented-wave + core cor, Zval =  6.0
     Generated using 'atomic' code by A. Dal Corso  v.7.2
     Shape of augmentation charge: PSQ
     Using radial grid of 1151 points,  6 beta functions with: 
                l(1) =   0
                l(2) =   0
                l(3) =   1
                l(4) =   1
                l(5) =   2
                l(6) =   2
     Q(r) pseudized with 0 coefficients 


     PseudoPot. # 3 for Pt read from file:
     ./pseudo/Pt.pbe-spfn-kjpaw_psl.1.0.0.UPF
     MD5 check sum: 620096ebf4e6ebacc94de60fd67efcb5
     Pseudo is Projector augmented-wave + core cor, Zval = 32.0
     Generated using 'atomic' code by A. Dal Corso  v.7.2
     Shape of augmentation charge: PSQ
     Using radial grid of 1277 points,  8 beta functions with: 
                l(1) =   0
                l(2) =   0
                l(3) =   1
                l(4) =   1
                l(5) =   2
                l(6) =   2
                l(7) =   3
                l(8) =   3
     Q(r) pseudized with 0 coefficients 


     PseudoPot. # 4 for Pd read from file:
     ./pseudo/Pd.pbe-spn-kjpaw_psl.1.0.0.UPF
     MD5 check sum: a60571a671f2502b8a6a4569d20a6edb
     Pseudo is Projector augmented-wave + core cor, Zval = 18.0
     Generated using 'atomic' code by A. Dal Corso  v.7.2
     Shape of augmentation charge: PSQ
     Using radial grid of 1235 points,  6 beta functions with: 
                l(1) =   0
                l(2) =   0
                l(3) =   1
                l(4) =   1
                l(5) =   2
                l(6) =   2
     Q(r) pseudized with 0 coefficients 


     atomic species   valence    mass     pseudopotential
     Mo               14.00    95.95000     Mo( 1.00)
     S                 6.00    32.06000     S ( 1.00)
     Pt               32.00   195.08400     Pt( 1.00)
     Pd               18.00   106.42000     Pd( 1.00)

     No symmetry found



   Cartesian axes

     site n.     atom                  positions (alat units)
         1        Mo     tau(   1) = (   0.1246074   0.2157200   0.4826345  )
         2        Mo     tau(   2) = (   0.1250004   0.0721694  -0.4825273  )
         3        Mo     tau(   3) = (   0.0000068   0.1443549  -0.0000406  )
         4        S      tau(   4) = (   0.0000004   0.0000006  -0.6064556  )
         5        S      tau(   5) = (   0.1249873   0.0722031  -0.1241756  )
         6        S      tau(   6) = (   0.0000973   0.1450650   0.3573519  )
         7        S      tau(   7) = (   0.0000004   0.0000005  -0.3584711  )
         8        S      tau(   8) = (   0.1249847   0.0720950   0.1240801  )
         9        S      tau(   9) = (  -0.0005301   0.1434694   0.6062599  )
        10        Mo     tau(  10) = (  -0.0009156   0.4330317   0.4832560  )
        11        Mo     tau(  11) = (   0.0000001   0.2886759  -0.4825273  )
        12        Mo     tau(  12) = (  -0.1249829   0.3608507   0.0000027  )
        13        S      tau(  13) = (  -0.1249999   0.2165071  -0.6064556  )
        14        S      tau(  14) = (   0.0000128   0.2886930  -0.1241006  )
        15        S      tau(  15) = (  -0.1248837   0.3612581   0.3580377  )
        16        S      tau(  16) = (  -0.1249998   0.2165070  -0.3584711  )
        17        S      tau(  17) = (   0.0000764   0.2887257   0.1242499  )
        18        S      tau(  18) = (  -0.1253220   0.3603286   0.6073134  )
        19        Mo     tau(  19) = (  -0.1249684   0.6493789   0.4818062  )
        20        Mo     tau(  20) = (  -0.1250002   0.5051824  -0.4825273  )
        21        Mo     tau(  21) = (  -0.2500040   0.5773207  -0.0001409  )
        22        S      tau(  22) = (  -0.2500002   0.4330136  -0.6064556  )
        23        S      tau(  23) = (  -0.1249903   0.5051158  -0.1241917  )
        24        S      tau(  24) = (  -0.2499555   0.5769406   0.3578597  )
        25        S      tau(  25) = (  -0.2500001   0.4330135  -0.3584711  )
        26        S      tau(  26) = (  -0.1249930   0.5052458   0.1241101  )
        27        S      tau(  27) = (  -0.2497899   0.5778453   0.6063597  )
        28        Mo     tau(  28) = (   0.2497834  -0.0005160   0.4806710  )
        29        Mo     tau(  29) = (  -0.2500004   0.7216889  -0.4825273  )
        30        Mo     tau(  30) = (  -0.3750188   0.7938286  -0.0001549  )
        31        S      tau(  31) = (  -0.3750004   0.6495201  -0.6064556  )
        32        S      tau(  32) = (  -0.2500074   0.7216649  -0.1242513  )
        33        S      tau(  33) = (  -0.3752234   0.7935039   0.3566636  )
        34        S      tau(  34) = (  -0.3750004   0.6495200  -0.3584711  )
        35        S      tau(  35) = (  -0.2499996   0.7216607   0.1240200  )
        36        S      tau(  36) = (  -0.3746819   0.7948899   0.6057341  )
        37        Mo     tau(  37) = (   0.3750034   0.2123618   0.4807886  )
        38        Mo     tau(  38) = (   0.3750004   0.0721694  -0.4825273  )
        39        Mo     tau(  39) = (   0.2499981   0.1443415  -0.0000413  )
        40        S      tau(  40) = (   0.2500004   0.0000006  -0.6064556  )
        41        S      tau(  41) = (   0.3750280   0.0722231  -0.1241519  )
        42        S      tau(  42) = (   0.2489233   0.1437373   0.3564531  )
        43        S      tau(  43) = (   0.2500004   0.0000005  -0.3584711  )
        44        S      tau(  44) = (   0.3749877   0.0720947   0.1241383  )
        45        S      tau(  45) = (   0.2497122   0.1423104   0.6055821  )
        46        Mo     tau(  46) = (   0.2490774   0.4329018   0.4862977  )
        47        Mo     tau(  47) = (   0.2500001   0.2886759  -0.4825273  )
        48        Mo     tau(  48) = (   0.1250319   0.3608540  -0.0000126  )
        49        S      tau(  49) = (   0.1250001   0.2165071  -0.6064556  )
        50        S      tau(  50) = (   0.2500259   0.2886851  -0.1240979  )
        51        S      tau(  51) = (   0.1263042   0.3620125   0.3614359  )
        52        S      tau(  52) = (   0.1250002   0.2165070  -0.3584711  )
        53        S      tau(  53) = (   0.2500168   0.2886898   0.1242904  )
        54        S      tau(  54) = (   0.1173694   0.3566575   0.6132890  )
        55        Mo     tau(  55) = (   0.1240062   0.6506471   0.4823696  )
        56        Mo     tau(  56) = (   0.1249998   0.5051824  -0.4825273  )
        57        Mo     tau(  57) = (   0.0000191   0.5773226  -0.0001255  )
        58        S      tau(  58) = (  -0.0000002   0.4330136  -0.6064556  )
        59        S      tau(  59) = (   0.1250359   0.5051398  -0.1241676  )
        60        S      tau(  60) = (   0.0000697   0.5768181   0.3580317  )
        61        S      tau(  61) = (  -0.0000001   0.4330135  -0.3584711  )
        62        S      tau(  62) = (   0.1250059   0.5052001   0.1242069  )
        63        S      tau(  63) = (  -0.0003304   0.5778980   0.6066479  )
        64        Mo     tau(  64) = (   0.5003257  -0.0004925   0.4803774  )
        65        Mo     tau(  65) = (  -0.0000004   0.7216889  -0.4825273  )
        66        Mo     tau(  66) = (  -0.1249927   0.7938427  -0.0001655  )
        67        S      tau(  67) = (  -0.1250004   0.6495201  -0.6064556  )
        68        S      tau(  68) = (   0.0000418   0.7216760  -0.1242215  )
        69        S      tau(  69) = (  -0.1250504   0.7929751   0.3566577  )
        70        S      tau(  70) = (  -0.1250004   0.6495200  -0.3584711  )
        71        S      tau(  71) = (  -0.0000163   0.7216479   0.1240623  )
        72        S      tau(  72) = (  -0.1248984   0.7939509   0.6051552  )
        73        Mo     tau(  73) = (   0.6254010   0.2160480   0.4824065  )
        74        Mo     tau(  74) = (   0.6250004   0.0721694  -0.4825273  )
        75        Mo     tau(  75) = (   0.5000167   0.1443371   0.0000092  )
        76        S      tau(  76) = (   0.5000004   0.0000006  -0.6064556  )
        77        S      tau(  77) = (   0.6250207   0.0721868  -0.1241145  )
        78        S      tau(  78) = (   0.5010641   0.1438734   0.3562763  )
        79        S      tau(  79) = (   0.5000004   0.0000005  -0.3584711  )
        80        S      tau(  80) = (   0.6250414   0.0720927   0.1241409  )
        81        S      tau(  81) = (   0.5005473   0.1420509   0.6053992  )
        82        Mo     tau(  82) = (   0.5016373   0.4329758   0.4857863  )
        83        Mo     tau(  83) = (   0.5000001   0.2886759  -0.4825273  )
        84        Mo     tau(  84) = (   0.3750027   0.3608467   0.0000234  )
        85        S      tau(  85) = (   0.3750001   0.2165071  -0.6064556  )
        86        S      tau(  86) = (   0.5000046   0.2886693  -0.1240592  )
        87        S      tau(  87) = (   0.3745963   0.3620572   0.3631324  )
        88        S      tau(  88) = (   0.3750002   0.2165070  -0.3584711  )
        89        S      tau(  89) = (   0.4999634   0.2887051   0.1243131  )
        90        S      tau(  90) = (   0.3781068   0.3490112   0.6089630  )
        91        Mo     tau(  91) = (   0.3753335   0.6518408   0.4830502  )
        92        Mo     tau(  92) = (   0.3749998   0.5051824  -0.4825273  )
        93        Mo     tau(  93) = (   0.2500203   0.5772987  -0.0000555  )
        94        S      tau(  94) = (   0.2499998   0.4330136  -0.6064556  )
        95        S      tau(  95) = (   0.3750008   0.5051221  -0.1241383  )
        96        S      tau(  96) = (   0.2501878   0.5758780   0.3616377  )
        97        S      tau(  97) = (   0.2499999   0.4330135  -0.3584711  )
        98        S      tau(  98) = (   0.3750015   0.5051839   0.1242620  )
        99        S      tau(  99) = (   0.2495016   0.5878580   0.6113208  )
       100        Mo     tau( 100) = (   0.7500199   0.0003818   0.4811571  )
       101        Mo     tau( 101) = (   0.2499996   0.7216889  -0.4825273  )
       102        Mo     tau( 102) = (   0.1250316   0.7938162  -0.0000875  )
       103        S      tau( 103) = (   0.1249996   0.6495201  -0.6064556  )
       104        S      tau( 104) = (   0.2500359   0.7216507  -0.1241461  )
       105        S      tau( 105) = (   0.1254554   0.7934228   0.3566219  )
       106        S      tau( 106) = (   0.1249996   0.6495200  -0.3584711  )
       107        S      tau( 107) = (   0.2500086   0.7215741   0.1241838  )
       108        S      tau( 108) = (   0.1244907   0.7952297   0.6057917  )
       109        Mo     tau( 109) = (  -0.1249741   0.2166510   0.4819241  )
       110        Mo     tau( 110) = (   0.8750004   0.0721694  -0.4825273  )
       111        Mo     tau( 111) = (   0.7500133   0.1443436  -0.0000073  )
       112        S      tau( 112) = (   0.7500004   0.0000006  -0.6064556  )
       113        S      tau( 113) = (   0.8749956   0.0721731  -0.1241058  )
       114        S      tau( 114) = (   0.7500203   0.1449522   0.3574598  )
       115        S      tau( 115) = (   0.7500004   0.0000005  -0.3584711  )
       116        S      tau( 116) = (   0.8750238   0.0721604   0.1241841  )
       117        S      tau( 117) = (   0.7504201   0.1437382   0.6062629  )
       118        Mo     tau( 118) = (  -0.2493495   0.4328575   0.4828262  )
       119        Mo     tau( 119) = (   0.7500001   0.2886759  -0.4825273  )
       120        Mo     tau( 120) = (   0.6249856   0.3608477   0.0000279  )
       121        S      tau( 121) = (   0.6250001   0.2165071  -0.6064556  )
       122        S      tau( 122) = (   0.7499958   0.2886820  -0.1240679  )
       123        S      tau( 123) = (   0.6241512   0.3616755   0.3603414  )
       124        S      tau( 124) = (   0.6250002   0.2165070  -0.3584711  )
       125        S      tau( 125) = (   0.7499862   0.2887159   0.1242658  )
       126        S      tau( 126) = (   0.6305969   0.3581080   0.6112211  )
       127        Mo     tau( 127) = (  -0.3742668   0.6505223   0.4820597  )
       128        Mo     tau( 128) = (   0.6249998   0.5051824  -0.4825273  )
       129        Mo     tau( 129) = (   0.4999851   0.5773046  -0.0000631  )
       130        S      tau( 130) = (   0.4999998   0.4330136  -0.6064556  )
       131        S      tau( 131) = (   0.6249723   0.5051139  -0.1241565  )
       132        S      tau( 132) = (   0.4998783   0.5762956   0.3606843  )
       133        S      tau( 133) = (   0.4999999   0.4330135  -0.3584711  )
       134        S      tau( 134) = (   0.6250095   0.5052263   0.1241915  )
       135        S      tau( 135) = (   0.5006407   0.5846211   0.6091832  )
       136        Mo     tau( 136) = (   0.0000410   0.0004185   0.4809769  )
       137        Mo     tau( 137) = (   0.4999996   0.7216889  -0.4825273  )
       138        Mo     tau( 138) = (   0.3750036   0.7938273  -0.0000272  )
       139        S      tau( 139) = (   0.3749996   0.6495201  -0.6064556  )
       140        S      tau( 140) = (   0.4999499   0.7216482  -0.1241729  )
       141        S      tau( 141) = (   0.3750006   0.7941054   0.3569117  )
       142        S      tau( 142) = (   0.3749996   0.6495200  -0.3584711  )
       143        S      tau( 143) = (   0.5000314   0.7216102   0.1241515  )
       144        S      tau( 144) = (   0.3752329   0.7966920   0.6062052  )
       145        Pt     tau( 145) = (   0.2580795   0.4348292   0.7095693  )
       146        Pd     tau( 146) = (   0.4899479   0.4358638   0.7204770  )
       147        Pd     tau( 147) = (  -0.3742275   0.6505581   0.7360097  )

     --------------------------------------------
     DFT-D3 Dispersion Correction (3-body terms):
     --------------------------------------------
       Reference C6 values for interpolation: 

         atom   Coordination number   C6
         S          0.000           268.01
         S          0.995           261.99
         S          1.990           251.62
         Mo         0.000          1691.79
         Mo         1.942          1004.01
         Mo        11.056           674.22
         Pd         0.000          1217.01
         Pd         1.863           573.90
         Pd         5.710           531.75
         Pt         0.000           782.29
         Pt         1.919           692.72
         Pt         6.667           673.75

       Values used:

         atom   Coordination number  R0_AB[au]  C6      C8
         Mo        10.200            3.547    674.22  77634.20
         Mo        10.189            3.547    674.22  77634.20
         Mo        10.200            3.547    674.22  77634.20
         S          3.753            3.128    251.62  12327.25
         S          3.858            3.128    251.62  12327.25
         S          3.855            3.128    251.62  12327.25
         S          3.858            3.128    251.62  12327.25
         S          3.864            3.128    251.62  12327.25
         S          3.815            3.128    251.62  12327.25
         Mo        10.207            3.547    674.22  77634.20
         Mo        10.189            3.547    674.22  77634.20
         Mo        10.201            3.547    674.22  77634.20
         S          3.753            3.128    251.62  12327.25
         S          3.859            3.128    251.62  12327.25
         S          3.854            3.128    251.62  12327.25
         S          3.858            3.128    251.62  12327.25
         S          3.855            3.128    251.62  12327.25
         S          3.818            3.128    251.62  12327.25
         Mo        10.238            3.547    674.22  77634.20
         Mo        10.189            3.547    674.22  77634.20
         Mo        10.201            3.547    674.22  77634.20
         S          3.753            3.128    251.62  12327.25
         S          3.858            3.128    251.62  12327.25
         S          3.866            3.128    251.62  12327.25
         S          3.859            3.128    251.62  12327.25
         S          3.860            3.128    251.62  12327.25
         S          4.671            3.128    251.62  12327.25
         Mo        10.265            3.547    674.22  77634.20
         Mo        10.189            3.547    674.22  77634.20
         Mo        10.200            3.547    674.22  77634.20
         S          3.753            3.128    251.62  12327.25
         S          3.857            3.128    251.62  12327.25
         S          3.857            3.128    251.62  12327.25
         S          3.859            3.128    251.62  12327.25
         S          3.864            3.128    251.62  12327.25
         S          4.709            3.128    251.62  12327.25
         Mo        10.158            3.547    674.22  77634.20
         Mo        10.189            3.547    674.22  77634.20
         Mo        10.200            3.547    674.22  77634.20
         S          3.753            3.128    251.62  12327.25
         S          3.858            3.128    251.62  12327.25
         S          3.842            3.128    251.62  12327.25
         S          3.859            3.128    251.62  12327.25
         S          3.863            3.128    251.62  12327.25
         S          3.812            3.128    251.62  12327.25
         Mo        10.847            3.547    674.22  77634.20
         Mo        10.189            3.547    674.22  77634.20
         Mo        10.202            3.547    674.22  77634.20
         S          3.753            3.128    251.62  12327.25
         S          3.859            3.128    251.62  12327.25
         S          3.851            3.128    251.62  12327.25
         S          3.858            3.128    251.62  12327.25
         S          3.851            3.128    251.62  12327.25
         S          4.635            3.128    251.62  12327.25
         Mo        10.195            3.547    674.22  77634.20
         Mo        10.189            3.547    674.22  77634.20
         Mo        10.201            3.547    674.22  77634.20
         S          3.753            3.128    251.62  12327.25
         S          3.859            3.128    251.62  12327.25
         S          3.864            3.128    251.62  12327.25
         S          3.859            3.128    251.62  12327.25
         S          3.853            3.128    251.62  12327.25
         S          3.758            3.128    251.62  12327.25
         Mo        10.259            3.547    674.22  77634.20
         Mo        10.189            3.547    674.22  77634.20
         Mo        10.200            3.547    674.22  77634.20
         S          3.753            3.128    251.62  12327.25
         S          3.858            3.128    251.62  12327.25
         S          3.858            3.128    251.62  12327.25
         S          3.859            3.128    251.62  12327.25
         S          3.863            3.128    251.62  12327.25
         S          3.791            3.128    251.62  12327.25
         Mo        10.209            3.547    674.22  77634.20
         Mo        10.189            3.547    674.22  77634.20
         Mo        10.200            3.547    674.22  77634.20
         S          3.753            3.128    251.62  12327.25
         S          3.859            3.128    251.62  12327.25
         S          3.839            3.128    251.62  12327.25
         S          3.859            3.128    251.62  12327.25
         S          3.863            3.128    251.62  12327.25
         S          3.835            3.128    251.62  12327.25
         Mo        10.715            3.547    674.21  77634.20
         Mo        10.189            3.547    674.22  77634.20
         Mo        10.202            3.547    674.22  77634.20
         S          3.753            3.128    251.62  12327.25
         S          3.859            3.128    251.62  12327.25
         S          3.873            3.128    251.62  12327.25
         S          3.858            3.128    251.62  12327.25
         S          3.851            3.128    251.62  12327.25
         S          5.637            3.128    251.62  12327.25
         Mo        10.158            3.547    674.22  77634.20
         Mo        10.189            3.547    674.22  77634.20
         Mo        10.203            3.547    674.22  77634.20
         S          3.753            3.128    251.62  12327.25
         S          3.859            3.128    251.62  12327.25
         S          3.861            3.128    251.62  12327.25
         S          3.859            3.128    251.62  12327.25
         S          3.849            3.128    251.62  12327.25
         S          4.667            3.128    251.62  12327.25
         Mo        10.241            3.547    674.22  77634.20
         Mo        10.189            3.547    674.22  77634.20
         Mo        10.200            3.547    674.22  77634.20
         S          3.753            3.128    251.62  12327.25
         S          3.858            3.128    251.62  12327.25
         S          3.852            3.128    251.62  12327.25
         S          3.859            3.128    251.62  12327.25
         S          3.858            3.128    251.62  12327.25
         S          3.820            3.128    251.62  12327.25
         Mo        10.231            3.547    674.22  77634.20
         Mo        10.189            3.547    674.22  77634.20
         Mo        10.200            3.547    674.22  77634.20
         S          3.753            3.128    251.62  12327.25
         S          3.858            3.128    251.62  12327.25
         S          3.857            3.128    251.62  12327.25
         S          3.858            3.128    251.62  12327.25
         S          3.861            3.128    251.62  12327.25
         S          3.803            3.128    251.62  12327.25
         Mo        10.229            3.547    674.22  77634.20
         Mo        10.189            3.547    674.22  77634.20
         Mo        10.201            3.547    674.22  77634.20
         S          3.753            3.128    251.62  12327.25
         S          3.859            3.128    251.62  12327.25
         S          3.849            3.128    251.62  12327.25
         S          3.858            3.128    251.62  12327.25
         S          3.855            3.128    251.62  12327.25
         S          4.625            3.128    251.62  12327.25
         Mo        10.572            3.547    674.22  77634.20
         Mo        10.189            3.547    674.22  77634.20
         Mo        10.202            3.547    674.22  77634.20
         S          3.753            3.128    251.62  12327.25
         S          3.858            3.128    251.62  12327.25
         S          3.863            3.128    251.62  12327.25
         S          3.858            3.128    251.62  12327.25
         S          3.855            3.128    251.62  12327.25
         S          5.599            3.128    251.62  12327.25
         Mo        10.254            3.547    674.22  77634.20
         Mo        10.189            3.547    674.22  77634.20
         Mo        10.201            3.547    674.22  77634.20
         S          3.753            3.128    251.62  12327.25
         S          3.858            3.128    251.62  12327.25
         S          3.844            3.128    251.62  12327.25
         S          3.859            3.128    251.62  12327.25
         S          3.859            3.128    251.62  12327.25
         S          3.844            3.128    251.62  12327.25
         Pt         4.455            3.168    673.78  70065.93
         Pd         4.278            3.168    531.75  48720.73
         Pd         3.361            3.168    573.90  52583.07

         Molecular C6 ( Ry / a.u.^6 ) =   8065804.56


     number of k points=     4  Gaussian smearing, width (Ry)=  0.0100
                       cart. coord. in units 2pi/alat
        k(    1) = (   0.0000000   0.0000000   0.0000000), wk =   0.5000000
        k(    2) = (   0.0000000  -0.5773499   0.0000000), wk =   0.5000000
        k(    3) = (  -0.5000000  -0.2886755   0.0000000), wk =   0.5000000
        k(    4) = (  -0.5000000  -0.8660254   0.0000000), wk =   0.5000000

     Dense  grid:  5955087 G-vectors     FFT dimensions: ( 180, 180, 432)

     Smooth grid:  2572543 G-vectors     FFT dimensions: ( 135, 135, 320)

     Estimated max dynamical RAM per process >       3.08 GB

     Estimated total dynamical RAM >     110.88 GB

     Initial potential from superposition of free atoms

     starting charge    1315.9537, renormalised to    1316.0000

     negative rho (up, down):  1.048E-03 0.000E+00
     Starting wfcs are  901 randomized atomic wfcs
     Checking if some PAW data can be deallocated... 

     total cpu time spent up to now is       98.9 secs

     Self-consistent Calculation

     iteration #  1     ecut=    77.00 Ry     beta= 0.20
     Davidson diagonalization with overlap
     ethr =  1.00E-02,  avg # of iterations =  2.0

     Threshold (ethr) on eigenvalues was too large:
     Diagonalizing with lowered threshold

     Davidson diagonalization with overlap
     ethr =  2.28E-04,  avg # of iterations = 16.2

     negative rho (up, down):  3.438E-04 0.000E+00

     total cpu time spent up to now is     1043.0 secs

     total energy              =  -26543.56638828 Ry
     estimated scf accuracy    <       4.84985638 Ry

     iteration #  2     ecut=    77.00 Ry     beta= 0.20
     Davidson diagonalization with overlap
     ethr =  3.69E-04,  avg # of iterations =  6.5

     negative rho (up, down):  7.519E-05 0.000E+00

     total cpu time spent up to now is     1276.8 secs

     total energy              =  -26542.94131852 Ry
     estimated scf accuracy    <       2.31093017 Ry

     iteration #  3     ecut=    77.00 Ry     beta= 0.20
     Davidson diagonalization with overlap
     ethr =  1.76E-04,  avg # of iterations = 12.5

     negative rho (up, down):  4.158E-05 0.000E+00

     total cpu time spent up to now is     1544.3 secs

     total energy              =  -26543.09560026 Ry
     estimated scf accuracy    <       0.86486810 Ry

     iteration #  4     ecut=    77.00 Ry     beta= 0.20
     Davidson diagonalization with overlap
     ethr =  6.57E-05,  avg # of iterations =  9.8

     negative rho (up, down):  3.597E-05 0.000E+00

     total cpu time spent up to now is     1971.6 secs

     total energy              =  -26543.44347456 Ry
     estimated scf accuracy    <       0.28808529 Ry

     iteration #  5     ecut=    77.00 Ry     beta= 0.20
     Davidson diagonalization with overlap
     ethr =  2.19E-05,  avg # of iterations = 12.0

     negative rho (up, down):  6.233E-05 0.000E+00

     total cpu time spent up to now is     2436.6 secs

     total energy              =  -26543.69571518 Ry
     estimated scf accuracy    <       0.12500192 Ry

     iteration #  6     ecut=    77.00 Ry     beta= 0.20
     Davidson diagonalization with overlap
     c_bands:  1 eigenvalues not converged
     c_bands:  5 eigenvalues not converged
     ethr =  9.50E-06,  avg # of iterations = 42.8

     negative rho (up, down):  1.511E-04 0.000E+00

     total cpu time spent up to now is     3154.9 secs

     total energy              =  -26543.72538682 Ry
     estimated scf accuracy    <       0.08993489 Ry

     iteration #  7     ecut=    77.00 Ry     beta= 0.20
     Davidson diagonalization with overlap
     c_bands:  1 eigenvalues not converged
     ethr =  6.83E-06,  avg # of iterations = 11.2

     negative rho (up, down):  7.749E-04 0.000E+00

     total cpu time spent up to now is     3392.7 secs

     total energy              =  -26543.72907813 Ry
     estimated scf accuracy    <       0.04795379 Ry

     iteration #  8     ecut=    77.00 Ry     beta= 0.20
     Davidson diagonalization with overlap
     c_bands:  2 eigenvalues not converged
     ethr =  3.64E-06,  avg # of iterations = 16.5

     negative rho (up, down):  5.874E-04 0.000E+00

     total cpu time spent up to now is     3891.4 secs

     total energy              =  -26543.73491193 Ry
     estimated scf accuracy    <       0.08521391 Ry

     iteration #  9     ecut=    77.00 Ry     beta= 0.20
     Davidson diagonalization with overlap
     c_bands:  1 eigenvalues not converged
     ethr =  3.64E-06,  avg # of iterations = 11.5

     negative rho (up, down):  4.998E-04 0.000E+00

     total cpu time spent up to now is     4144.0 secs

     total energy              =  -26543.73670469 Ry
     estimated scf accuracy    <       0.01010221 Ry

     iteration # 10     ecut=    77.00 Ry     beta= 0.20
     Davidson diagonalization with overlap
     c_bands:  2 eigenvalues not converged
     c_bands:  1 eigenvalues not converged
     c_bands:  4 eigenvalues not converged
     ethr =  7.68E-07,  avg # of iterations = 25.5

     negative rho (up, down):  5.709E-04 0.000E+00

     total cpu time spent up to now is     5014.4 secs

     total energy              =  -26543.75831404 Ry
     estimated scf accuracy    <       0.01953211 Ry

     iteration # 11     ecut=    77.00 Ry     beta= 0.20
     Davidson diagonalization with overlap
     ethr =  7.68E-07,  avg # of iterations =  4.8

     negative rho (up, down):  7.659E-04 0.000E+00

     total cpu time spent up to now is     5232.7 secs

     total energy              =  -26543.75252389 Ry
     estimated scf accuracy    <       0.01181739 Ry

     iteration # 12     ecut=    77.00 Ry     beta= 0.20
     Davidson diagonalization with overlap
     ethr =  7.68E-07,  avg # of iterations =  5.2

     negative rho (up, down):  8.486E-04 0.000E+00

     total cpu time spent up to now is     5478.5 secs

     total energy              =  -26543.75306253 Ry
     estimated scf accuracy    <       0.00212080 Ry

     iteration # 13     ecut=    77.00 Ry     beta= 0.20
     Davidson diagonalization with overlap
     c_bands:  2 eigenvalues not converged
     ethr =  1.61E-07,  avg # of iterations = 13.0

     negative rho (up, down):  8.474E-04 0.000E+00

     total cpu time spent up to now is     6114.9 secs

     total energy              =  -26543.75689225 Ry
     estimated scf accuracy    <       0.00087202 Ry

     iteration # 14     ecut=    77.00 Ry     beta= 0.20
     Davidson diagonalization with overlap
     ethr =  6.63E-08,  avg # of iterations = 10.0

     negative rho (up, down):  8.314E-04 0.000E+00

     total cpu time spent up to now is     6444.4 secs

     total energy              =  -26543.75684102 Ry
     estimated scf accuracy    <       0.00085156 Ry

     iteration # 15     ecut=    77.00 Ry     beta= 0.20
     Davidson diagonalization with overlap
     ethr =  6.47E-08,  avg # of iterations =  2.0

     negative rho (up, down):  8.771E-04 0.000E+00

     total cpu time spent up to now is     6663.1 secs

     total energy              =  -26543.75673026 Ry
     estimated scf accuracy    <       0.00031258 Ry

     iteration # 16     ecut=    77.00 Ry     beta= 0.20
     Davidson diagonalization with overlap
     c_bands:  2 eigenvalues not converged
     ethr =  2.38E-08,  avg # of iterations = 21.0

     negative rho (up, down):  9.380E-04 0.000E+00

     total cpu time spent up to now is     7180.8 secs

     total energy              =  -26543.75699928 Ry
     estimated scf accuracy    <       0.00007339 Ry

     iteration # 17     ecut=    77.00 Ry     beta= 0.20
     Davidson diagonalization with overlap
     c_bands:  1 eigenvalues not converged
     c_bands:  5 eigenvalues not converged
     ethr =  5.58E-09,  avg # of iterations = 18.5

     negative rho (up, down):  9.531E-04 0.000E+00

     total cpu time spent up to now is     7711.0 secs

     total energy              =  -26543.75710255 Ry
     estimated scf accuracy    <       0.00005884 Ry

     iteration # 18     ecut=    77.00 Ry     beta= 0.20
     Davidson diagonalization with overlap
     ethr =  4.47E-09,  avg # of iterations =  7.5

     negative rho (up, down):  9.522E-04 0.000E+00

     total cpu time spent up to now is     8050.6 secs

     total energy              =  -26543.75708105 Ry
     estimated scf accuracy    <       0.00016256 Ry

     iteration # 19     ecut=    77.00 Ry     beta= 0.20
     Davidson diagonalization with overlap
     ethr =  4.47E-09,  avg # of iterations =  1.8

     negative rho (up, down):  9.517E-04 0.000E+00

     total cpu time spent up to now is     8262.5 secs

     total energy              =  -26543.75703130 Ry
     estimated scf accuracy    <       0.00009053 Ry

     iteration # 20     ecut=    77.00 Ry     beta= 0.20
     Davidson diagonalization with overlap
     ethr =  4.47E-09,  avg # of iterations =  8.8

     negative rho (up, down):  9.543E-04 0.000E+00

     total cpu time spent up to now is     8594.3 secs

     total energy              =  -26543.75705013 Ry
     estimated scf accuracy    <       0.00000400 Ry

     iteration # 21     ecut=    77.00 Ry     beta= 0.20
     Davidson diagonalization with overlap
     c_bands:  4 eigenvalues not converged
     c_bands:  4 eigenvalues not converged
     ethr =  3.04E-10,  avg # of iterations = 21.0

     negative rho (up, down):  9.565E-04 0.000E+00

     total cpu time spent up to now is     9721.7 secs

     total energy              =  -26543.75706363 Ry
     estimated scf accuracy    <       0.00001232 Ry

     iteration # 22     ecut=    77.00 Ry     beta= 0.20
     Davidson diagonalization with overlap
     ethr =  3.04E-10,  avg # of iterations =  5.8

     negative rho (up, down):  9.625E-04 0.000E+00

     total cpu time spent up to now is    10033.7 secs

     total energy              =  -26543.75706174 Ry
     estimated scf accuracy    <       0.00000177 Ry

     iteration # 23     ecut=    77.00 Ry     beta= 0.20
     Davidson diagonalization with overlap
     ethr =  1.34E-10,  avg # of iterations = 13.2

     negative rho (up, down):  9.634E-04 0.000E+00

     total cpu time spent up to now is    10479.4 secs

     End of self-consistent calculation

          k = 0.0000 0.0000 0.0000 (321495 PWs)   bands (ev):

  -102.8178 -88.7127 -88.0856 -71.1451 -71.1366 -71.1233 -71.1128 -71.0998
   -71.0923 -71.0818 -66.6767 -66.6557 -66.6557 -66.6557 -66.6556 -66.6556
   -66.6556 -66.6345 -66.6345 -66.6345 -66.6345 -66.6345 -66.6344 -66.6344
   -66.6344 -66.6344 -66.6108 -66.5901 -66.5899 -66.5898 -66.5896 -66.5896
   -66.5894 -66.5690 -66.5689 -66.5688 -66.5687 -66.5686 -66.5685 -66.5684
   -66.5682 -66.5680 -66.5383 -66.5242 -66.5190 -66.5128 -66.5072 -66.5023
   -66.4998 -66.4957 -66.4874 -66.4835 -66.4754 -66.4715 -66.4707 -66.4687
   -66.4626 -66.4609 -57.1207 -57.0113 -56.9868 -54.5934 -54.4552 -54.4546
   -53.9296 -53.8987 -53.8377 -41.0032 -41.0032 -41.0032 -40.9362 -40.9361
   -40.9360 -40.9284 -40.9284 -40.9284 -40.9284 -40.9284 -40.9284 -40.8616
   -40.8614 -40.8614 -40.8613 -40.8613 -40.8611 -40.8551 -40.8510 -40.8484
   -40.8369 -40.8028 -40.8028 -40.8028 -40.8028 -40.8028 -40.8028 -40.7955
   -40.7955 -40.7955 -40.7955 -40.7955 -40.7955 -40.7857 -40.7808 -40.7749
   -40.7715 -40.7688 -40.7680 -40.7680 -40.7679 -40.7679 -40.7679 -40.7679
   -40.7604 -40.7540 -40.7538 -40.7538 -40.7538 -40.7538 -40.7538 -40.7538
   -40.7537 -40.7537 -40.7537 -40.7361 -40.7360 -40.7359 -40.7358 -40.7358
   -40.7357 -40.7304 -40.7302 -40.7301 -40.7300 -40.7300 -40.7298 -40.7147
   -40.7014 -40.7012 -40.7011 -40.7011 -40.7010 -40.7009 -40.6941 -40.6902
   -40.6902 -40.6902 -40.6888 -40.6888 -40.6886 -40.6886 -40.6885 -40.6884
   -40.6883 -40.6881 -40.6880 -40.6728 -40.6710 -40.6674 -40.6613 -40.6577
   -40.6564 -40.6535 -40.6519 -40.6434 -40.6433 -40.6433 -40.6433 -40.6433
   -40.6433 -40.6423 -40.6396 -40.6363 -40.6344 -40.6297 -40.6266 -40.6251
   -40.6237 -40.6235 -40.6234 -40.6233 -40.6184 -40.6167 -40.6139 -40.6103
   -40.6084 -40.6069 -40.6005 -40.5960 -40.5960 -40.5960 -40.5943 -40.5897
   -40.5769 -40.5768 -40.5767 -40.5765 -40.5765 -40.5763 -40.5408 -40.5310
   -40.5300 -40.5294 -40.5294 -40.4921 -40.4895 -40.4836 -40.4819 -40.4744
   -40.4731 -40.4346 -40.4241 -20.1478 -20.0791 -19.9225 -19.5683 -19.3653
   -19.2689 -19.2463 -19.2440 -19.2425 -19.2350 -19.2316 -19.2164 -19.1667
   -19.1530 -19.1371 -19.0901 -19.0838 -19.0738 -19.0530 -19.0437 -19.0228
   -18.8790 -18.7409 -18.6922 -18.5771 -18.5318 -18.5020 -18.4827 -18.4766
   -18.4581 -18.4344 -18.4130 -18.3794 -18.3694 -18.3499 -18.3285 -18.2929
   -18.2679 -18.2143 -18.2030 -18.2002 -18.1962 -18.1788 -18.1495 -18.1369
   -18.1366 -18.1363 -18.1362 -18.1359 -18.1356 -18.1032 -18.0962 -18.0961
   -18.0958 -18.0885 -18.0631 -18.0576 -18.0524 -18.0508 -18.0490 -18.0434
   -18.0298 -18.0230 -18.0218 -18.0144 -17.9778 -17.9726 -17.9643 -17.9562
   -17.9410 -17.9399 -17.9387 -17.9328 -17.9307 -17.9172 -17.9132 -17.9129
   -17.9102 -17.8846 -17.8807 -17.8783 -17.8651 -17.8625 -17.8513 -17.8465
   -17.8428 -17.8391 -17.8182 -17.8133 -17.8099 -17.7881 -17.7861 -17.7708
   -17.7659 -17.7563 -17.7555 -12.1093 -11.9742 -11.9541 -11.8219 -11.7512
   -11.7498 -11.7470 -11.7173 -11.6656 -11.6647 -11.6598 -11.4530 -11.3826
   -11.3510 -11.3343 -11.2293 -11.2201 -11.2101 -11.2037 -11.1982 -11.1760
   -11.1651 -11.1352 -11.1287 -11.1246 -11.1208 -11.1180 -11.1165 -11.1039
   -11.0822 -11.0326 -10.9999 -10.9972 -10.9894 -10.9803 -10.9763 -10.9623
   -10.9584 -10.9418 -10.9271 -10.9178 -10.9124 -10.8900 -10.8798 -10.8697
   -10.8578 -10.8539 -10.8346 -10.8322 -10.8283 -10.8277 -10.8270 -10.8253
   -10.8182 -10.8168 -10.8020 -10.7985 -10.7964 -10.7917 -10.7849 -10.7807
   -10.7779 -10.7737 -10.7719 -10.7610 -10.7289 -10.7087 -10.7021 -10.6928
   -10.6744 -10.6588 -10.6285 -10.6199 -10.6079 -10.5976 -10.5311 -10.3852
   -10.2905 -10.1447 -10.0611 -10.0440 -10.0423 -10.0166  -9.9421  -9.8969
    -9.8788  -9.8619  -9.8544  -9.7930  -9.7857  -9.7761  -9.7754  -9.7678
    -9.7407  -9.7346  -9.7260  -9.7058  -9.7047  -9.6942  -9.6842  -9.6731
    -9.6505  -9.6372  -9.6274  -9.6210  -9.6153  -9.6116  -9.6033  -9.6015
    -9.5892  -9.5815  -9.5751  -9.5717  -9.5698  -9.5678  -9.5673  -9.5655
    -9.5431  -9.5295  -9.5204  -9.4825  -9.4665  -9.4515  -9.4446  -9.4329
    -9.4319  -9.4244  -9.3887  -9.3664  -9.3562  -9.3434  -9.3419  -9.3356
    -9.3189  -9.3120  -9.2994  -9.2678  -9.2504  -9.2340  -9.2219  -9.2124
    -9.1980  -9.1934  -9.1833  -9.1613  -9.1312  -9.0994  -9.0704  -9.0451
    -9.0281  -9.0239  -9.0188  -9.0168  -9.0147  -9.0144  -9.0132  -8.9740
    -8.9432  -8.9413  -8.9381  -8.9277  -8.9141  -8.9024  -8.8953  -8.8734
    -8.8330  -8.8186  -8.8044  -8.7987  -8.7977  -8.7907  -8.7886  -8.7850
    -8.7669  -8.7652  -8.7547  -8.7499  -8.7387  -8.7341  -8.7259  -8.7207
    -8.7138  -8.7026  -8.6507  -8.5322  -8.4851  -8.4261  -8.4261  -8.4198
    -8.3821  -8.3536  -8.3535  -8.3290  -8.3140  -8.3139  -8.3138  -8.3138
    -8.3138  -8.3136  -8.2889  -8.2772  -8.2667  -8.2444  -8.2407  -8.2379
    -8.2360  -8.2351  -8.2332  -8.2105  -8.1885  -8.1407  -8.1052  -7.9606
    -7.9432  -7.9380  -7.9088  -7.8777  -7.8705  -7.7245  -7.7132  -7.6799
    -7.6602  -7.6303  -7.5971  -7.5825  -7.5787  -7.5784  -7.5782  -7.5780
    -7.5776  -7.5754  -7.5330  -7.5323  -7.5322  -7.5319  -7.5316  -7.5308
    -7.5301  -7.5126  -7.5072  -7.5039  -7.5014  -7.4998  -7.4970  -7.4859
    -7.4833  -7.4726  -7.4632  -7.4591  -7.4574  -7.4555  -7.4503  -7.4456
    -7.4448  -7.4363  -7.4311  -7.4214  -7.4176  -7.4137  -7.4065  -7.3907
    -7.3591  -7.3157  -7.2974  -7.2972  -7.2949  -7.2771  -7.2590  -7.2299
    -7.2269  -7.2227  -7.2120  -7.1700  -7.1371  -7.0811  -7.0786  -7.0227
    -6.9985  -6.9504  -6.9367  -6.9125  -6.9045  -6.8762  -6.8521  -6.8312
    -6.7924  -6.7905  -6.7833  -6.6966  -6.6682  -6.6646  -6.6610  -6.6489
    -6.6469  -6.6285  -6.6222  -6.6135  -6.6088  -6.5753  -6.5695  -6.5524
    -6.5411  -6.5268  -6.5165  -6.5151  -6.5097  -6.5019  -6.4868  -6.4807
    -6.4698  -6.4646  -6.4569  -6.4521  -6.4352  -6.4292  -6.4177  -6.4120
    -6.4014  -6.3856  -6.3715  -6.3580  -6.3451  -6.3451  -6.3451  -6.3451
    -6.3451  -6.3451  -6.3088  -6.2805  -6.2757  -6.2698  -6.2676  -6.2666
    -6.2659  -6.2641  -6.2561  -6.2457  -6.2188  -6.1766  -6.1477  -5.9934
    -5.9175  -5.8913  -5.7559  -5.5798  -5.4862  -5.4363  -5.3532  -5.3047
    -5.2975  -5.1064  -4.1356  -3.9663  -3.8538  -3.8317  -3.8270  -3.8247
    -3.8071  -3.8043  -3.8001  -3.7975  -3.7963  -3.7930  -3.7709  -3.7430
    -3.6727  -3.6071  -3.6005  -3.5909  -3.5872  -3.5790  -3.5690  -3.5632
    -3.5609  -3.5565  -3.4858  -3.4858  -3.4857  -3.4716  -3.4683  -3.4674
    -3.4662  -3.4653  -3.4648  -3.4320  -3.4190  -3.4185  -3.4181  -3.4128
    -3.4044  -3.3914  -3.3806  -3.3757  -3.3710  -3.3644  -3.3609  -3.3587
    -3.3536  -3.3498  -3.3408  -3.3391  -3.3312  -3.3259  -3.3143  -3.2920
    -3.2752  -3.2655  -3.2532  -3.2471  -3.2416  -3.2222  -3.1944  -3.1830
    -3.1462  -3.0232  -3.0201  -3.0200  -3.0173  -3.0142  -3.0141  -2.9914
    -2.9566  -2.9479  -2.9477  -2.9475  -2.9474  -2.9472  -2.9472  -2.9468
    -2.9403  -2.9307  -2.9284  -2.9255  -2.9174  -2.9112  -2.9029  -2.8980
    -2.8897  -2.8832  -2.8784  -2.8744  -2.8728  -2.8631  -2.8618  -2.8593
    -2.8579  -2.8493  -2.8310  -2.8271  -2.8157  -2.8109  -2.7967  -2.7827
    -2.7607  -2.7572  -2.7403  -2.7396  -2.7386  -2.7377  -2.7368  -2.7363
    -2.7008  -2.6935  -2.6856  -2.6795  -2.6461  -2.6264  -2.6243  -2.6146
    -2.5970  -2.5806  -2.5530  -2.5358  -2.5324  -2.5296  -2.5177  -2.5136
    -2.4934  -2.4846  -2.4632  -2.4468  -2.4450  -2.4353

          k = 0.0000-0.5773 0.0000 (321564 PWs)   bands (ev):

  -102.8178 -88.7127 -88.0856 -71.1451 -71.1366 -71.1233 -71.1128 -71.0998
   -71.0923 -71.0818 -66.6706 -66.6706 -66.6600 -66.6600 -66.6451 -66.6451
   -66.6451 -66.6451 -66.6407 -66.6407 -66.6345 -66.6345 -66.6344 -66.6344
   -66.6301 -66.6301 -66.6048 -66.6045 -66.5942 -66.5941 -66.5795 -66.5793
   -66.5790 -66.5789 -66.5749 -66.5746 -66.5688 -66.5687 -66.5686 -66.5681
   -66.5642 -66.5641 -66.5377 -66.5250 -66.5189 -66.5143 -66.5076 -66.5013
   -66.4999 -66.4932 -66.4887 -66.4825 -66.4762 -66.4724 -66.4711 -66.4681
   -66.4624 -66.4607 -57.1207 -57.0113 -56.9868 -54.5934 -54.4552 -54.4546
   -53.9296 -53.8987 -53.8377 -40.9718 -40.9718 -40.9718 -40.9718 -40.9451
   -40.9451 -40.9332 -40.9332 -40.9049 -40.9048 -40.9047 -40.9044 -40.8828
   -40.8828 -40.8828 -40.8828 -40.8782 -40.8780 -40.8662 -40.8661 -40.8410
   -40.8277 -40.8248 -40.8248 -40.8159 -40.8158 -40.8158 -40.8157 -40.8148
   -40.8148 -40.8097 -40.8073 -40.8041 -40.8041 -40.7903 -40.7844 -40.7771
   -40.7747 -40.7747 -40.7747 -40.7747 -40.7681 -40.7660 -40.7660 -40.7595
   -40.7593 -40.7538 -40.7538 -40.7538 -40.7538 -40.7538 -40.7538 -40.7480
   -40.7479 -40.7452 -40.7452 -40.7387 -40.7387 -40.7329 -40.7276 -40.7236
   -40.7231 -40.7231 -40.7231 -40.7230 -40.7138 -40.7096 -40.7095 -40.7093
   -40.7091 -40.7091 -40.7007 -40.7006 -40.6982 -40.6887 -40.6886 -40.6886
   -40.6886 -40.6886 -40.6885 -40.6884 -40.6881 -40.6870 -40.6869 -40.6817
   -40.6799 -40.6798 -40.6765 -40.6765 -40.6742 -40.6619 -40.6573 -40.6573
   -40.6565 -40.6565 -40.6565 -40.6562 -40.6559 -40.6514 -40.6469 -40.6446
   -40.6426 -40.6404 -40.6404 -40.6350 -40.6294 -40.6264 -40.6220 -40.6219
   -40.6218 -40.6218 -40.6217 -40.6131 -40.6100 -40.6099 -40.6099 -40.6098
   -40.6097 -40.6067 -40.6002 -40.5948 -40.5930 -40.5908 -40.5903 -40.5782
   -40.5765 -40.5737 -40.5737 -40.5557 -40.5508 -40.5434 -40.5431 -40.5380
   -40.5341 -40.5269 -40.5254 -40.5197 -40.5050 -40.5024 -40.4907 -40.4819
   -40.4744 -40.4581 -40.4285 -19.9982 -19.8810 -19.8582 -19.8052 -19.6993
   -19.6745 -19.4717 -19.4540 -19.4172 -19.3986 -19.2732 -19.2595 -19.0941
   -18.8733 -18.7786 -18.7574 -18.7479 -18.7321 -18.7260 -18.7221 -18.7170
   -18.6992 -18.6298 -18.6145 -18.6010 -18.5944 -18.5878 -18.5781 -18.5488
   -18.5359 -18.4947 -18.4818 -18.4744 -18.4458 -18.4403 -18.4161 -18.4003
   -18.3912 -18.3652 -18.3435 -18.3155 -18.3058 -18.2674 -18.2503 -18.2282
   -18.2114 -18.1908 -18.1754 -18.1431 -18.1302 -18.1209 -18.1169 -18.1166
   -18.1165 -18.1163 -18.1046 -18.0819 -18.0732 -18.0504 -18.0418 -18.0403
   -18.0359 -18.0347 -18.0279 -18.0093 -18.0012 -17.9924 -17.9783 -17.9761
   -17.9636 -17.9380 -17.9349 -17.9348 -17.9274 -17.9189 -17.9097 -17.8789
   -17.8725 -17.8632 -17.8549 -17.8533 -17.8533 -17.8266 -17.8128 -17.8014
   -17.7936 -17.7934 -17.7818 -17.7773 -17.7769 -17.7731 -17.7597 -17.7347
   -17.7325 -17.6804 -17.6680 -12.0295 -11.8483 -11.7561 -11.6743 -11.5992
   -11.5617 -11.4969 -11.4659 -11.4624 -11.4613 -11.4607 -11.4486 -11.4307
   -11.4197 -11.4039 -11.3806 -11.3699 -11.3649 -11.3469 -11.3399 -11.3285
   -11.2971 -11.2809 -11.2724 -11.2522 -11.2460 -11.2460 -11.2408 -11.2007
   -11.2005 -11.1765 -11.1542 -11.1494 -11.1443 -11.1140 -11.1065 -11.0871
   -11.0169 -11.0008 -10.9775 -10.9685 -10.9458 -10.9285 -10.9154 -10.9049
   -10.9003 -10.8957 -10.8758 -10.8698 -10.8597 -10.8428 -10.8317 -10.8203
   -10.8202 -10.8184 -10.8178 -10.8078 -10.8022 -10.7928 -10.7627 -10.7587
   -10.7503 -10.7447 -10.7354 -10.7080 -10.6018 -10.5904 -10.5555 -10.4911
   -10.4761 -10.4378 -10.3742 -10.3428 -10.2819 -10.2611 -10.1856 -10.1736
   -10.1325 -10.1191 -10.0966 -10.0906 -10.0811 -10.0464 -10.0192  -9.9906
    -9.9776  -9.9649  -9.9331  -9.9279  -9.9229  -9.9169  -9.9133  -9.8942
    -9.8889  -9.8847  -9.8755  -9.8597  -9.8271  -9.8107  -9.7912  -9.7692
    -9.7506  -9.7448  -9.7360  -9.7149  -9.7042  -9.7005  -9.6914  -9.6875
    -9.6821  -9.6564  -9.6513  -9.6435  -9.6389  -9.6258  -9.6021  -9.5915
    -9.5549  -9.5390  -9.5266  -9.5204  -9.5143  -9.4981  -9.4618  -9.4598
    -9.4382  -9.3649  -9.3418  -9.3207  -9.3089  -9.2922  -9.2636  -9.2013
    -9.1949  -9.1769  -9.1515  -9.1452  -9.1369  -9.1317  -9.1288  -9.1078
    -9.1003  -9.0868  -9.0715  -9.0496  -9.0365  -9.0279  -9.0271  -9.0204
    -9.0079  -8.9958  -8.9773  -8.9714  -8.9609  -8.9424  -8.9412  -8.9364
    -8.9315  -8.9239  -8.9200  -8.9089  -8.8969  -8.8720  -8.8673  -8.8543
    -8.8497  -8.8477  -8.8447  -8.8381  -8.8288  -8.8281  -8.8238  -8.8207
    -8.8035  -8.7935  -8.7780  -8.7694  -8.7594  -8.7510  -8.7478  -8.7289
    -8.7189  -8.6229  -8.6095  -8.5658  -8.5011  -8.5009  -8.4825  -8.4333
    -8.4186  -8.4141  -8.3878  -8.3385  -8.2573  -8.2534  -8.1825  -8.1825
    -8.1743  -8.1121  -8.1097  -8.1059  -8.0943  -8.0767  -8.0508  -8.0318
    -7.9385  -7.9246  -7.9164  -7.9024  -7.8747  -7.8568  -7.8495  -7.8433
    -7.8372  -7.8358  -7.8358  -7.8349  -7.8256  -7.8224  -7.8170  -7.8072
    -7.7911  -7.7888  -7.7872  -7.7851  -7.7681  -7.7659  -7.7621  -7.7502
    -7.7372  -7.7339  -7.7254  -7.7149  -7.7125  -7.7114  -7.7063  -7.6985
    -7.6859  -7.6830  -7.6674  -7.6608  -7.6546  -7.6506  -7.6503  -7.6445
    -7.6225  -7.6143  -7.6063  -7.5895  -7.5843  -7.5767  -7.5740  -7.5644
    -7.5287  -7.5234  -7.5183  -7.4665  -7.4622  -7.4248  -7.3904  -7.3681
    -7.3214  -7.2529  -7.2404  -7.2284  -7.2206  -7.1925  -7.1715  -7.1519
    -7.1248  -7.1045  -7.0728  -7.0409  -7.0292  -7.0103  -7.0065  -7.0001
    -6.9973  -6.9778  -6.9550  -6.9402  -6.9310  -6.8916  -6.8880  -6.8744
    -6.8613  -6.8526  -6.8376  -6.8149  -6.7678  -6.7586  -6.7122  -6.6931
    -6.6800  -6.6574  -6.6476  -6.6474  -6.6474  -6.6473  -6.6366  -6.6308
    -6.6047  -6.5900  -6.5800  -6.5782  -6.5773  -6.5749  -6.5710  -6.5547
    -6.5013  -6.4740  -6.4422  -6.4258  -6.3851  -6.3538  -6.3163  -6.3160
    -6.3154  -6.3150  -6.3106  -6.2885  -6.2773  -6.2619  -6.2474  -6.2389
    -6.2361  -6.2301  -6.2294  -6.2242  -6.1897  -6.1711  -6.1572  -6.0775
    -6.0744  -5.9866  -5.9672  -5.9672  -5.8906  -5.8899  -5.8572  -5.7615
    -5.7509  -5.7091  -5.6306  -5.5935  -5.5630  -5.4741  -5.4376  -5.3549
    -5.2862  -5.2235  -4.1305  -4.0523  -4.0178  -4.0041  -3.9659  -3.9240
    -3.8828  -3.8828  -3.8539  -3.8328  -3.8181  -3.8177  -3.8006  -3.7627
    -3.7586  -3.7510  -3.7051  -3.6944  -3.6294  -3.5948  -3.5887  -3.5852
    -3.5829  -3.5763  -3.5685  -3.5679  -3.5603  -3.5395  -3.5017  -3.4994
    -3.4898  -3.4875  -3.4821  -3.4721  -3.4666  -3.4637  -3.4523  -3.4507
    -3.4209  -3.4122  -3.3890  -3.3659  -3.3627  -3.3523  -3.3365  -3.3348
    -3.3318  -3.3172  -3.3053  -3.3018  -3.2956  -3.2939  -3.2745  -3.2599
    -3.2591  -3.2587  -3.2579  -3.2481  -3.2317  -3.2221  -3.2146  -3.2123
    -3.1981  -3.1920  -3.1858  -3.1778  -3.1712  -3.1645  -3.1495  -3.1372
    -3.1192  -3.1031  -3.0920  -3.0813  -3.0563  -3.0528  -3.0276  -3.0224
    -3.0142  -3.0126  -2.9963  -2.9961  -2.9952  -2.9945  -2.9674  -2.9516
    -2.9469  -2.9454  -2.9406  -2.9321  -2.9234  -2.9145  -2.9091  -2.9023
    -2.8999  -2.8855  -2.8828  -2.8726  -2.8688  -2.8561  -2.8519  -2.8358
    -2.8221  -2.8079  -2.7907  -2.7880  -2.7864  -2.7512  -2.7345  -2.7243
    -2.6977  -2.6946  -2.6479  -2.6374  -2.6337  -2.6281  -2.6231  -2.6203
    -2.5562  -2.5487  -2.5118  -2.5008  -2.4868  -2.4851  -2.4756  -2.4476
    -2.3896  -2.3638  -2.3347  -2.3210  -2.2845  -2.2659

          k =-0.5000-0.2887 0.0000 (321564 PWs)   bands (ev):

  -102.8178 -88.7127 -88.0856 -71.1451 -71.1367 -71.1233 -71.1128 -71.0998
   -71.0923 -71.0818 -66.6706 -66.6706 -66.6600 -66.6600 -66.6451 -66.6451
   -66.6451 -66.6451 -66.6407 -66.6407 -66.6345 -66.6345 -66.6345 -66.6344
   -66.6301 -66.6301 -66.6047 -66.6046 -66.5942 -66.5940 -66.5794 -66.5792
   -66.5790 -66.5790 -66.5749 -66.5747 -66.5687 -66.5686 -66.5685 -66.5684
   -66.5642 -66.5641 -66.5368 -66.5281 -66.5178 -66.5097 -66.5090 -66.5031
   -66.4998 -66.4943 -66.4891 -66.4819 -66.4758 -66.4727 -66.4694 -66.4677
   -66.4652 -66.4595 -57.1207 -57.0113 -56.9868 -54.5934 -54.4552 -54.4546
   -53.9296 -53.8987 -53.8377 -40.9718 -40.9718 -40.9718 -40.9718 -40.9451
   -40.9451 -40.9332 -40.9332 -40.9049 -40.9048 -40.9046 -40.9046 -40.8828
   -40.8828 -40.8828 -40.8828 -40.8782 -40.8780 -40.8662 -40.8661 -40.8260
   -40.8248 -40.8248 -40.8205 -40.8180 -40.8173 -40.8159 -40.8159 -40.8157
   -40.8157 -40.8148 -40.8148 -40.8062 -40.8041 -40.8041 -40.7965 -40.7747
   -40.7747 -40.7747 -40.7747 -40.7739 -40.7660 -40.7660 -40.7595 -40.7593
   -40.7542 -40.7538 -40.7538 -40.7538 -40.7538 -40.7538 -40.7538 -40.7481
   -40.7479 -40.7452 -40.7452 -40.7388 -40.7386 -40.7290 -40.7231 -40.7231
   -40.7231 -40.7231 -40.7213 -40.7186 -40.7129 -40.7095 -40.7095 -40.7093
   -40.7092 -40.7092 -40.7008 -40.7006 -40.6936 -40.6886 -40.6886 -40.6886
   -40.6886 -40.6886 -40.6885 -40.6885 -40.6884 -40.6883 -40.6871 -40.6869
   -40.6799 -40.6798 -40.6765 -40.6765 -40.6730 -40.6591 -40.6573 -40.6573
   -40.6572 -40.6564 -40.6564 -40.6562 -40.6561 -40.6529 -40.6483 -40.6454
   -40.6430 -40.6404 -40.6404 -40.6386 -40.6306 -40.6253 -40.6219 -40.6219
   -40.6217 -40.6217 -40.6184 -40.6130 -40.6106 -40.6100 -40.6099 -40.6098
   -40.6097 -40.6079 -40.6018 -40.5950 -40.5941 -40.5907 -40.5904 -40.5754
   -40.5738 -40.5738 -40.5736 -40.5669 -40.5584 -40.5434 -40.5432 -40.5365
   -40.5329 -40.5278 -40.5241 -40.5161 -40.5086 -40.5061 -40.4887 -40.4751
   -40.4619 -40.4503 -40.4448 -19.9939 -19.8827 -19.8583 -19.8111 -19.7001
   -19.6761 -19.4757 -19.4490 -19.4184 -19.3907 -19.2740 -19.2573 -19.0802
   -18.8983 -18.8081 -18.7491 -18.7394 -18.7293 -18.7264 -18.7229 -18.7173
   -18.6496 -18.6437 -18.6152 -18.6040 -18.5960 -18.5903 -18.5731 -18.5507
   -18.5415 -18.5121 -18.4812 -18.4783 -18.4575 -18.4383 -18.4132 -18.4111
   -18.3907 -18.3708 -18.3408 -18.3114 -18.2776 -18.2510 -18.2467 -18.2217
   -18.2155 -18.1767 -18.1758 -18.1516 -18.1372 -18.1172 -18.1167 -18.1165
   -18.1165 -18.1149 -18.0966 -18.0898 -18.0770 -18.0496 -18.0473 -18.0401
   -18.0354 -18.0312 -18.0292 -18.0206 -18.0051 -17.9911 -17.9807 -17.9720
   -17.9679 -17.9440 -17.9367 -17.9309 -17.9287 -17.9236 -17.9131 -17.8774
   -17.8753 -17.8655 -17.8592 -17.8533 -17.8532 -17.8197 -17.8105 -17.7963
   -17.7934 -17.7932 -17.7922 -17.7776 -17.7767 -17.7678 -17.7497 -17.7343
   -17.7327 -17.6801 -17.6688 -12.0294 -11.8066 -11.7420 -11.6797 -11.6201
   -11.5653 -11.5390 -11.4796 -11.4675 -11.4621 -11.4595 -11.4582 -11.4419
   -11.4329 -11.4168 -11.3736 -11.3643 -11.3633 -11.3594 -11.3369 -11.3080
   -11.2814 -11.2779 -11.2749 -11.2664 -11.2460 -11.2460 -11.2215 -11.2005
   -11.2001 -11.1669 -11.1519 -11.1471 -11.1431 -11.1299 -11.0866 -11.0402
   -11.0262 -10.9982 -10.9920 -10.9568 -10.9544 -10.9353 -10.9120 -10.9041
   -10.9013 -10.8943 -10.8827 -10.8653 -10.8538 -10.8404 -10.8278 -10.8242
   -10.8191 -10.8189 -10.8164 -10.8159 -10.8077 -10.7973 -10.7808 -10.7551
   -10.7500 -10.7464 -10.7447 -10.6738 -10.6156 -10.5789 -10.5625 -10.4946
   -10.4769 -10.4432 -10.4126 -10.3546 -10.3028 -10.2484 -10.2179 -10.1246
   -10.1155 -10.1127 -10.1028 -10.0798 -10.0605 -10.0329 -10.0165  -9.9930
    -9.9846  -9.9437  -9.9387  -9.9354  -9.9178  -9.9145  -9.9034  -9.8975
    -9.8958  -9.8877  -9.8756  -9.8614  -9.8280  -9.8110  -9.7798  -9.7532
    -9.7436  -9.7347  -9.7271  -9.7222  -9.7044  -9.6980  -9.6968  -9.6865
    -9.6824  -9.6606  -9.6513  -9.6239  -9.6157  -9.6069  -9.6015  -9.5590
    -9.5457  -9.5415  -9.5253  -9.5169  -9.5103  -9.4939  -9.4793  -9.4620
    -9.4591  -9.4022  -9.3955  -9.3649  -9.3219  -9.2799  -9.2689  -9.2056
    -9.1860  -9.1837  -9.1675  -9.1635  -9.1541  -9.1335  -9.1193  -9.1037
    -9.0985  -9.0729  -9.0704  -9.0396  -9.0357  -9.0286  -9.0194  -9.0152
    -9.0051  -8.9958  -8.9886  -8.9780  -8.9564  -8.9545  -8.9437  -8.9335
    -8.9259  -8.9225  -8.9217  -8.8964  -8.8951  -8.8757  -8.8719  -8.8517
    -8.8478  -8.8458  -8.8418  -8.8303  -8.8289  -8.8288  -8.8253  -8.8180
    -8.8086  -8.8002  -8.7839  -8.7774  -8.7574  -8.7523  -8.7449  -8.7364
    -8.7015  -8.6532  -8.5858  -8.5441  -8.5012  -8.5005  -8.4728  -8.4424
    -8.4270  -8.4158  -8.3882  -8.3589  -8.2947  -8.2278  -8.1825  -8.1825
    -8.1593  -8.1398  -8.1107  -8.1098  -8.1057  -8.0484  -8.0272  -8.0010
    -7.9539  -7.9207  -7.9194  -7.8902  -7.8624  -7.8565  -7.8486  -7.8438
    -7.8396  -7.8358  -7.8358  -7.8349  -7.8338  -7.8303  -7.8046  -7.7923
    -7.7908  -7.7891  -7.7862  -7.7711  -7.7656  -7.7624  -7.7554  -7.7509
    -7.7394  -7.7332  -7.7288  -7.7208  -7.7112  -7.7097  -7.7041  -7.7025
    -7.6897  -7.6856  -7.6732  -7.6707  -7.6572  -7.6506  -7.6505  -7.6294
    -7.6233  -7.6153  -7.6086  -7.6006  -7.5871  -7.5798  -7.5730  -7.5598
    -7.5328  -7.5139  -7.4967  -7.4902  -7.4734  -7.4296  -7.4030  -7.3206
    -7.2988  -7.2698  -7.2299  -7.2215  -7.2145  -7.2090  -7.1825  -7.1544
    -7.1294  -7.1070  -7.0874  -7.0612  -7.0424  -7.0254  -7.0138  -6.9986
    -6.9980  -6.9831  -6.9667  -6.9509  -6.9149  -6.9022  -6.8947  -6.8835
    -6.8707  -6.8402  -6.8226  -6.8159  -6.7835  -6.7439  -6.7203  -6.6919
    -6.6795  -6.6500  -6.6474  -6.6474  -6.6473  -6.6463  -6.6272  -6.6174
    -6.6042  -6.5830  -6.5796  -6.5771  -6.5753  -6.5640  -6.5504  -6.5383
    -6.4956  -6.4740  -6.4385  -6.4297  -6.4011  -6.3846  -6.3303  -6.3224
    -6.3154  -6.3151  -6.3140  -6.3125  -6.2602  -6.2532  -6.2387  -6.2332
    -6.2318  -6.2294  -6.2290  -6.2181  -6.2027  -6.1935  -6.1096  -6.0390
    -5.9887  -5.9733  -5.9672  -5.9670  -5.8964  -5.8902  -5.8818  -5.8422
    -5.7478  -5.7177  -5.6228  -5.5857  -5.5801  -5.4927  -5.4188  -5.3668
    -5.3055  -5.2287  -4.1358  -4.0511  -4.0114  -4.0063  -3.9923  -3.9038
    -3.8826  -3.8825  -3.8650  -3.8309  -3.8181  -3.8180  -3.7849  -3.7763
    -3.7690  -3.7467  -3.7355  -3.6726  -3.6306  -3.5992  -3.5895  -3.5849
    -3.5812  -3.5773  -3.5683  -3.5680  -3.5532  -3.5458  -3.5379  -3.4942
    -3.4865  -3.4834  -3.4757  -3.4659  -3.4608  -3.4606  -3.4511  -3.4485
    -3.4094  -3.3962  -3.3727  -3.3653  -3.3522  -3.3441  -3.3377  -3.3353
    -3.3327  -3.3068  -3.3039  -3.3020  -3.2965  -3.2913  -3.2649  -3.2601
    -3.2592  -3.2580  -3.2569  -3.2395  -3.2287  -3.2206  -3.2145  -3.2123
    -3.1994  -3.1929  -3.1829  -3.1818  -3.1774  -3.1701  -3.1433  -3.1375
    -3.1130  -3.1053  -3.1006  -3.0781  -3.0552  -3.0536  -3.0297  -3.0247
    -3.0150  -3.0134  -2.9962  -2.9958  -2.9957  -2.9956  -2.9606  -2.9511
    -2.9466  -2.9459  -2.9326  -2.9230  -2.9180  -2.9110  -2.9070  -2.9038
    -2.8960  -2.8796  -2.8772  -2.8707  -2.8659  -2.8610  -2.8432  -2.8360
    -2.8203  -2.8080  -2.8066  -2.7893  -2.7847  -2.7776  -2.7293  -2.7278
    -2.6952  -2.6900  -2.6636  -2.6405  -2.6336  -2.6326  -2.6221  -2.6170
    -2.5595  -2.5470  -2.5150  -2.5126  -2.4882  -2.4873  -2.4827  -2.4476
    -2.4447  -2.3761  -2.3383  -2.2898  -2.2790  -2.2316

          k =-0.5000-0.8660 0.0000 (321564 PWs)   bands (ev):

  -102.8178 -88.7127 -88.0856 -71.1451 -71.1366 -71.1233 -71.1128 -71.0998
   -71.0923 -71.0818 -66.6706 -66.6706 -66.6600 -66.6600 -66.6451 -66.6451
   -66.6451 -66.6451 -66.6407 -66.6406 -66.6345 -66.6345 -66.6344 -66.6344
   -66.6301 -66.6301 -66.6048 -66.6045 -66.5942 -66.5940 -66.5793 -66.5792
   -66.5792 -66.5789 -66.5749 -66.5747 -66.5687 -66.5687 -66.5685 -66.5683
   -66.5642 -66.5641 -66.5370 -66.5275 -66.5184 -66.5105 -66.5082 -66.5025
   -66.5009 -66.4931 -66.4892 -66.4828 -66.4752 -66.4726 -66.4698 -66.4679
   -66.4649 -66.4596 -57.1207 -57.0113 -56.9868 -54.5934 -54.4552 -54.4546
   -53.9296 -53.8987 -53.8377 -40.9718 -40.9718 -40.9718 -40.9717 -40.9451
   -40.9451 -40.9332 -40.9332 -40.9049 -40.9048 -40.9047 -40.9045 -40.8828
   -40.8828 -40.8828 -40.8828 -40.8782 -40.8780 -40.8662 -40.8661 -40.8285
   -40.8273 -40.8248 -40.8248 -40.8189 -40.8159 -40.8159 -40.8157 -40.8157
   -40.8148 -40.8148 -40.8074 -40.8041 -40.8041 -40.8003 -40.7982 -40.7747
   -40.7747 -40.7747 -40.7747 -40.7731 -40.7660 -40.7660 -40.7595 -40.7593
   -40.7577 -40.7538 -40.7538 -40.7538 -40.7538 -40.7538 -40.7537 -40.7481
   -40.7479 -40.7452 -40.7452 -40.7387 -40.7387 -40.7290 -40.7233 -40.7231
   -40.7231 -40.7230 -40.7230 -40.7186 -40.7147 -40.7094 -40.7094 -40.7093
   -40.7092 -40.7091 -40.7008 -40.7005 -40.6972 -40.6886 -40.6886 -40.6886
   -40.6886 -40.6886 -40.6885 -40.6884 -40.6881 -40.6870 -40.6869 -40.6852
   -40.6799 -40.6798 -40.6765 -40.6765 -40.6717 -40.6617 -40.6573 -40.6573
   -40.6565 -40.6564 -40.6562 -40.6561 -40.6557 -40.6528 -40.6491 -40.6465
   -40.6428 -40.6404 -40.6404 -40.6347 -40.6299 -40.6285 -40.6219 -40.6219
   -40.6217 -40.6217 -40.6175 -40.6138 -40.6106 -40.6100 -40.6099 -40.6099
   -40.6096 -40.6074 -40.5999 -40.5959 -40.5944 -40.5907 -40.5904 -40.5755
   -40.5738 -40.5736 -40.5687 -40.5652 -40.5627 -40.5434 -40.5431 -40.5361
   -40.5306 -40.5280 -40.5255 -40.5179 -40.5046 -40.5030 -40.4958 -40.4750
   -40.4677 -40.4524 -40.4378 -20.0104 -19.8744 -19.8585 -19.7756 -19.6998
   -19.6549 -19.5625 -19.4443 -19.4268 -19.3770 -19.2774 -19.2528 -19.0387
   -18.8811 -18.8093 -18.7585 -18.7375 -18.7307 -18.7261 -18.7232 -18.7132
   -18.6894 -18.6366 -18.6127 -18.6070 -18.5935 -18.5856 -18.5737 -18.5606
   -18.5405 -18.5083 -18.4813 -18.4778 -18.4467 -18.4382 -18.4104 -18.4002
   -18.3874 -18.3673 -18.3575 -18.3064 -18.2794 -18.2689 -18.2386 -18.2311
   -18.2221 -18.1963 -18.1648 -18.1488 -18.1421 -18.1183 -18.1167 -18.1166
   -18.1165 -18.1163 -18.1034 -18.0863 -18.0618 -18.0589 -18.0425 -18.0397
   -18.0364 -18.0316 -18.0310 -18.0154 -18.0033 -17.9880 -17.9799 -17.9768
   -17.9567 -17.9395 -17.9346 -17.9332 -17.9303 -17.9139 -17.9084 -17.8763
   -17.8733 -17.8694 -17.8532 -17.8532 -17.8498 -17.8234 -17.8117 -17.8063
   -17.7936 -17.7934 -17.7840 -17.7770 -17.7766 -17.7702 -17.7612 -17.7339
   -17.7333 -17.6773 -17.6718 -12.0136 -11.8639 -11.7492 -11.6739 -11.6435
   -11.5387 -11.5250 -11.4668 -11.4620 -11.4603 -11.4596 -11.4397 -11.4349
   -11.4201 -11.3856 -11.3665 -11.3651 -11.3624 -11.3456 -11.3349 -11.3146
   -11.3026 -11.2845 -11.2736 -11.2521 -11.2460 -11.2460 -11.2415 -11.2018
   -11.2003 -11.1835 -11.1712 -11.1463 -11.1434 -11.1408 -11.0983 -11.0611
   -11.0368 -10.9905 -10.9703 -10.9570 -10.9395 -10.9253 -10.9175 -10.9082
   -10.8964 -10.8878 -10.8713 -10.8589 -10.8558 -10.8415 -10.8302 -10.8222
   -10.8197 -10.8191 -10.8168 -10.8092 -10.8040 -10.8025 -10.7693 -10.7555
   -10.7515 -10.7447 -10.7366 -10.6678 -10.6119 -10.5869 -10.5587 -10.4939
   -10.4911 -10.4745 -10.4281 -10.3564 -10.3183 -10.2519 -10.2149 -10.1414
   -10.1225 -10.1068 -10.1036 -10.0687 -10.0549 -10.0286 -10.0128 -10.0050
    -9.9635  -9.9460  -9.9307  -9.9297  -9.9237  -9.9163  -9.9062  -9.9046
    -9.8878  -9.8827  -9.8694  -9.8667  -9.8508  -9.8069  -9.7825  -9.7745
    -9.7533  -9.7428  -9.7304  -9.7050  -9.7007  -9.6986  -9.6956  -9.6867
    -9.6840  -9.6660  -9.6530  -9.6406  -9.6278  -9.6104  -9.6011  -9.5678
    -9.5597  -9.5436  -9.5277  -9.5169  -9.5113  -9.4856  -9.4676  -9.4596
    -9.4578  -9.3774  -9.3667  -9.3409  -9.3108  -9.2883  -9.2333  -9.2006
    -9.1992  -9.1798  -9.1611  -9.1548  -9.1461  -9.1383  -9.1274  -9.1051
    -9.0949  -9.0858  -9.0704  -9.0541  -9.0388  -9.0285  -9.0225  -9.0130
    -9.0061  -8.9888  -8.9764  -8.9685  -8.9543  -8.9503  -8.9433  -8.9329
    -8.9257  -8.9228  -8.9195  -8.9073  -8.8981  -8.8868  -8.8692  -8.8571
    -8.8495  -8.8454  -8.8449  -8.8376  -8.8287  -8.8282  -8.8223  -8.8137
    -8.8090  -8.7996  -8.7916  -8.7682  -8.7553  -8.7530  -8.7480  -8.7291
    -8.7170  -8.6518  -8.5817  -8.5612  -8.5012  -8.5008  -8.4865  -8.4301
    -8.4162  -8.4123  -8.3690  -8.3414  -8.2498  -8.2144  -8.1942  -8.1825
    -8.1825  -8.1223  -8.1102  -8.1087  -8.0945  -8.0920  -8.0428  -7.9866
    -7.9406  -7.9245  -7.9183  -7.9077  -7.8640  -7.8592  -7.8518  -7.8412
    -7.8389  -7.8358  -7.8358  -7.8355  -7.8270  -7.8217  -7.8143  -7.7999
    -7.7946  -7.7890  -7.7870  -7.7849  -7.7822  -7.7657  -7.7642  -7.7538
    -7.7443  -7.7370  -7.7294  -7.7253  -7.7150  -7.7112  -7.7095  -7.7062
    -7.6941  -7.6848  -7.6746  -7.6739  -7.6506  -7.6505  -7.6489  -7.6439
    -7.6254  -7.6097  -7.6017  -7.5928  -7.5822  -7.5763  -7.5650  -7.5450
    -7.5395  -7.5220  -7.5148  -7.4997  -7.4595  -7.4426  -7.3796  -7.3483
    -7.3148  -7.2694  -7.2359  -7.2264  -7.2212  -7.2033  -7.1934  -7.1575
    -7.1169  -7.1016  -7.0734  -7.0584  -7.0462  -7.0173  -7.0021  -6.9982
    -6.9843  -6.9739  -6.9458  -6.9405  -6.9263  -6.9036  -6.8915  -6.8855
    -6.8470  -6.8299  -6.8166  -6.8110  -6.7530  -6.7281  -6.7152  -6.6972
    -6.6684  -6.6524  -6.6479  -6.6474  -6.6473  -6.6472  -6.6456  -6.6221
    -6.6032  -6.5921  -6.5816  -6.5784  -6.5769  -6.5762  -6.5586  -6.5457
    -6.5074  -6.4595  -6.4552  -6.4312  -6.4096  -6.3730  -6.3414  -6.3163
    -6.3156  -6.3153  -6.3147  -6.2749  -6.2547  -6.2501  -6.2405  -6.2353
    -6.2323  -6.2305  -6.2255  -6.2140  -6.1896  -6.1819  -6.1692  -6.1192
    -6.0242  -5.9672  -5.9672  -5.9464  -5.9031  -5.8901  -5.8872  -5.8363
    -5.7444  -5.7097  -5.6300  -5.5768  -5.5501  -5.4833  -5.4129  -5.3556
    -5.2963  -5.2292  -4.1578  -4.0440  -4.0152  -4.0109  -3.9768  -3.9091
    -3.8828  -3.8828  -3.8477  -3.8338  -3.8182  -3.8178  -3.7982  -3.7741
    -3.7587  -3.7465  -3.7142  -3.6819  -3.6193  -3.5997  -3.5899  -3.5862
    -3.5823  -3.5785  -3.5681  -3.5678  -3.5556  -3.5399  -3.5095  -3.5040
    -3.4919  -3.4873  -3.4732  -3.4694  -3.4636  -3.4606  -3.4579  -3.4471
    -3.4120  -3.4053  -3.3838  -3.3758  -3.3531  -3.3481  -3.3409  -3.3358
    -3.3349  -3.3116  -3.3057  -3.3015  -3.2950  -3.2933  -3.2722  -3.2597
    -3.2593  -3.2587  -3.2571  -3.2383  -3.2281  -3.2204  -3.2131  -3.2076
    -3.1943  -3.1892  -3.1858  -3.1811  -3.1741  -3.1661  -3.1544  -3.1397
    -3.1226  -3.1067  -3.0899  -3.0770  -3.0556  -3.0534  -3.0304  -3.0199
    -3.0154  -3.0114  -2.9966  -2.9961  -2.9957  -2.9952  -2.9637  -2.9517
    -2.9466  -2.9461  -2.9333  -2.9263  -2.9206  -2.9137  -2.9068  -2.9001
    -2.8944  -2.8912  -2.8817  -2.8789  -2.8670  -2.8569  -2.8448  -2.8352
    -2.8194  -2.8138  -2.8085  -2.7829  -2.7814  -2.7680  -2.7298  -2.7238
    -2.6924  -2.6913  -2.6494  -2.6436  -2.6334  -2.6307  -2.6245  -2.6163
    -2.5535  -2.5500  -2.5122  -2.5062  -2.4857  -2.4787  -2.4746  -2.4626
    -2.4003  -2.3577  -2.3298  -2.3233  -2.2728  -2.2522

     the Fermi energy is    -4.6377 ev

!    total energy              =  -26543.75706202 Ry
     total all-electron energy =   -522376.353370 Ry
     estimated scf accuracy    <       0.00000092 Ry
     smearing contrib. (-TS)   =      -0.00000002 Ry
     internal energy E=F+TS    =  -26543.75706199 Ry

     The total energy is F=E-TS. E is the sum of the following terms:
     one-electron contribution =  511440.08711916 Ry
     hartree contribution      = -255864.24420810 Ry
     xc contribution           =   -1565.67056643 Ry
     ewald contribution        = -264105.92245473 Ry
     DFT-D3 Dispersion         =      -4.05905420 Ry
     one-center paw contrib.   =  -16443.94789769 Ry

     convergence has been achieved in  23 iterations

     negative rho (up, down):  9.634E-04 0.000E+00

     Forces acting on atoms (cartesian axes, Ry/au):

     atom    1 type  1   force =     0.00017257   -0.00049472   -0.00000096
     atom    2 type  1   force =    -0.00000661    0.00001205    0.00191246
     atom    3 type  1   force =    -0.00004621    0.00001573    0.00005264
     atom    4 type  2   force =    -0.00000018    0.00000314   -0.00336246
     atom    5 type  2   force =     0.00002184    0.00000653   -0.00005858
     atom    6 type  2   force =    -0.00004746   -0.00012015   -0.00016507
     atom    7 type  2   force =    -0.00000309    0.00000342    0.00157540
     atom    8 type  2   force =    -0.00000980   -0.00000719    0.00011451
     atom    9 type  2   force =    -0.00015650    0.00026424    0.00077836
     atom   10 type  1   force =    -0.00031698    0.00046864   -0.00001787
     atom   11 type  1   force =     0.00000007    0.00000417    0.00190971
     atom   12 type  1   force =    -0.00000637   -0.00003775    0.00002211
     atom   13 type  2   force =     0.00000278   -0.00000008   -0.00335916
     atom   14 type  2   force =     0.00001234    0.00000921   -0.00007571
     atom   15 type  2   force =    -0.00019811    0.00007257   -0.00003340
     atom   16 type  2   force =     0.00000116    0.00000158    0.00158450
     atom   17 type  2   force =    -0.00001076    0.00000099    0.00005829
     atom   18 type  2   force =     0.00016354   -0.00041152    0.00036502
     atom   19 type  1   force =     0.00227287   -0.00063693   -0.00194175
     atom   20 type  1   force =     0.00001550   -0.00000720    0.00190808
     atom   21 type  1   force =     0.00000866   -0.00000460   -0.00000040
     atom   22 type  2   force =     0.00000472   -0.00000127   -0.00336529
     atom   23 type  2   force =     0.00001831   -0.00000183   -0.00007190
     atom   24 type  2   force =     0.00044833   -0.00060853    0.00231365
     atom   25 type  2   force =     0.00000320   -0.00000823    0.00156811
     atom   26 type  2   force =    -0.00000273   -0.00000286    0.00013138
     atom   27 type  2   force =     0.01132640   -0.00537268    0.01601142
     atom   28 type  1   force =     0.00082533    0.00252991   -0.00208402
     atom   29 type  1   force =     0.00000691    0.00000281    0.00191279
     atom   30 type  1   force =    -0.00001264   -0.00001990    0.00005218
     atom   31 type  2   force =     0.00000196    0.00000183   -0.00336619
     atom   32 type  2   force =     0.00000891    0.00001428   -0.00006759
     atom   33 type  2   force =    -0.00002946   -0.00002777    0.00244337
     atom   34 type  2   force =    -0.00000471   -0.00000507    0.00157571
     atom   35 type  2   force =     0.00002106   -0.00000898    0.00014905
     atom   36 type  2   force =     0.00121014    0.01383435    0.01604624
     atom   37 type  1   force =     0.00013970    0.00025034    0.00008716
     atom   38 type  1   force =     0.00001000    0.00000121    0.00190957
     atom   39 type  1   force =     0.00005763    0.00001804    0.00008529
     atom   40 type  2   force =     0.00000397    0.00000292   -0.00336675
     atom   41 type  2   force =    -0.00001083   -0.00000691   -0.00007399
     atom   42 type  2   force =    -0.00009902    0.00006305   -0.00007809
     atom   43 type  2   force =     0.00000681    0.00000939    0.00157504
     atom   44 type  2   force =     0.00001634    0.00001640    0.00010356
     atom   45 type  2   force =     0.00027648    0.00016930    0.00084860
     atom   46 type  1   force =     0.00077622    0.00057418   -0.00052072
     atom   47 type  1   force =    -0.00000561    0.00000540    0.00190434
     atom   48 type  1   force =     0.00002285    0.00001575    0.00003265
     atom   49 type  2   force =     0.00000098    0.00000096   -0.00336348
     atom   50 type  2   force =    -0.00000482   -0.00001081   -0.00006683
     atom   51 type  2   force =     0.00043751    0.00017142   -0.00011268
     atom   52 type  2   force =     0.00000271    0.00001180    0.00157594
     atom   53 type  2   force =     0.00004678    0.00002199    0.00012921
     atom   54 type  2   force =     0.00017311    0.00029091    0.00042892
     atom   55 type  1   force =     0.00033202   -0.00023511    0.00044919
     atom   56 type  1   force =     0.00000141    0.00000098    0.00190737
     atom   57 type  1   force =     0.00004529    0.00001081    0.00003491
     atom   58 type  2   force =     0.00000304    0.00000071   -0.00336040
     atom   59 type  2   force =    -0.00000189   -0.00001753   -0.00008092
     atom   60 type  2   force =    -0.00002431    0.00003852   -0.00005043
     atom   61 type  2   force =     0.00001019   -0.00000274    0.00156373
     atom   62 type  2   force =     0.00001232    0.00000981    0.00005380
     atom   63 type  2   force =    -0.00005170    0.00005257    0.00081440
     atom   64 type  1   force =     0.00041723    0.00033122    0.00047176
     atom   65 type  1   force =     0.00001498    0.00000275    0.00191090
     atom   66 type  1   force =     0.00004695    0.00002125    0.00008455
     atom   67 type  2   force =     0.00000638    0.00000051   -0.00336503
     atom   68 type  2   force =    -0.00000101   -0.00001226   -0.00008364
     atom   69 type  2   force =     0.00081863    0.00061277   -0.00110253
     atom   70 type  2   force =     0.00001214   -0.00000577    0.00156789
     atom   71 type  2   force =     0.00002330   -0.00000658    0.00007713
     atom   72 type  2   force =    -0.00090170   -0.00055016   -0.00057420
     atom   73 type  1   force =    -0.00112379   -0.00029947    0.00033510
     atom   74 type  1   force =     0.00000556   -0.00000472    0.00191310
     atom   75 type  1   force =    -0.00003689    0.00002664   -0.00002013
     atom   76 type  2   force =     0.00000331   -0.00000105   -0.00335980
     atom   77 type  2   force =     0.00000039    0.00000134   -0.00008864
     atom   78 type  2   force =    -0.00002172    0.00012349   -0.00045953
     atom   79 type  2   force =     0.00000654    0.00000419    0.00156750
     atom   80 type  2   force =     0.00000531    0.00000459    0.00004401
     atom   81 type  2   force =    -0.00038890    0.00037568    0.00050676
     atom   82 type  1   force =    -0.00106721   -0.00237221   -0.00130265
     atom   83 type  1   force =     0.00000175   -0.00000213    0.00190098
     atom   84 type  1   force =    -0.00001358   -0.00004595    0.00000264
     atom   85 type  2   force =     0.00000153   -0.00000005   -0.00336533
     atom   86 type  2   force =    -0.00000217    0.00000272   -0.00009840
     atom   87 type  2   force =     0.00027105   -0.00035187   -0.00054290
     atom   88 type  2   force =     0.00000284    0.00000991    0.00157448
     atom   89 type  2   force =    -0.00001993   -0.00000979    0.00005700
     atom   90 type  2   force =    -0.00201239   -0.00224622   -0.00012635
     atom   91 type  1   force =    -0.00368947   -0.00014605    0.00021021
     atom   92 type  1   force =    -0.00001038    0.00000161    0.00190101
     atom   93 type  1   force =    -0.00003357    0.00000701   -0.00002339
     atom   94 type  2   force =    -0.00000046    0.00000197   -0.00336349
     atom   95 type  2   force =     0.00000952   -0.00000641   -0.00008982
     atom   96 type  2   force =    -0.00010366    0.00012458   -0.00070667
     atom   97 type  2   force =     0.00000070   -0.00000381    0.00156899
     atom   98 type  2   force =     0.00000272    0.00000315    0.00010753
     atom   99 type  2   force =    -0.00000236    0.00001210    0.00099308
     atom  100 type  1   force =    -0.00040310   -0.00021299    0.00048658
     atom  101 type  1   force =    -0.00000620    0.00000310    0.00190843
     atom  102 type  1   force =     0.00000895   -0.00002837   -0.00002452
     atom  103 type  2   force =     0.00000373    0.00000053   -0.00335896
     atom  104 type  2   force =     0.00000734    0.00000811   -0.00008952
     atom  105 type  2   force =    -0.00000477   -0.00022466   -0.00021738
     atom  106 type  2   force =     0.00000910   -0.00000479    0.00156606
     atom  107 type  2   force =    -0.00001962    0.00000704    0.00008111
     atom  108 type  2   force =     0.00008575   -0.00028244    0.00008895
     atom  109 type  1   force =     0.00010924   -0.00014134    0.00041131
     atom  110 type  1   force =    -0.00000541    0.00000418    0.00191222
     atom  111 type  1   force =     0.00003491    0.00003320   -0.00005738
     atom  112 type  2   force =     0.00000194    0.00000106   -0.00336047
     atom  113 type  2   force =     0.00000363   -0.00000804   -0.00009269
     atom  114 type  2   force =     0.00011544    0.00017154   -0.00024718
     atom  115 type  2   force =    -0.00000086    0.00000101    0.00157661
     atom  116 type  2   force =    -0.00000939    0.00000060    0.00008508
     atom  117 type  2   force =     0.00025347    0.00034416   -0.00013422
     atom  118 type  1   force =     0.00244419   -0.00195188   -0.00123800
     atom  119 type  1   force =     0.00000990   -0.00000848    0.00190856
     atom  120 type  1   force =     0.00000162   -0.00005964   -0.00000042
     atom  121 type  2   force =     0.00000456   -0.00000370   -0.00336396
     atom  122 type  2   force =    -0.00000665    0.00000684   -0.00008416
     atom  123 type  2   force =     0.00039966   -0.00090425   -0.00105128
     atom  124 type  2   force =     0.00000531    0.00000236    0.00158391
     atom  125 type  2   force =    -0.00002275    0.00000253    0.00010035
     atom  126 type  2   force =    -0.00131602    0.00040666   -0.00207323
     atom  127 type  1   force =    -0.00083907   -0.00021605   -0.02113952
     atom  128 type  1   force =    -0.00000054   -0.00000478    0.00190421
     atom  129 type  1   force =     0.00001045    0.00000733   -0.00002804
     atom  130 type  2   force =     0.00000034   -0.00000025   -0.00336588
     atom  131 type  2   force =    -0.00000232   -0.00000703   -0.00009000
     atom  132 type  2   force =    -0.00002070    0.00036864    0.00231900
     atom  133 type  2   force =    -0.00000257   -0.00000870    0.00157370
     atom  134 type  2   force =     0.00000406   -0.00000617    0.00011336
     atom  135 type  2   force =    -0.00945567   -0.00628632    0.00987555
     atom  136 type  1   force =    -0.00072990    0.00238521   -0.00079174
     atom  137 type  1   force =    -0.00000966    0.00000719    0.00190785
     atom  138 type  1   force =    -0.00003082    0.00002197    0.00000689
     atom  139 type  2   force =    -0.00000232    0.00000152   -0.00336399
     atom  140 type  2   force =     0.00000473   -0.00000096   -0.00006930
     atom  141 type  2   force =    -0.00034162    0.00007507   -0.00135002
     atom  142 type  2   force =    -0.00000534   -0.00000806    0.00156551
[...]
     atom   71 type  2   force =     0.00000350    0.00001302    0.00001403
     atom   72 type  2   force =    -0.00015263   -0.00009968   -0.00028568
     atom   73 type  1   force =     0.00002363   -0.00011431   -0.00031071
     atom   74 type  1   force =    -0.00000220   -0.00000101    0.00190432
     atom   75 type  1   force =     0.00000988    0.00000007   -0.00000119
     atom   76 type  2   force =    -0.00000081   -0.00000062   -0.00328086
     atom   77 type  2   force =     0.00001241   -0.00000028    0.00001133
     atom   78 type  2   force =    -0.00016745   -0.00011001    0.00008671
     atom   79 type  2   force =    -0.00000702    0.00000033    0.00150268
     atom   80 type  2   force =     0.00001419    0.00001680    0.00001623
     atom   81 type  2   force =     0.00007238   -0.00001188   -0.00004287
     atom   82 type  1   force =     0.00013687    0.00034509   -0.00009777
     atom   83 type  1   force =    -0.00000229   -0.00000102    0.00189628
     atom   84 type  1   force =    -0.00000808   -0.00000747    0.00001002
     atom   85 type  2   force =    -0.00000061   -0.00000067   -0.00328081
     atom   86 type  2   force =    -0.00001050   -0.00000412   -0.00000094
     atom   87 type  2   force =    -0.00000853    0.00016592   -0.00017656
     atom   88 type  2   force =     0.00000144    0.00000304    0.00150227
     atom   89 type  2   force =     0.00001902   -0.00000438   -0.00000053
     atom   90 type  2   force =    -0.00029281   -0.00009246   -0.00020205
     atom   91 type  1   force =     0.00073484   -0.00031111    0.00025714
     atom   92 type  1   force =    -0.00000214   -0.00000279    0.00189517
     atom   93 type  1   force =    -0.00000095    0.00000946    0.00002512
     atom   94 type  2   force =    -0.00000080   -0.00000049   -0.00328049
     atom   95 type  2   force =    -0.00004429   -0.00000388    0.00002573
     atom   96 type  2   force =     0.00004182   -0.00011819    0.00006623
     atom   97 type  2   force =     0.00000066   -0.00000711    0.00151194
     atom   98 type  2   force =     0.00000864   -0.00000410    0.00005626
     atom   99 type  2   force =     0.00042600   -0.00008143   -0.00005357
     atom  100 type  1   force =     0.00005476   -0.00010750   -0.00009566
     atom  101 type  1   force =    -0.00000108   -0.00000233    0.00190050
     atom  102 type  1   force =    -0.00000370    0.00001414   -0.00000192
     atom  103 type  2   force =    -0.00000059   -0.00000019   -0.00328035
     atom  104 type  2   force =    -0.00001650   -0.00000047    0.00002625
     atom  105 type  2   force =     0.00012804    0.00007130    0.00012761
     atom  106 type  2   force =     0.00000230   -0.00000228    0.00150064
     atom  107 type  2   force =    -0.00001091    0.00002131    0.00002095
     atom  108 type  2   force =     0.00005996    0.00005868    0.00000275
     atom  109 type  1   force =    -0.00003617    0.00002089   -0.00004186
     atom  110 type  1   force =     0.00000050    0.00000056    0.00190491
     atom  111 type  1   force =     0.00000536   -0.00000225   -0.00000755
     atom  112 type  2   force =    -0.00000056   -0.00000038   -0.00328039
     atom  113 type  2   force =    -0.00000767   -0.00001239   -0.00002105
     atom  114 type  2   force =     0.00000460   -0.00014750   -0.00000164
     atom  115 type  2   force =     0.00000011   -0.00000064    0.00151655
     atom  116 type  2   force =     0.00001378    0.00000694   -0.00003152
     atom  117 type  2   force =    -0.00017159    0.00000230   -0.00005737
     atom  118 type  1   force =    -0.00020808    0.00034254    0.00018351
     atom  119 type  1   force =    -0.00000043    0.00000029    0.00190041
     atom  120 type  1   force =    -0.00000414   -0.00000087   -0.00000370
     atom  121 type  2   force =    -0.00000042   -0.00000056   -0.00328044
     atom  122 type  2   force =     0.00000212   -0.00001043   -0.00002213
     atom  123 type  2   force =     0.00002423   -0.00034820   -0.00046751
     atom  124 type  2   force =    -0.00000151    0.00000494    0.00151721
     atom  125 type  2   force =     0.00000385    0.00000808   -0.00002705
     atom  126 type  2   force =    -0.00007058   -0.00018010   -0.00051179
     atom  127 type  1   force =     0.00027949    0.00029517   -0.00033334
     atom  128 type  1   force =    -0.00000165   -0.00000130    0.00189694
     atom  129 type  1   force =    -0.00001136   -0.00000604   -0.00001020
     atom  130 type  2   force =    -0.00000068   -0.00000045   -0.00328066
     atom  131 type  2   force =    -0.00001731    0.00002038   -0.00001313
     atom  132 type  2   force =    -0.00004186    0.00037320    0.00027483
     atom  133 type  2   force =    -0.00000501   -0.00000487    0.00150208
     atom  134 type  2   force =    -0.00000162   -0.00000086   -0.00001581
     atom  135 type  2   force =    -0.00055195   -0.00066838   -0.00053660
     atom  136 type  1   force =     0.00020212   -0.00014349    0.00023612
     atom  137 type  1   force =    -0.00000132   -0.00000091    0.00189855
     atom  138 type  1   force =    -0.00000525   -0.00000411    0.00002731
     atom  139 type  2   force =    -0.00000088   -0.00000013   -0.00328020
     atom  140 type  2   force =    -0.00001084   -0.00000907   -0.00000832
     atom  141 type  2   force =    -0.00023093   -0.00001811   -0.00010296
     atom  142 type  2   force =    -0.00000077   -0.00001082    0.00150174
     atom  143 type  2   force =     0.00000405   -0.00001040   -0.00002874
     atom  144 type  2   force =    -0.00001955   -0.00018762   -0.00012563
     atom  145 type  3   force =    -0.00031674   -0.00015366    0.00006278
     atom  146 type  4   force =    -0.00041417    0.00091110    0.00006017
     atom  147 type  4   force =    -0.00068025   -0.00053404    0.00038779

     Total force =     0.002980     Total SCF correction =     0.000259
     Energy error            =      1.3E-05 Ry
     Gradient error          =      9.1E-04 Ry/Bohr

     bfgs converged in  21 scf cycles and  20 bfgs steps
     (criteria: energy <  1.0E-04 Ry, force <  1.0E-03 Ry/Bohr)

     End of BFGS Geometry Optimization

     Final energy             =  -26543.7707367079 Ry

     File ./outdir/pwscf.bfgs deleted, as requested
Begin final coordinates

ATOMIC_POSITIONS (angstrom)
Mo               1.5770542509        2.7240197599        6.0966016704
Mo               1.5769197498        0.9104407117       -6.0872367793    0   0   0
Mo               0.0003460690        1.8209797132        0.0001009585
S                0.0000044503        0.0000077495       -7.6506323570    0   0   0
S                1.5770827772        0.9105585623       -1.5655410223
S                0.0103163338        1.8279241102        4.5119296646
S                0.0000053241        0.0000068460       -4.5222282367    0   0   0
S                1.5766686526        0.9085788413        1.5669738344
S               -0.0102099395        1.8205647283        7.6547520049
Mo              -0.0056362244        5.4647581886        6.0969812329
Mo               0.0000011799        3.6417399547       -6.0872367793    0   0   0
Mo              -1.5766020851        4.5523470008        0.0001977915
S               -1.5769141197        2.7313069925       -7.6506323570    0   0   0
S                0.0002574015        3.6417493008       -1.5653101712
S               -1.5658736186        4.5569229113        4.5134322926
S               -1.5769132459        2.7313060890       -4.5222282367    0   0   0
S                0.0011037513        3.6423311705        1.5677518606
S               -1.5709780521        4.5355855470        7.6610540236
Mo              -1.5648885399        8.1947125591        6.0831403349
Mo              -1.5769173901        6.3730391977       -6.0872367793    0   0   0
Mo              -3.1542241114        7.2832234137       -0.0011140860
S               -3.1538326896        5.4626062355       -7.6506323570    0   0   0
S               -1.5770268377        6.3725142549       -1.5660843904
S               -3.1688434921        7.2885831564        4.5496286689
S               -3.1538318159        5.4626053320       -4.5222282367    0   0   0
S               -1.5779278635        6.3738429235        1.5667678619
S               -3.0723167748        7.2392448551        7.6901552215
Mo               3.1560697519        0.0019997271        6.0852308818
Mo              -3.1538359601        9.1043384407       -6.0872367793    0   0   0
Mo              -4.7308647266       10.0142054836       -0.0010450485
S               -4.7307512596        8.1939054785       -7.6506323570    0   0   0
S               -3.1538263135        9.1041495776       -1.5666017874
S               -4.7298015436        9.9920769676        4.5449489303
S               -4.7307503859        8.1939045750       -4.5222282367    0   0   0
S               -3.1539509451        9.1038015260        1.5660332211
S               -4.7321673195       10.0970438362        7.7027502101
Mo               4.7312530971        2.6871933519        6.0664839493
Mo               4.7307503218        0.9104407117       -6.0872367793    0   0   0
Mo               3.1538040306        1.8205420177        0.0005906148
S                3.1538350223        0.0000077495       -7.6506323570    0   0   0
S                4.7306499308        0.9108039653       -1.5655232506
S                3.1391465363        1.8080576335        4.5062996553
S                3.1538358961        0.0000068460       -4.5222282367    0   0   0
S                4.7309608454        0.9096446543        1.5669197392
S                3.1598030181        1.8131508408        7.6530092517
Mo               3.1552161997        5.4637712012        6.1265649933
Mo               3.1538317519        3.6417399547       -6.0872367793    0   0   0
Mo               1.5772955588        4.5520904491       -0.0000959123
S                1.5769164523        2.7313069925       -7.6506323570    0   0   0
S                3.1543553161        3.6413652061       -1.5649230384
S                1.5985679578        4.5649831049        4.5621362990
S                1.5769173261        2.7313060890       -4.5222282367    0   0   0
S                3.1536678065        3.6416309408        1.5683125231
S                1.4984307105        4.5103807405        7.7376959992
Mo               1.5580839014        8.2080122819        6.0706370468
Mo               1.5769131819        6.3730391977       -6.0872367793    0   0   0
Mo              -0.0001920445        7.2831188464       -0.0007250987
S               -0.0000021176        5.4626062355       -7.6506323570    0   0   0
S                1.5772023318        6.3726980713       -1.5658475281
S               -0.0079569609        7.2748806958        4.5093861700
S               -0.0000012439        5.4626053320       -4.5222282367    0   0   0
S                1.5765121043        6.3727978345        1.5669012027
S                0.0078106752        7.2917796131        7.6534782067
Mo               6.3113537561       -0.0026466106        6.0599632543
Mo              -0.0000053881        9.1043384407       -6.0872367793    0   0   0
Mo              -1.5769037726       10.0145398705       -0.0009706672
S               -1.5769206876        8.1939054785       -7.6506323570    0   0   0
S                0.0001311863        9.1040129257       -1.5663653251
S               -1.5845807695       10.0094697616        4.5066673341
S               -1.5769198139        8.1939045750       -4.5222282367    0   0   0
S               -0.0001805275        9.1039231624        1.5659681207
S               -1.5674852948       10.0170024143        7.6422197565
Mo               7.8904464373        2.7290978604        6.0802672014
Mo               7.8845808939        0.9104407117       -6.0872367793    0   0   0
Mo               6.3076669287        1.8209490908        0.0001113595
S                6.3076655943        0.0000077495       -7.6506323570    0   0   0
S                7.8843905186        0.9104154322       -1.5660232833
S                6.3190032880        1.8170696512        4.4928571008
S                6.3076664681        0.0000068460       -4.5222282367    0   0   0
S                7.8853949842        0.9099857714        1.5654359429
S                6.3181996093        1.7958642076        7.6357870424
Mo               6.3238389975        5.4440690439        6.0888460815
Mo               6.3076623239        3.6417399547       -6.0872367793    0   0   0
Mo               4.7307378537        4.5522072077        0.0009897897
S                4.7307470244        2.7313069925       -7.6506323570    0   0   0
S                6.3073771132        3.6418679454       -1.5649122116
S                4.7165914272        4.5557733298        4.5565665425
S                4.7307478981        2.7313060890       -4.5222282367    0   0   0
S                6.3075691887        3.6421403432        1.5681464448
S                4.8189659070        4.4147470357        7.6885677753
Mo               4.7041432532        8.2322106732        6.0700316387
Mo               4.7307437539        6.3730391977       -6.0872367793    0   0   0
Mo               3.1540962719        7.2828153341        0.0000902815
S                3.1538284544        5.4626062355       -7.6506323570    0   0   0
S                4.7309102945        6.3724077948       -1.5651964132
S                3.1417493070        7.2616840681        4.5386231412
S                3.1538293281        5.4626053320       -4.5222282367    0   0   0
S                4.7313926685        6.3733728231        1.5685773939
S                3.1303479825        7.4213290819        7.6977384730
Mo               9.4588844025        0.0093571136        6.0632518658
Mo               3.1538251839        9.1043384407       -6.0872367793    0   0   0
Mo               1.5772092897       10.0141819739       -0.0008425466
S                1.5769098844        8.1939054785       -7.6506323570    0   0   0
S                3.1543135798        9.1036494899       -1.5657319337
S                1.5770095724       10.0155214097        4.4910302883
S                1.5769107581        8.1939045750       -4.5222282367    0   0   0
S                3.1540889992        9.1033773411        1.5669339852
S                1.5714263629       10.0316144760        7.6342744682
Mo              -1.5722152245        2.7328918421        6.0762018648
Mo              11.0384114659        0.9104407117       -6.0872367793    0   0   0
Mo               9.4617825932        1.8211377426       -0.0011477903
S                9.4614961663        0.0000077495       -7.6506323570    0   0   0
S               11.0389958878        0.9105261408       -1.5658576505
S                9.4636545116        1.8326976867        4.5040363427
S                9.4614970401        0.0000068460       -4.5222282367    0   0   0
S               11.0383202471        0.9110273775        1.5661517434
S                9.4650825571        1.8169799315        7.6424717702
Mo              -3.1367754583        5.4474565963        6.0907834377
Mo               9.4614928959        3.6417399547       -6.0872367793    0   0   0
Mo               7.8844947013        4.5523329841        0.0001558938
S                7.8845775964        2.7313069925       -7.6506323570    0   0   0
S                9.4616272386        3.6423467221       -1.5656443209
S                7.8935428037        4.5553246432        4.5243029709
S                7.8845784701        2.7313060890       -4.5222282367    0   0   0
S                9.4616684405        3.6418837302        1.5667103300
S                7.9317585585        4.5327973287        7.6887185073
Mo              -4.7280856512        8.2013676335        6.1281211751
Mo               7.8845743259        6.3730391977       -6.0872367793    0   0   0
Mo               6.3076924025        7.2832277223       -0.0000966391
S                6.3076590264        5.4626062355       -7.6506323570    0   0   0
S                7.8841249921        6.3725230698       -1.5659803847
S                6.3170200305        7.2916378574        4.5566320920
S                6.3076599001        5.4626053320       -4.5222282367    0   0   0
S                7.8846809037        6.3733648807        1.5672759352
S                6.2038322187        7.2983502794        7.6566159624
Mo              -0.0039829708        0.0124039265        6.0795705671
Mo               6.3076557559        9.1043384407       -6.0872367793    0   0   0
Mo               4.7309343699       10.0146681735       -0.0002410197
S                4.7307404564        8.1939054785       -7.6506323570    0   0   0
S                6.3073293425        9.1039362582       -1.5659908269
S                4.7327168493       10.0342239497        4.4920978904
S                4.7307413301        8.1939045750       -4.5222282367    0   0   0
S                6.3080076287        9.1040113784        1.5669573832
S                4.7227391015       10.0452931979        7.6393046024
Pt               3.2915341687        5.4910755424        8.9368527511
Pd               6.2098238220        5.5659903782        9.2026176250
Pd              -4.7968278147        8.0941123417        9.0399755261
End final coordinates



     Writing all to output data dir ./outdir/pwscf.save/ :
     XML data file, charge density, pseudopotentials, collected wavefunctions
 
     init_run     :     96.27s CPU     98.41s WALL (       1 calls)
     electrons    :  85280.41s CPU  86552.51s WALL (      21 calls)
     update_pot   :     26.40s CPU     27.19s WALL (      20 calls)
     forces       :   1495.76s CPU   1527.71s WALL (      21 calls)
     force_dftd3  :      8.03s CPU      8.37s WALL (      21 calls)

     Called by init_run:
     wfcinit      :     78.21s CPU     79.24s WALL (       1 calls)
     potinit      :      1.10s CPU      1.19s WALL (       1 calls)
     hinit0       :      9.26s CPU      9.32s WALL (       1 calls)

     Called by electrons:
     c_bands      :  74378.34s CPU  75146.25s WALL (     254 calls)
     sum_band     :   9384.22s CPU   9643.68s WALL (     254 calls)
     v_of_rho     :     72.94s CPU     81.74s WALL (     257 calls)
     newd         :   1284.99s CPU   1526.20s WALL (     257 calls)
     PAW_pot      :    209.27s CPU    210.94s WALL (     277 calls)
     mix_rho      :     18.61s CPU     21.28s WALL (     254 calls)
     energy_dftd3 :      4.60s CPU      4.62s WALL (      21 calls)

     Called by c_bands:
     init_us_2    :    359.29s CPU    361.07s WALL (    2200 calls)
     init_us_2:cp :    359.28s CPU    361.06s WALL (    2200 calls)
     cegterg      :  72897.49s CPU  73658.55s WALL (    1030 calls)

     Called by *egterg:
     cdiaghg      :   3829.15s CPU   4001.26s WALL (   12282 calls)
     h_psi        :  37973.65s CPU  38217.35s WALL (   12442 calls)
     s_psi        :   7990.59s CPU   8024.43s WALL (   12442 calls)
     g_psi        :     85.30s CPU     85.66s WALL (   11408 calls)

     Called by h_psi:
     h_psi:calbec :   7705.86s CPU   7732.08s WALL (   12442 calls)
     vloc_psi     :  22053.66s CPU  22172.51s WALL (   12442 calls)
     add_vuspsi   :   8029.53s CPU   8068.13s WALL (   12442 calls)

     General routines
     calbec       :  11025.91s CPU  11063.00s WALL (   13874 calls)
     fft          :     59.05s CPU     67.15s WALL (    3568 calls)
     ffts         :      3.26s CPU      3.37s WALL (     511 calls)
     fftw         :  16377.83s CPU  16466.97s WALL ( 5763728 calls)
     interpolate  :      6.09s CPU      6.70s WALL (     257 calls)
 
     Parallel routines
 
     PWSCF        :   1d 0h16m CPU   1d 0h39m WALL

 
   This run was terminated on:   8:13: 2   3Apr2024            

=------------------------------------------------------------------------------=
   JOB DONE.
=------------------------------------------------------------------------------=
