
     Program PWSCF v.7.3 starts on 11Mar2024 at 15:26:39 

     This program is part of the open-source Quantum ESPRESSO suite
     for quantum simulation of materials; please cite
         "P. Giannozzi et al., J. Phys.:Condens. Matter 21 395502 (2009);
         "P. Giannozzi et al., J. Phys.:Condens. Matter 29 465901 (2017);
         "P. Giannozzi et al., J. Chem. Phys. 152 154105 (2020);
          URL http://www.quantum-espresso.org", 
     in publications or presentations arising from this work. More details at
     http://www.quantum-espresso.org/quote

     Parallel version (MPI & OpenMP), running on      36 processor cores
     Number of MPI processes:                36
     Threads/MPI process:                     1

     MPI processes distributed on     1 nodes
     557419 MiB available memory on the printing compute node when the environment starts
 
     Waiting for input...
     Reading input from standard input
Warning: card &CELL ignored
Warning: card / ignored

     Current dimensions of program PWSCF are:
     Max number of different atomic species (ntypx) = 10
     Max number of k-points (npk) =  40000
     Max angular momentum in pseudopotentials (lmaxx) =  4
     file Mo.pbe-spn-kjpaw_psl.1.0.0.UPF: wavefunction(s)  4S 4D renormalized
     file S.pbe-n-kjpaw_psl.1.0.0.UPF: wavefunction(s)  3S 3P renormalized
     file Pd.pbe-spn-kjpaw_psl.1.0.0.UPF: wavefunction(s)  4S 5S 4D renormalized
     file Pt.pbe-spfn-kjpaw_psl.1.0.0.UPF: wavefunction(s)  5P 4F renormalized
 
     R & G space division:  proc/nbgrp/npool/nimage =      36
     Subspace diagonalization in iterative solution of the eigenvalue problem:
     one sub-group per band group will be used
     scalapack distributed-memory algorithm (size of sub-group:  6*  6 procs)

 
     Parallelization info
     --------------------
     sticks:   dense  smooth     PW     G-vecs:    dense   smooth      PW
     Min         586     335     89               165416    71459    9765
     Max         587     337     90               165425    71461    9778
     Sum       21109   12085   3205              5955087  2572543  351657
 
     Using Slab Decomposition
 


     bravais-lattice index     =            0
     lattice parameter (alat)  =      23.8395  a.u.
     unit-cell volume          =   28182.8498 (a.u.)^3
     number of atoms/cell      =          146
     number of atomic types    =            4
     number of electrons       =      1298.00
     number of Kohn-Sham states=          779
     kinetic-energy cutoff     =      77.0000  Ry
     charge density cutoff     =     539.0000  Ry
     scf convergence threshold =      1.0E-06
     mixing beta               =       0.2000
     number of iterations used =            8  plain     mixing
     energy convergence thresh.=      1.0E-04
     force convergence thresh. =      1.0E-03
     Exchange-correlation= SLA  PW   PBX  PBC
                           (   1   4   3   4   0   0   0)
     nstep                     =         1000


     Effective Screening Medium Method
     =================================
     Boundary Conditions: Vacuum-Slab-Vacuum
     total charge in unit cell        =   0.0000
     grid points for fit at edges     =        4 
 

     celldm(1)=  23.839504  celldm(2)=   0.000000  celldm(3)=   0.000000
     celldm(4)=   0.000000  celldm(5)=   0.000000  celldm(6)=   0.000000

     crystal axes: (cart. coord. in units of alat)
               a(1) = (   1.000000   0.000000   0.000000 )  
               a(2) = (  -0.500001   0.866026   0.000000 )  
               a(3) = (   0.000000   0.000000   2.401941 )  

     reciprocal axes: (cart. coord. in units 2 pi/alat)
               b(1) = (  1.000000  0.577351  0.000000 )  
               b(2) = (  0.000000  1.154700  0.000000 )  
               b(3) = (  0.000000  0.000000  0.416330 )  


     PseudoPot. # 1 for Mo read from file:
     ./pseudo/Mo.pbe-spn-kjpaw_psl.1.0.0.UPF
     MD5 check sum: 317bf72632116215fd98f72de1686f13
     Pseudo is Projector augmented-wave + core cor, Zval = 14.0
     Generated using 'atomic' code by A. Dal Corso  v.7.2
     Shape of augmentation charge: PSQ
     Using radial grid of 1229 points,  6 beta functions with: 
                l(1) =   0
                l(2) =   0
                l(3) =   1
                l(4) =   1
                l(5) =   2
                l(6) =   2
     Q(r) pseudized with 0 coefficients 


     PseudoPot. # 2 for S  read from file:
     ./pseudo/S.pbe-n-kjpaw_psl.1.0.0.UPF
     MD5 check sum: 8b7b5302570d38d5e87fed6a1065abda
     Pseudo is Projector augmented-wave + core cor, Zval =  6.0
     Generated using 'atomic' code by A. Dal Corso  v.7.2
     Shape of augmentation charge: PSQ
     Using radial grid of 1151 points,  6 beta functions with: 
                l(1) =   0
                l(2) =   0
                l(3) =   1
                l(4) =   1
                l(5) =   2
                l(6) =   2
     Q(r) pseudized with 0 coefficients 


     PseudoPot. # 3 for Pd read from file:
     ./pseudo/Pd.pbe-spn-kjpaw_psl.1.0.0.UPF
     MD5 check sum: a60571a671f2502b8a6a4569d20a6edb
     Pseudo is Projector augmented-wave + core cor, Zval = 18.0
     Generated using 'atomic' code by A. Dal Corso  v.7.2
     Shape of augmentation charge: PSQ
     Using radial grid of 1235 points,  6 beta functions with: 
                l(1) =   0
                l(2) =   0
                l(3) =   1
                l(4) =   1
                l(5) =   2
                l(6) =   2
     Q(r) pseudized with 0 coefficients 


     PseudoPot. # 4 for Pt read from file:
     ./pseudo/Pt.pbe-spfn-kjpaw_psl.1.0.0.UPF
     MD5 check sum: 620096ebf4e6ebacc94de60fd67efcb5
     Pseudo is Projector augmented-wave + core cor, Zval = 32.0
     Generated using 'atomic' code by A. Dal Corso  v.7.2
     Shape of augmentation charge: PSQ
     Using radial grid of 1277 points,  8 beta functions with: 
                l(1) =   0
                l(2) =   0
                l(3) =   1
                l(4) =   1
                l(5) =   2
                l(6) =   2
                l(7) =   3
                l(8) =   3
     Q(r) pseudized with 0 coefficients 


     atomic species   valence    mass     pseudopotential
     Mo               14.00    95.95000     Mo( 1.00)
     S                 6.00    32.06000     S ( 1.00)
     Pd               18.00   106.42000     Pd( 1.00)
     Pt               32.00   195.08400     Pt( 1.00)

     No symmetry found



   Cartesian axes

     site n.     atom                  positions (alat units)
         1        Mo     tau(   1) = (   0.1244805   0.2154429   0.4826124  )
         2        Mo     tau(   2) = (   0.1250004   0.0721694  -0.4825273  )
         3        Mo     tau(   3) = (   0.0000154   0.1443583  -0.0000534  )
         4        S      tau(   4) = (   0.0000004   0.0000006  -0.6064556  )
         5        S      tau(   5) = (   0.1249822   0.0722030  -0.1241916  )
         6        S      tau(   6) = (   0.0001873   0.1444894   0.3573292  )
         7        S      tau(   7) = (   0.0000004   0.0000005  -0.3584711  )
         8        S      tau(   8) = (   0.1250220   0.0721432   0.1241096  )
         9        S      tau(   9) = (  -0.0009222   0.1433430   0.6062350  )
        10        Mo     tau(  10) = (  -0.0011812   0.4330952   0.4826123  )
        11        Mo     tau(  11) = (   0.0000001   0.2886759  -0.4825273  )
        12        Mo     tau(  12) = (  -0.1249761   0.3608493  -0.0000533  )
        13        S      tau(  13) = (  -0.1249999   0.2165071  -0.6064556  )
        14        S      tau(  14) = (   0.0000232   0.2886904  -0.1241345  )
        15        S      tau(  15) = (  -0.1247753   0.3609305   0.3573291  )
        16        S      tau(  16) = (  -0.1249998   0.2165070  -0.3584711  )
        17        S      tau(  17) = (   0.0000901   0.2887289   0.1242236  )
        18        S      tau(  18) = (  -0.1263226   0.3605428   0.6062351  )
        19        Mo     tau(  19) = (  -0.1251400   0.6495983   0.4819363  )
        20        Mo     tau(  20) = (  -0.1250002   0.5051824  -0.4825273  )
        21        Mo     tau(  21) = (  -0.2500026   0.5773383  -0.0001491  )
        22        S      tau(  22) = (  -0.2500002   0.4330136  -0.6064556  )
        23        S      tau(  23) = (  -0.1249812   0.5051509  -0.1241919  )
        24        S      tau(  24) = (  -0.2500015   0.5775831   0.3575295  )
        25        S      tau(  25) = (  -0.2500001   0.4330135  -0.3584711  )
        26        S      tau(  26) = (  -0.1250129   0.5052153   0.1241101  )
        27        S      tau(  27) = (  -0.2500018   0.5771934   0.6060379  )
        28        Mo     tau(  28) = (   0.2499987  -0.0001601   0.4819365  )
        29        Mo     tau(  29) = (  -0.2500004   0.7216889  -0.4825273  )
        30        Mo     tau(  30) = (  -0.3750135   0.7938631  -0.0001491  )
        31        S      tau(  31) = (  -0.3750004   0.6495201  -0.6064556  )
        32        S      tau(  32) = (  -0.2500026   0.7216883  -0.1242347  )
        33        S      tau(  33) = (  -0.3747997   0.7937400   0.3575295  )
        34        S      tau(  34) = (  -0.3750004   0.6495200  -0.3584711  )
        35        S      tau(  35) = (  -0.2500029   0.7216883   0.1240299  )
        36        S      tau(  36) = (  -0.3751376   0.7939346   0.6060379  )
        37        Mo     tau(  37) = (   0.3755166   0.2154425   0.4826119  )
        38        Mo     tau(  38) = (   0.3750004   0.0721694  -0.4825273  )
        39        Mo     tau(  39) = (   0.2499990   0.1443474  -0.0000968  )
        40        S      tau(  40) = (   0.2500004   0.0000006  -0.6064556  )
        41        S      tau(  41) = (   0.3750152   0.0722028  -0.1241921  )
        42        S      tau(  42) = (   0.2499983   0.1443201   0.3580593  )
        43        S      tau(  43) = (   0.2500004   0.0000005  -0.3584711  )
        44        S      tau(  44) = (   0.3749754   0.0721432   0.1241106  )
        45        S      tau(  45) = (   0.2499987   0.1437775   0.6065499  )
        46        Mo     tau(  46) = (   0.2499984   0.4330123   0.4872880  )
        47        Mo     tau(  47) = (   0.2500001   0.2886759  -0.4825273  )
        48        Mo     tau(  48) = (   0.1250277   0.3608616  -0.0000572  )
        49        S      tau(  49) = (   0.1250001   0.2165071  -0.6064556  )
        50        S      tau(  50) = (   0.2499987   0.2886898  -0.1241693  )
        51        S      tau(  51) = (   0.1266397   0.3617911   0.3615924  )
        52        S      tau(  52) = (   0.1250002   0.2165070  -0.3584711  )
        53        S      tau(  53) = (   0.2499988   0.2886671   0.1241958  )
        54        S      tau(  54) = (   0.1173054   0.3564020   0.6108885  )
        55        Mo     tau(  55) = (   0.1243363   0.6504991   0.4826116  )
        56        Mo     tau(  56) = (   0.1249998   0.5051824  -0.4825273  )
        57        Mo     tau(  57) = (   0.0000060   0.5773464  -0.0000969  )
        58        S      tau(  58) = (  -0.0000002   0.4330136  -0.6064556  )
        59        S      tau(  59) = (   0.1250101   0.5051751  -0.1241696  )
        60        S      tau(  60) = (  -0.0000165   0.5773581   0.3580590  )
        61        S      tau(  61) = (  -0.0000001   0.4330135  -0.3584711  )
        62        S      tau(  62) = (   0.1249907   0.5051868   0.1241956  )
        63        S      tau(  63) = (  -0.0004863   0.5776299   0.6065497  )
        64        Mo     tau(  64) = (   0.5000682   0.0000393   0.4813064  )
        65        Mo     tau(  65) = (  -0.0000004   0.7216889  -0.4825273  )
        66        Mo     tau(  66) = (  -0.1249919   0.7938635  -0.0001489  )
        67        S      tau(  67) = (  -0.1250004   0.6495201  -0.6064556  )
        68        S      tau(  68) = (   0.0000350   0.7216859  -0.1241920  )
        69        S      tau(  69) = (  -0.1252051   0.7937392   0.3575294  )
        70        S      tau(  70) = (  -0.1250004   0.6495200  -0.3584711  )
        71        S      tau(  71) = (  -0.0000364   0.7216812   0.1241103  )
        72        S      tau(  72) = (  -0.1248667   0.7939344   0.6060378  )
        73        Mo     tau(  73) = (   0.6250985   0.2164481   0.4814760  )
        74        Mo     tau(  74) = (   0.6250004   0.0721694  -0.4825273  )
        75        Mo     tau(  75) = (   0.4999807   0.1443583  -0.0000532  )
        76        S      tau(  76) = (   0.5000004   0.0000006  -0.6064556  )
        77        S      tau(  77) = (   0.6249710   0.0721537  -0.1241599  )
        78        S      tau(  78) = (   0.4998101   0.1444887   0.3573287  )
        79        S      tau(  79) = (   0.5000004   0.0000005  -0.3584711  )
        80        S      tau(  80) = (   0.6250072   0.0721744   0.1241160  )
        81        S      tau(  81) = (   0.5009199   0.1433424   0.6062338  )
        82        Mo     tau(  82) = (   0.5011786   0.4330950   0.4826115  )
        83        Mo     tau(  83) = (   0.5000001   0.2886759  -0.4825273  )
        84        Mo     tau(  84) = (   0.3749686   0.3608615  -0.0000573  )
        85        S      tau(  85) = (   0.3750001   0.2165071  -0.6064556  )
        86        S      tau(  86) = (   0.4999725   0.2886900  -0.1241349  )
        87        S      tau(  87) = (   0.3733572   0.3617909   0.3615920  )
        88        S      tau(  88) = (   0.3750002   0.2165070  -0.3584711  )
        89        S      tau(  89) = (   0.4999057   0.2887288   0.1242238  )
        90        S      tau(  90) = (   0.3826919   0.3564018   0.6108876  )
        91        Mo     tau(  91) = (   0.3756598   0.6504996   0.4826113  )
        92        Mo     tau(  92) = (   0.3749998   0.5051824  -0.4825273  )
        93        Mo     tau(  93) = (   0.2499978   0.5773166  -0.0000576  )
        94        S      tau(  94) = (   0.2499998   0.4330136  -0.6064556  )
        95        S      tau(  95) = (   0.3749857   0.5051746  -0.1241697  )
        96        S      tau(  96) = (   0.2499981   0.5754545   0.3615919  )
        97        S      tau(  97) = (   0.2499999   0.4330135  -0.3584711  )
        98        S      tau(  98) = (   0.3750048   0.5051860   0.1241960  )
        99        S      tau(  99) = (   0.2499983   0.5862331   0.6108872  )
       100        Mo     tau( 100) = (   0.7499988   0.0001148   0.4814756  )
       101        Mo     tau( 101) = (   0.2499996   0.7216889  -0.4825273  )
       102        Mo     tau( 102) = (   0.1250062   0.7938321  -0.0000534  )
       103        S      tau( 103) = (   0.1249996   0.6495201  -0.6064556  )
       104        S      tau( 104) = (   0.2499971   0.7216593  -0.1241350  )
       105        S      tau( 105) = (   0.1250350   0.7936175   0.3573284  )
       106        S      tau( 106) = (   0.1249996   0.6495200  -0.3584711  )
       107        S      tau( 107) = (   0.2499972   0.7215818   0.1242234  )
       108        S      tau( 108) = (   0.1245975   0.7951515   0.6062336  )
       109        Mo     tau( 109) = (  -0.1251006   0.2164484   0.4814769  )
       110        Mo     tau( 110) = (   0.8750004   0.0721694  -0.4825273  )
       111        Mo     tau( 111) = (   0.7499976   0.1443379  -0.0001196  )
       112        S      tau( 112) = (   0.7500004   0.0000006  -0.6064556  )
       113        S      tau( 113) = (   0.8750246   0.0721533  -0.1241599  )
       114        S      tau( 114) = (   0.7499994   0.1443376   0.3572937  )
       115        S      tau( 115) = (   0.7500004   0.0000005  -0.3584711  )
       116        S      tau( 116) = (   0.8749884   0.0721739   0.1241157  )
       117        S      tau( 117) = (   0.7499987   0.1443370   0.6058240  )
       118        Mo     tau( 118) = (  -0.2500010   0.4329316   0.4813070  )
       119        Mo     tau( 119) = (   0.7500001   0.2886759  -0.4825273  )
       120        Mo     tau( 120) = (   0.6249710   0.3608493  -0.0000534  )
       121        S      tau( 121) = (   0.6250001   0.2165071  -0.6064556  )
       122        S      tau( 122) = (   0.7499973   0.2887067  -0.1241600  )
       123        S      tau( 123) = (   0.6247737   0.3609305   0.3573287  )
       124        S      tau( 124) = (   0.6250002   0.2165070  -0.3584711  )
       125        S      tau( 125) = (   0.7499971   0.2886649   0.1241160  )
       126        S      tau( 126) = (   0.6263203   0.3605423   0.6062340  )
       127        Mo     tau( 127) = (  -0.3748636   0.6495986   0.4819361  )
       128        Mo     tau( 128) = (   0.6249998   0.5051824  -0.4825273  )
       129        Mo     tau( 129) = (   0.4999891   0.5773453  -0.0000967  )
       130        S      tau( 130) = (   0.4999998   0.4330136  -0.6064556  )
       131        S      tau( 131) = (   0.6249761   0.5051506  -0.1241920  )
       132        S      tau( 132) = (   0.5000130   0.5773585   0.3580587  )
       133        S      tau( 133) = (   0.4999999   0.4330135  -0.3584711  )
       134        S      tau( 134) = (   0.6250081   0.5052147   0.1241104  )
       135        S      tau( 135) = (   0.5004826   0.5776298   0.6065487  )
       136        Mo     tau( 136) = (  -0.0000706   0.0000401   0.4813070  )
       137        Mo     tau( 137) = (   0.4999996   0.7216889  -0.4825273  )
       138        Mo     tau( 138) = (   0.3749881   0.7938314  -0.0000535  )
       139        S      tau( 139) = (   0.3749996   0.6495201  -0.6064556  )
       140        S      tau( 140) = (   0.4999594   0.7216844  -0.1241918  )
       141        S      tau( 141) = (   0.3749610   0.7936184   0.3573285  )
       142        S      tau( 142) = (   0.3749996   0.6495200  -0.3584711  )
       143        S      tau( 143) = (   0.5000310   0.7216802   0.1241101  )
       144        S      tau( 144) = (   0.3753979   0.7951517   0.6062337  )
       145        Pd     tau( 145) = (   0.2499985   0.4330123   0.7148096  )
       146        Pt     tau( 146) = (   0.6251129   0.2164828   0.7251499  )

     --------------------------------------------
     DFT-D3 Dispersion Correction (3-body terms):
     --------------------------------------------
       Reference C6 values for interpolation: 

         atom   Coordination number   C6
         S          0.000           268.01
         S          0.995           261.99
         S          1.990           251.62
         Mo         0.000          1691.79
         Mo         1.942          1004.01
         Mo        11.056           674.22
         Pd         0.000          1217.01
         Pd         1.863           573.90
         Pd         5.710           531.75
         Pt         0.000           782.29
         Pt         1.919           692.72
         Pt         6.667           673.75

       Values used:

         atom   Coordination number  R0_AB[au]  C6      C8
         Mo        10.173            3.547    674.22  77634.20
         Mo        10.189            3.547    674.22  77634.20
         Mo        10.201            3.547    674.22  77634.20
         S          3.753            3.128    251.62  12327.25
         S          3.858            3.128    251.62  12327.25
         S          3.848            3.128    251.62  12327.25
         S          3.859            3.128    251.62  12327.25
         S          3.860            3.128    251.62  12327.25
         S          3.799            3.128    251.62  12327.25
         Mo        10.173            3.547    674.22  77634.20
         Mo        10.189            3.547    674.22  77634.20
         Mo        10.201            3.547    674.22  77634.20
         S          3.753            3.128    251.62  12327.25
         S          3.859            3.128    251.62  12327.25
         S          3.848            3.128    251.62  12327.25
         S          3.858            3.128    251.62  12327.25
         S          3.855            3.128    251.62  12327.25
         S          3.811            3.128    251.62  12327.25
         Mo        10.209            3.547    674.22  77634.20
         Mo        10.189            3.547    674.22  77634.20
         Mo        10.200            3.547    674.22  77634.20
         S          3.753            3.128    251.62  12327.25
         S          3.858            3.128    251.62  12327.25
         S          3.862            3.128    251.62  12327.25
         S          3.859            3.128    251.62  12327.25
         S          3.860            3.128    251.62  12327.25
         S          3.760            3.128    251.62  12327.25
         Mo        10.209            3.547    674.22  77634.20
         Mo        10.189            3.547    674.22  77634.20
         Mo        10.200            3.547    674.22  77634.20
         S          3.753            3.128    251.62  12327.25
         S          3.858            3.128    251.62  12327.25
         S          3.862            3.128    251.62  12327.25
         S          3.859            3.128    251.62  12327.25
         S          3.862            3.128    251.62  12327.25
         S          3.759            3.128    251.62  12327.25
         Mo        10.183            3.547    674.22  77634.20
         Mo        10.189            3.547    674.22  77634.20
         Mo        10.202            3.547    674.22  77634.20
         S          3.753            3.128    251.62  12327.25
         S          3.858            3.128    251.62  12327.25
         S          3.857            3.128    251.62  12327.25
         S          3.859            3.128    251.62  12327.25
         S          3.860            3.128    251.62  12327.25
         S          3.752            3.128    251.62  12327.25
         Mo        10.810            3.547    674.22  77634.20
         Mo        10.189            3.547    674.22  77634.20
         Mo        10.202            3.547    674.22  77634.20
         S          3.753            3.128    251.62  12327.25
         S          3.859            3.128    251.62  12327.25
         S          3.866            3.128    251.62  12327.25
         S          3.859            3.128    251.62  12327.25
         S          3.853            3.128    251.62  12327.25
         S          4.646            3.128    251.62  12327.25
         Mo        10.173            3.547    674.22  77634.20
         Mo        10.189            3.547    674.22  77634.20
         Mo        10.202            3.547    674.22  77634.20
         S          3.753            3.128    251.62  12327.25
         S          3.859            3.128    251.62  12327.25
         S          3.857            3.128    251.62  12327.25
         S          3.859            3.128    251.62  12327.25
         S          3.853            3.128    251.62  12327.25
         S          3.751            3.128    251.62  12327.25
         Mo        10.233            3.547    674.22  77634.20
         Mo        10.189            3.547    674.22  77634.20
         Mo        10.200            3.547    674.22  77634.20
         S          3.753            3.128    251.62  12327.25
         S          3.858            3.128    251.62  12327.25
         S          3.862            3.128    251.62  12327.25
         S          3.859            3.128    251.62  12327.25
         S          3.860            3.128    251.62  12327.25
         S          3.760            3.128    251.62  12327.25
         Mo        10.806            3.547    674.22  77634.20
         Mo        10.189            3.547    674.22  77634.20
         Mo        10.201            3.547    674.22  77634.20
         S          3.753            3.128    251.62  12327.25
         S          3.858            3.128    251.62  12327.25
         S          3.849            3.128    251.62  12327.25
         S          3.859            3.128    251.62  12327.25
         S          3.860            3.128    251.62  12327.25
         S          4.765            3.128    251.62  12327.25
         Mo        10.183            3.547    674.22  77634.20
         Mo        10.189            3.547    674.22  77634.20
         Mo        10.202            3.547    674.22  77634.20
         S          3.753            3.128    251.62  12327.25
         S          3.859            3.128    251.62  12327.25
         S          3.866            3.128    251.62  12327.25
         S          3.859            3.128    251.62  12327.25
         S          3.855            3.128    251.62  12327.25
         S          4.663            3.128    251.62  12327.25
         Mo        10.173            3.547    674.22  77634.20
         Mo        10.189            3.547    674.22  77634.20
         Mo        10.202            3.547    674.22  77634.20
         S          3.753            3.128    251.62  12327.25
         S          3.859            3.128    251.62  12327.25
         S          3.866            3.128    251.62  12327.25
         S          3.859            3.128    251.62  12327.25
         S          3.853            3.128    251.62  12327.25
         S          4.646            3.128    251.62  12327.25
         Mo        10.223            3.547    674.22  77634.20
         Mo        10.189            3.547    674.22  77634.20
         Mo        10.201            3.547    674.22  77634.20
         S          3.753            3.128    251.62  12327.25
         S          3.859            3.128    251.62  12327.25
         S          3.848            3.128    251.62  12327.25
         S          3.859            3.128    251.62  12327.25
         S          3.855            3.128    251.62  12327.25
         S          3.811            3.128    251.62  12327.25
         Mo        10.223            3.547    674.22  77634.20
         Mo        10.189            3.547    674.22  77634.20
         Mo        10.199            3.547    674.22  77634.20
         S          3.753            3.128    251.62  12327.25
         S          3.858            3.128    251.62  12327.25
         S          3.856            3.128    251.62  12327.25
         S          3.858            3.128    251.62  12327.25
         S          3.860            3.128    251.62  12327.25
         S          4.743            3.128    251.62  12327.25
         Mo        10.233            3.547    674.22  77634.20
         Mo        10.189            3.547    674.22  77634.20
         Mo        10.201            3.547    674.22  77634.20
         S          3.753            3.128    251.62  12327.25
         S          3.858            3.128    251.62  12327.25
         S          3.849            3.128    251.62  12327.25
         S          3.858            3.128    251.62  12327.25
         S          3.860            3.128    251.62  12327.25
         S          4.765            3.128    251.62  12327.25
         Mo        10.209            3.547    674.22  77634.20
         Mo        10.189            3.547    674.22  77634.20
         Mo        10.202            3.547    674.22  77634.20
         S          3.753            3.128    251.62  12327.25
         S          3.859            3.128    251.62  12327.25
         S          3.857            3.128    251.62  12327.25
         S          3.859            3.128    251.62  12327.25
         S          3.860            3.128    251.62  12327.25
         S          3.752            3.128    251.62  12327.25
         Mo        10.223            3.547    674.22  77634.20
         Mo        10.189            3.547    674.22  77634.20
         Mo        10.201            3.547    674.22  77634.20
         S          3.753            3.128    251.62  12327.25
         S          3.858            3.128    251.62  12327.25
         S          3.848            3.128    251.62  12327.25
         S          3.859            3.128    251.62  12327.25
         S          3.860            3.128    251.62  12327.25
         S          3.799            3.128    251.62  12327.25
         Pd         3.772            3.168    556.87  51022.75
         Pt         3.617            3.168    692.72  72035.25

         Molecular C6 ( Ry / a.u.^6 ) =   7935762.85


     number of k points=     4  Gaussian smearing, width (Ry)=  0.0100
                       cart. coord. in units 2pi/alat
        k(    1) = (   0.0000000   0.0000000   0.0000000), wk =   0.5000000
        k(    2) = (   0.0000000  -0.5773499   0.0000000), wk =   0.5000000
        k(    3) = (  -0.5000000  -0.2886755   0.0000000), wk =   0.5000000
        k(    4) = (  -0.5000000  -0.8660254   0.0000000), wk =   0.5000000

     Dense  grid:  5955087 G-vectors     FFT dimensions: ( 180, 180, 432)

     Smooth grid:  2572543 G-vectors     FFT dimensions: ( 135, 135, 320)

     Estimated max dynamical RAM per process >       3.07 GB

     Estimated total dynamical RAM >     110.53 GB

     Initial potential from superposition of free atoms

     starting charge    1297.9541, renormalised to    1298.0000

     negative rho (up, down):  8.873E-04 0.000E+00
     Starting wfcs are  891 randomized atomic wfcs
     Checking if some PAW data can be deallocated... 

     total cpu time spent up to now is       99.0 secs

     Self-consistent Calculation

     iteration #  1     ecut=    77.00 Ry     beta= 0.20
     Davidson diagonalization with overlap
     ethr =  1.00E-02,  avg # of iterations =  2.0

     Threshold (ethr) on eigenvalues was too large:
     Diagonalizing with lowered threshold

     Davidson diagonalization with overlap
     ethr =  1.78E-04,  avg # of iterations = 14.0

     negative rho (up, down):  2.779E-04 0.000E+00

     total cpu time spent up to now is     1132.8 secs

     total energy              =  -26031.70571775 Ry
     estimated scf accuracy    <       5.01663884 Ry

     iteration #  2     ecut=    77.00 Ry     beta= 0.20
     Davidson diagonalization with overlap
     ethr =  3.86E-04,  avg # of iterations =  2.0

     negative rho (up, down):  4.093E-05 0.000E+00

     total cpu time spent up to now is     1351.1 secs

     total energy              =  -26030.69155372 Ry
     estimated scf accuracy    <       2.60510897 Ry

     iteration #  3     ecut=    77.00 Ry     beta= 0.20
     Davidson diagonalization with overlap
     ethr =  2.01E-04,  avg # of iterations = 12.2

     negative rho (up, down):  3.053E-05 0.000E+00

     total cpu time spent up to now is     1639.1 secs

     total energy              =  -26031.05060869 Ry
     estimated scf accuracy    <       0.67043996 Ry

     iteration #  4     ecut=    77.00 Ry     beta= 0.20
     Davidson diagonalization with overlap
     c_bands:  1 eigenvalues not converged
     c_bands:  3 eigenvalues not converged
     ethr =  5.17E-05,  avg # of iterations = 20.0

     negative rho (up, down):  3.512E-05 0.000E+00

     total cpu time spent up to now is     2258.5 secs

     total energy              =  -26031.60693807 Ry
     estimated scf accuracy    <       0.24273178 Ry

     iteration #  5     ecut=    77.00 Ry     beta= 0.20
     Davidson diagonalization with overlap
     c_bands:  3 eigenvalues not converged
     c_bands:  2 eigenvalues not converged
     c_bands:  2 eigenvalues not converged
     ethr =  1.87E-05,  avg # of iterations = 25.0

     negative rho (up, down):  7.525E-05 0.000E+00

     total cpu time spent up to now is     2763.9 secs

     total energy              =  -26031.71292911 Ry
     estimated scf accuracy    <       0.14355975 Ry

     iteration #  6     ecut=    77.00 Ry     beta= 0.20
     Davidson diagonalization with overlap
     c_bands:  2 eigenvalues not converged
     c_bands:  1 eigenvalues not converged
     c_bands:  3 eigenvalues not converged
     ethr =  1.11E-05,  avg # of iterations = 26.8

     negative rho (up, down):  3.550E-04 0.000E+00

     total cpu time spent up to now is     3148.2 secs

     total energy              =  -26031.70501263 Ry
     estimated scf accuracy    <       0.09000407 Ry

     iteration #  7     ecut=    77.00 Ry     beta= 0.20
     Davidson diagonalization with overlap
     c_bands:  2 eigenvalues not converged
     c_bands:  2 eigenvalues not converged
     c_bands:  1 eigenvalues not converged
     ethr =  6.93E-06,  avg # of iterations = 28.0

     negative rho (up, down):  7.320E-04 0.000E+00

     total cpu time spent up to now is     3649.3 secs

     total energy              =  -26031.75447472 Ry
     estimated scf accuracy    <       0.04797452 Ry

     iteration #  8     ecut=    77.00 Ry     beta= 0.20
     Davidson diagonalization with overlap
     c_bands:  1 eigenvalues not converged
     c_bands:  2 eigenvalues not converged
     ethr =  3.70E-06,  avg # of iterations = 22.5

     negative rho (up, down):  5.801E-04 0.000E+00

     total cpu time spent up to now is     4033.5 secs

     total energy              =  -26031.74954435 Ry
     estimated scf accuracy    <       0.02949531 Ry

     iteration #  9     ecut=    77.00 Ry     beta= 0.20
     Davidson diagonalization with overlap
     c_bands:  1 eigenvalues not converged
     c_bands:  2 eigenvalues not converged
     c_bands:  3 eigenvalues not converged
     ethr =  2.27E-06,  avg # of iterations = 30.5

     negative rho (up, down):  5.344E-04 0.000E+00

     total cpu time spent up to now is     4553.4 secs

     total energy              =  -26031.75812008 Ry
     estimated scf accuracy    <       0.00335098 Ry

     iteration # 10     ecut=    77.00 Ry     beta= 0.20
     Davidson diagonalization with overlap
     c_bands:  1 eigenvalues not converged
     c_bands:  1 eigenvalues not converged
     ethr =  2.58E-07,  avg # of iterations = 19.8

     negative rho (up, down):  5.721E-04 0.000E+00

     total cpu time spent up to now is     5415.5 secs

     total energy              =  -26031.76638008 Ry
     estimated scf accuracy    <       0.00324910 Ry

     iteration # 11     ecut=    77.00 Ry     beta= 0.20
     Davidson diagonalization with overlap
     ethr =  2.50E-07,  avg # of iterations =  1.5

     negative rho (up, down):  8.310E-04 0.000E+00

     total cpu time spent up to now is     5623.6 secs

     total energy              =  -26031.76531005 Ry
     estimated scf accuracy    <       0.00184951 Ry

     iteration # 12     ecut=    77.00 Ry     beta= 0.20
     Davidson diagonalization with overlap
     c_bands:  1 eigenvalues not converged
     ethr =  1.42E-07,  avg # of iterations = 12.0

     negative rho (up, down):  8.567E-04 0.000E+00

     total cpu time spent up to now is     6180.4 secs

     total energy              =  -26031.76650443 Ry
     estimated scf accuracy    <       0.00316285 Ry

     iteration # 13     ecut=    77.00 Ry     beta= 0.20
     Davidson diagonalization with overlap
     ethr =  1.42E-07,  avg # of iterations =  1.8

     negative rho (up, down):  8.197E-04 0.000E+00

     total cpu time spent up to now is     6394.3 secs

     total energy              =  -26031.76603421 Ry
     estimated scf accuracy    <       0.00103506 Ry

     iteration # 14     ecut=    77.00 Ry     beta= 0.20
     Davidson diagonalization with overlap
     ethr =  7.97E-08,  avg # of iterations = 11.0

     negative rho (up, down):  8.387E-04 0.000E+00

     total cpu time spent up to now is     6776.3 secs

     total energy              =  -26031.76666068 Ry
     estimated scf accuracy    <       0.00008646 Ry

     iteration # 15     ecut=    77.00 Ry     beta= 0.20
     Davidson diagonalization with overlap
     c_bands:  3 eigenvalues not converged
     c_bands:  3 eigenvalues not converged
     c_bands:  1 eigenvalues not converged
     c_bands:  4 eigenvalues not converged
     ethr =  6.66E-09,  avg # of iterations = 25.0

     negative rho (up, down):  8.592E-04 0.000E+00

     total cpu time spent up to now is     7668.3 secs

     total energy              =  -26031.76680306 Ry
     estimated scf accuracy    <       0.00015926 Ry

     iteration # 16     ecut=    77.00 Ry     beta= 0.20
     Davidson diagonalization with overlap
     c_bands:  2 eigenvalues not converged
     c_bands:  2 eigenvalues not converged
     ethr =  6.66E-09,  avg # of iterations = 15.0

     negative rho (up, down):  9.024E-04 0.000E+00

     total cpu time spent up to now is     8003.3 secs

     total energy              =  -26031.76682094 Ry
     estimated scf accuracy    <       0.00001474 Ry

     iteration # 17     ecut=    77.00 Ry     beta= 0.20
     Davidson diagonalization with overlap
     c_bands:  3 eigenvalues not converged
     ethr =  1.14E-09,  avg # of iterations = 17.5

     negative rho (up, down):  9.004E-04 0.000E+00

     total cpu time spent up to now is     8882.4 secs

     total energy              =  -26031.76682732 Ry
     estimated scf accuracy    <       0.00008881 Ry

     iteration # 18     ecut=    77.00 Ry     beta= 0.20
     Davidson diagonalization with overlap
     ethr =  1.14E-09,  avg # of iterations =  8.2

     negative rho (up, down):  8.948E-04 0.000E+00

     total cpu time spent up to now is     9254.7 secs

     total energy              =  -26031.76682864 Ry
     estimated scf accuracy    <       0.00001385 Ry

     iteration # 19     ecut=    77.00 Ry     beta= 0.20
     Davidson diagonalization with overlap
     ethr =  1.07E-09,  avg # of iterations = 13.5

     negative rho (up, down):  8.994E-04 0.000E+00

     total cpu time spent up to now is     9752.6 secs

     total energy              =  -26031.76683852 Ry
     estimated scf accuracy    <       0.00001180 Ry

     iteration # 20     ecut=    77.00 Ry     beta= 0.20
     Davidson diagonalization with overlap
     ethr =  9.09E-10,  avg # of iterations =  1.0

     negative rho (up, down):  9.042E-04 0.000E+00

     total cpu time spent up to now is     9952.9 secs

     total energy              =  -26031.76683461 Ry
     estimated scf accuracy    <       0.00000405 Ry

     iteration # 21     ecut=    77.00 Ry     beta= 0.20
     Davidson diagonalization with overlap
     ethr =  3.12E-10,  avg # of iterations = 12.0

     negative rho (up, down):  9.076E-04 0.000E+00

     total cpu time spent up to now is    10351.9 secs

     End of self-consistent calculation

          k = 0.0000 0.0000 0.0000 (321495 PWs)   bands (ev):

  -102.1493 -88.6683 -70.4654 -70.4629 -70.4626 -70.4625 -70.4339 -70.4339
   -70.4178 -66.6561 -66.6350 -66.6350 -66.6350 -66.6350 -66.6350 -66.6349
   -66.6138 -66.6138 -66.6138 -66.6138 -66.6138 -66.6138 -66.6138 -66.6138
   -66.6137 -66.5901 -66.5695 -66.5694 -66.5692 -66.5689 -66.5688 -66.5685
   -66.5486 -66.5484 -66.5481 -66.5481 -66.5478 -66.5477 -66.5474 -66.5473
   -66.5472 -66.5197 -66.5110 -66.4985 -66.4910 -66.4888 -66.4818 -66.4798
   -66.4741 -66.4697 -66.4690 -66.4611 -66.4603 -66.4551 -66.4537 -66.4425
   -66.4360 -56.4007 -56.3848 -56.3771 -54.4915 -54.4697 -54.4489 -40.9825
   -40.9825 -40.9825 -40.9155 -40.9154 -40.9153 -40.9077 -40.9077 -40.9077
   -40.9077 -40.9077 -40.9077 -40.8410 -40.8408 -40.8407 -40.8406 -40.8405
   -40.8405 -40.8334 -40.8309 -40.8258 -40.8162 -40.7822 -40.7822 -40.7822
   -40.7822 -40.7822 -40.7821 -40.7748 -40.7748 -40.7748 -40.7748 -40.7748
   -40.7748 -40.7613 -40.7561 -40.7537 -40.7535 -40.7508 -40.7482 -40.7473
   -40.7473 -40.7473 -40.7473 -40.7473 -40.7473 -40.7457 -40.7331 -40.7331
   -40.7331 -40.7331 -40.7331 -40.7331 -40.7330 -40.7330 -40.7330 -40.7156
   -40.7153 -40.7153 -40.7152 -40.7152 -40.7150 -40.7098 -40.7096 -40.7095
   -40.7092 -40.7092 -40.7089 -40.7069 -40.6807 -40.6807 -40.6805 -40.6804
   -40.6803 -40.6802 -40.6743 -40.6695 -40.6695 -40.6695 -40.6684 -40.6682
   -40.6679 -40.6679 -40.6677 -40.6676 -40.6674 -40.6672 -40.6671 -40.6542
   -40.6410 -40.6367 -40.6350 -40.6339 -40.6333 -40.6316 -40.6311 -40.6285
   -40.6228 -40.6227 -40.6227 -40.6227 -40.6227 -40.6227 -40.6227 -40.6170
   -40.6093 -40.6040 -40.6028 -40.6027 -40.6027 -40.6017 -40.6002 -40.5985
   -40.5968 -40.5962 -40.5935 -40.5916 -40.5889 -40.5863 -40.5859 -40.5831
   -40.5809 -40.5756 -40.5754 -40.5754 -40.5564 -40.5560 -40.5559 -40.5559
   -40.5558 -40.5557 -40.5172 -40.5171 -40.5127 -40.5087 -40.5087 -40.4729
   -40.4698 -40.4694 -40.4670 -40.4649 -40.4551 -40.4185 -40.4161 -20.0958
   -20.0157 -19.8838 -19.3500 -19.2314 -19.2252 -19.2230 -19.2224 -19.2207
   -19.2109 -19.1730 -19.1448 -19.1292 -19.1292 -19.1065 -19.0629 -19.0453
   -19.0336 -19.0221 -19.0202 -18.9827 -18.8451 -18.6839 -18.5126 -18.4921
   -18.4811 -18.4785 -18.4517 -18.4296 -18.4243 -18.3609 -18.3598 -18.3526
   -18.3302 -18.3206 -18.2919 -18.2498 -18.2112 -18.1923 -18.1868 -18.1810
   -18.1612 -18.1228 -18.1162 -18.1161 -18.1161 -18.1156 -18.1155 -18.1153
   -18.0896 -18.0758 -18.0757 -18.0755 -18.0692 -18.0679 -18.0351 -18.0336
   -18.0315 -18.0292 -18.0255 -18.0230 -18.0024 -18.0011 -18.0010 -17.9588
   -17.9431 -17.9421 -17.9364 -17.9347 -17.9196 -17.9187 -17.9160 -17.9104
   -17.8971 -17.8953 -17.8884 -17.8879 -17.8830 -17.8594 -17.8586 -17.8528
   -17.8416 -17.8314 -17.8278 -17.8214 -17.8177 -17.8105 -17.7922 -17.7870
   -17.7782 -17.7665 -17.7540 -17.7431 -17.7330 -17.7318 -17.7205 -11.9874
   -11.8635 -11.7925 -11.7424 -11.7298 -11.7264 -11.7104 -11.6496 -11.6410
   -11.6339 -11.5874 -11.3930 -11.2338 -11.2048 -11.1902 -11.1832 -11.1807
   -11.1713 -11.1345 -11.1151 -11.1105 -11.1089 -11.1062 -11.1048 -11.0944
   -11.0893 -11.0660 -11.0634 -11.0228 -10.9866 -10.9749 -10.9633 -10.9611
   -10.9525 -10.9429 -10.9373 -10.8971 -10.8959 -10.8948 -10.8912 -10.8856
   -10.8788 -10.8407 -10.8244 -10.8228 -10.8181 -10.8113 -10.8081 -10.8054
   -10.8042 -10.8025 -10.8022 -10.7880 -10.7831 -10.7804 -10.7775 -10.7647
   -10.7622 -10.7599 -10.7582 -10.7574 -10.7542 -10.7349 -10.7328 -10.7064
   -10.6974 -10.6799 -10.6584 -10.6399 -10.6200 -10.6120 -10.5908 -10.5817
   -10.5800 -10.5711 -10.2554 -10.2158 -10.1305 -10.1219 -10.0256 -10.0199
   -10.0196  -9.9198  -9.8604  -9.8518  -9.8308  -9.7686  -9.7582  -9.7572
    -9.7514  -9.7476  -9.7458  -9.7200  -9.6838  -9.6787  -9.6785  -9.6714
    -9.6620  -9.6535  -9.6514  -9.6306  -9.6181  -9.6002  -9.5948  -9.5931
    -9.5902  -9.5799  -9.5735  -9.5510  -9.5500  -9.5496  -9.5480  -9.5469
    -9.5467  -9.5290  -9.5212  -9.5119  -9.5092  -9.4787  -9.4776  -9.4395
    -9.4277  -9.4214  -9.4180  -9.4096  -9.4035  -9.3506  -9.3332  -9.3238
    -9.3124  -9.3052  -9.2975  -9.2893  -9.2810  -9.2624  -9.2607  -9.2153
    -9.1831  -9.1773  -9.1727  -9.1650  -9.1599  -9.1596  -9.1571  -9.0747
    -9.0239  -9.0172  -9.0054  -9.0002  -8.9946  -8.9945  -8.9927  -8.9909
    -8.9880  -8.9672  -8.9549  -8.9497  -8.9143  -8.9141  -8.9124  -8.8856
    -8.8823  -8.8781  -8.8259  -8.8181  -8.7979  -8.7829  -8.7791  -8.7740
    -8.7737  -8.7715  -8.7582  -8.7491  -8.7417  -8.7313  -8.7168  -8.7114
    -8.7069  -8.6936  -8.6921  -8.6849  -8.6829  -8.6597  -8.4748  -8.4212
    -8.4055  -8.4055  -8.3798  -8.3675  -8.3334  -8.3329  -8.3078  -8.2933
    -8.2933  -8.2932  -8.2931  -8.2931  -8.2931  -8.2372  -8.2264  -8.2247
    -8.2217  -8.2174  -8.2167  -8.2121  -8.1908  -8.1784  -8.1588  -8.1174
    -8.0786  -8.0463  -8.0063  -7.9528  -7.9339  -7.9017  -7.8787  -7.8739
    -7.6650  -7.6500  -7.6295  -7.5900  -7.5581  -7.5580  -7.5580  -7.5578
    -7.5578  -7.5577  -7.5121  -7.5118  -7.5116  -7.5110  -7.5109  -7.5105
    -7.5048  -7.5016  -7.4922  -7.4907  -7.4859  -7.4849  -7.4737  -7.4702
    -7.4675  -7.4570  -7.4436  -7.4417  -7.4416  -7.4407  -7.4379  -7.4374
    -7.4286  -7.4271  -7.4239  -7.4194  -7.4006  -7.3944  -7.3932  -7.3906
    -7.3865  -7.3826  -7.3585  -7.3541  -7.2910  -7.2766  -7.2765  -7.2273
    -7.2202  -7.2137  -7.2062  -7.2059  -7.1755  -7.1639  -7.1587  -7.0520
    -7.0178  -6.9806  -6.9802  -6.9063  -6.8997  -6.8961  -6.8389  -6.8173
    -6.8172  -6.7734  -6.7732  -6.7633  -6.7531  -6.6838  -6.6616  -6.6458
    -6.6454  -6.6318  -6.6261  -6.6064  -6.5969  -6.5897  -6.5728  -6.5584
    -6.5567  -6.5308  -6.5307  -6.5021  -6.4929  -6.4921  -6.4859  -6.4822
    -6.4812  -6.4698  -6.4544  -6.4461  -6.4319  -6.4247  -6.4087  -6.4054
    -6.3983  -6.3942  -6.3924  -6.3531  -6.3245  -6.3245  -6.3245  -6.3245
    -6.3245  -6.3245  -6.3178  -6.3071  -6.2649  -6.2478  -6.2470  -6.2466
    -6.2461  -6.2461  -6.2402  -6.1949  -6.1790  -6.1591  -6.1226  -6.0714
    -6.0317  -5.8106  -5.6690  -5.6344  -5.5974  -5.3824  -5.3428  -5.3249
    -5.0975  -4.2995  -3.8436  -3.8120  -3.8103  -3.8055  -3.8032  -3.7874
    -3.7802  -3.7768  -3.7730  -3.7725  -3.7709  -3.7535  -3.6728  -3.5946
    -3.5824  -3.5660  -3.5643  -3.5529  -3.5512  -3.5428  -3.5350  -3.5326
    -3.5298  -3.4650  -3.4649  -3.4648  -3.4494  -3.4476  -3.4467  -3.4457
    -3.4455  -3.4447  -3.4112  -3.3976  -3.3975  -3.3974  -3.3739  -3.3625
    -3.3585  -3.3484  -3.3467  -3.3424  -3.3364  -3.3359  -3.3317  -3.3299
    -3.3286  -3.3267  -3.3103  -3.3078  -3.3057  -3.2896  -3.2597  -3.2466
    -3.2351  -3.2344  -3.2114  -3.2002  -3.2001  -3.1926  -3.1821  -3.1575
    -2.9988  -2.9985  -2.9982  -2.9931  -2.9929  -2.9822  -2.9344  -2.9275
    -2.9270  -2.9260  -2.9259  -2.9257  -2.9255  -2.9253  -2.9252  -2.9051
    -2.9035  -2.9031  -2.8917  -2.8903  -2.8731  -2.8651  -2.8625  -2.8566
    -2.8552  -2.8548  -2.8530  -2.8516  -2.8432  -2.8370  -2.8279  -2.8174
    -2.8112  -2.8041  -2.7812  -2.7693  -2.7605  -2.7551  -2.7387  -2.7383
    -2.7331  -2.7146  -2.7099  -2.7090  -2.7080  -2.7045  -2.6962  -2.6751
    -2.6650  -2.6647  -2.6444  -2.6128  -2.6124  -2.6080  -2.5969  -2.5775
    -2.5706  -2.5118  -2.5077  -2.4971  -2.4914  -2.4681  -2.4539  -2.4368
    -2.4348  -2.4280  -2.4218

          k = 0.0000-0.5773 0.0000 (321564 PWs)   bands (ev):

  -102.1493 -88.6683 -70.4654 -70.4629 -70.4626 -70.4625 -70.4339 -70.4339
   -70.4178 -66.6499 -66.6499 -66.6393 -66.6393 -66.6244 -66.6244 -66.6244
   -66.6244 -66.6200 -66.6200 -66.6138 -66.6138 -66.6138 -66.6138 -66.6094
   -66.6094 -66.5842 -66.5837 -66.5735 -66.5733 -66.5586 -66.5585 -66.5585
   -66.5583 -66.5543 -66.5538 -66.5482 -66.5481 -66.5478 -66.5473 -66.5435
   -66.5434 -66.5188 -66.5116 -66.5001 -66.4915 -66.4882 -66.4806 -66.4793
   -66.4736 -66.4713 -66.4662 -66.4629 -66.4612 -66.4549 -66.4533 -66.4426
   -66.4359 -56.4007 -56.3848 -56.3771 -54.4915 -54.4697 -54.4489 -40.9511
   -40.9511 -40.9511 -40.9511 -40.9245 -40.9245 -40.9126 -40.9126 -40.8843
   -40.8843 -40.8839 -40.8837 -40.8621 -40.8621 -40.8621 -40.8621 -40.8576
   -40.8572 -40.8456 -40.8454 -40.8106 -40.8045 -40.8041 -40.8041 -40.7952
   -40.7952 -40.7951 -40.7951 -40.7942 -40.7942 -40.7901 -40.7862 -40.7834
   -40.7834 -40.7812 -40.7684 -40.7556 -40.7540 -40.7540 -40.7540 -40.7540
   -40.7529 -40.7453 -40.7453 -40.7389 -40.7385 -40.7332 -40.7332 -40.7331
   -40.7331 -40.7331 -40.7330 -40.7274 -40.7273 -40.7244 -40.7244 -40.7180
   -40.7179 -40.7106 -40.7096 -40.7082 -40.7054 -40.7024 -40.7024 -40.7024
   -40.7024 -40.7007 -40.6887 -40.6886 -40.6886 -40.6884 -40.6801 -40.6797
   -40.6702 -40.6680 -40.6680 -40.6679 -40.6679 -40.6679 -40.6679 -40.6676
   -40.6672 -40.6664 -40.6663 -40.6637 -40.6591 -40.6591 -40.6558 -40.6558
   -40.6480 -40.6430 -40.6367 -40.6367 -40.6361 -40.6359 -40.6358 -40.6356
   -40.6352 -40.6328 -40.6266 -40.6198 -40.6198 -40.6155 -40.6130 -40.6066
   -40.6030 -40.6012 -40.6012 -40.6011 -40.6010 -40.5994 -40.5947 -40.5909
   -40.5893 -40.5893 -40.5893 -40.5893 -40.5888 -40.5847 -40.5824 -40.5754
   -40.5744 -40.5701 -40.5696 -40.5565 -40.5531 -40.5529 -40.5521 -40.5476
   -40.5400 -40.5228 -40.5223 -40.5181 -40.5147 -40.5116 -40.5102 -40.5042
   -40.4915 -40.4840 -40.4802 -40.4634 -40.4571 -40.4387 -40.4247 -19.8834
   -19.8521 -19.8190 -19.7417 -19.6660 -19.6213 -19.4254 -19.4191 -19.3623
   -19.3282 -19.2343 -19.2146 -18.8163 -18.7543 -18.7383 -18.7185 -18.7108
   -18.7091 -18.6989 -18.6913 -18.6712 -18.6304 -18.6043 -18.5851 -18.5725
   -18.5721 -18.5635 -18.5414 -18.5121 -18.5051 -18.4621 -18.4606 -18.4361
   -18.4189 -18.4024 -18.3756 -18.3682 -18.3596 -18.3384 -18.2834 -18.2603
   -18.2528 -18.2401 -18.2080 -18.1980 -18.1841 -18.1638 -18.1343 -18.1225
   -18.1035 -18.0963 -18.0961 -18.0960 -18.0956 -18.0824 -18.0723 -18.0568
   -18.0441 -18.0220 -18.0206 -18.0162 -18.0141 -18.0075 -18.0009 -17.9791
   -17.9705 -17.9587 -17.9503 -17.9415 -17.9353 -17.9171 -17.9138 -17.9033
   -17.8997 -17.8918 -17.8874 -17.8524 -17.8471 -17.8342 -17.8327 -17.8327
   -17.8261 -17.7874 -17.7785 -17.7769 -17.7728 -17.7720 -17.7566 -17.7562
   -17.7495 -17.7418 -17.7180 -17.7129 -17.7060 -17.6544 -17.6430 -11.8838
   -11.6517 -11.6287 -11.6031 -11.4986 -11.4444 -11.4435 -11.4399 -11.4390
   -11.4276 -11.4130 -11.3851 -11.3683 -11.3591 -11.3514 -11.3430 -11.3318
   -11.3006 -11.2962 -11.2821 -11.2793 -11.2603 -11.2532 -11.2437 -11.2254
   -11.2254 -11.2186 -11.1798 -11.1794 -11.1686 -11.1253 -11.1243 -11.1211
   -11.1196 -11.0605 -11.0111 -10.9731 -10.9555 -10.9375 -10.9359 -10.9198
   -10.8859 -10.8846 -10.8771 -10.8627 -10.8474 -10.8307 -10.8267 -10.8163
   -10.8090 -10.8001 -10.7990 -10.7965 -10.7949 -10.7867 -10.7794 -10.7695
   -10.7587 -10.7391 -10.7371 -10.7266 -10.7195 -10.7101 -10.6865 -10.5717
   -10.5567 -10.5037 -10.4607 -10.4445 -10.3584 -10.3264 -10.3167 -10.2595
   -10.2509 -10.1948 -10.1535 -10.1088 -10.0918 -10.0811 -10.0778 -10.0384
   -10.0079  -9.9896  -9.9771  -9.9439  -9.9159  -9.9064  -9.9037  -9.9020
    -9.8977  -9.8874  -9.8693  -9.8642  -9.8604  -9.8537  -9.8483  -9.7772
    -9.7609  -9.7540  -9.7318  -9.7235  -9.7195  -9.7037  -9.6945  -9.6815
    -9.6788  -9.6698  -9.6667  -9.6466  -9.6291  -9.6255  -9.6147  -9.5984
    -9.5839  -9.5824  -9.5703  -9.5358  -9.5157  -9.5012  -9.4963  -9.4949
    -9.4751  -9.4387  -9.4377  -9.4197  -9.3996  -9.3203  -9.2906  -9.2689
    -9.2473  -9.1891  -9.1709  -9.1654  -9.1527  -9.1309  -9.1199  -9.1118
    -9.1082  -9.0998  -9.0956  -9.0688  -9.0600  -9.0343  -9.0210  -9.0042
    -9.0005  -8.9847  -8.9758  -8.9676  -8.9538  -8.9444  -8.9387  -8.9315
    -8.9194  -8.9139  -8.9087  -8.9037  -8.8998  -8.8931  -8.8785  -8.8744
    -8.8542  -8.8361  -8.8330  -8.8255  -8.8245  -8.8161  -8.8099  -8.8082
    -8.8061  -8.8033  -8.7899  -8.7824  -8.7713  -8.7587  -8.7521  -8.7322
    -8.7299  -8.7196  -8.7129  -8.7033  -8.6654  -8.5758  -8.4931  -8.4808
    -8.4803  -8.4466  -8.4161  -8.3996  -8.3864  -8.3167  -8.3013  -8.2359
    -8.1619  -8.1619  -8.1361  -8.1131  -8.0905  -8.0896  -8.0781  -8.0334
    -8.0105  -7.9877  -7.9046  -7.9031  -7.8901  -7.8740  -7.8523  -7.8328
    -7.8296  -7.8207  -7.8162  -7.8152  -7.8151  -7.8096  -7.8031  -7.7997
    -7.7789  -7.7704  -7.7693  -7.7686  -7.7655  -7.7511  -7.7457  -7.7419
    -7.7278  -7.7230  -7.7193  -7.7107  -7.7002  -7.6995  -7.6944  -7.6896
    -7.6793  -7.6677  -7.6626  -7.6602  -7.6563  -7.6442  -7.6375  -7.6301
    -7.6299  -7.6296  -7.6181  -7.6025  -7.5853  -7.5792  -7.5646  -7.5609
    -7.5513  -7.5384  -7.5235  -7.4998  -7.4956  -7.4866  -7.4667  -7.4292
    -7.4170  -7.3446  -7.3274  -7.2437  -7.2257  -7.2025  -7.2004  -7.1887
    -7.1715  -7.1153  -7.1022  -7.0775  -7.0621  -7.0453  -7.0070  -6.9938
    -6.9838  -6.9764  -6.9676  -6.9642  -6.9352  -6.9113  -6.9071  -6.8691
    -6.8681  -6.8636  -6.8291  -6.8104  -6.7971  -6.7774  -6.7560  -6.7219
    -6.7089  -6.6645  -6.6559  -6.6443  -6.6270  -6.6268  -6.6267  -6.6267
    -6.6161  -6.6057  -6.5711  -6.5669  -6.5581  -6.5565  -6.5552  -6.5542
    -6.5176  -6.4972  -6.4593  -6.4353  -6.4270  -6.4032  -6.3818  -6.2997
    -6.2959  -6.2951  -6.2948  -6.2892  -6.2733  -6.2322  -6.2285  -6.2190
    -6.2131  -6.2120  -6.2104  -6.1910  -6.1703  -6.1671  -6.1444  -6.1032
    -6.0843  -5.9466  -5.9466  -5.8939  -5.8779  -5.8693  -5.8640  -5.8137
    -5.7505  -5.6564  -5.6175  -5.6070  -5.5598  -5.4918  -5.3602  -5.3162
    -5.3078  -4.2826  -3.9935  -3.9860  -3.9831  -3.9572  -3.8622  -3.8619
    -3.8496  -3.8310  -3.7975  -3.7972  -3.7784  -3.7439  -3.7381  -3.7334
    -3.7201  -3.6869  -3.6551  -3.6023  -3.5712  -3.5643  -3.5625  -3.5599
    -3.5476  -3.5474  -3.5439  -3.5156  -3.5122  -3.4770  -3.4713  -3.4672
    -3.4642  -3.4559  -3.4472  -3.4398  -3.4376  -3.4313  -3.4261  -3.3942
    -3.3728  -3.3721  -3.3525  -3.3252  -3.3216  -3.3155  -3.3138  -3.3065
    -3.2920  -3.2828  -3.2788  -3.2736  -3.2670  -3.2401  -3.2383  -3.2381
    -3.2376  -3.2373  -3.2232  -3.2040  -3.1972  -3.1941  -3.1837  -3.1735
    -3.1677  -3.1636  -3.1601  -3.1463  -3.1434  -3.1190  -3.0933  -3.0859
    -3.0769  -3.0751  -3.0398  -3.0351  -3.0338  -3.0003  -2.9960  -2.9943
    -2.9909  -2.9751  -2.9749  -2.9746  -2.9745  -2.9404  -2.9298  -2.9263
    -2.9256  -2.9136  -2.9012  -2.8891  -2.8856  -2.8803  -2.8780  -2.8664
    -2.8615  -2.8507  -2.8459  -2.8377  -2.8322  -2.8262  -2.8029  -2.7913
    -2.7816  -2.7711  -2.7624  -2.7599  -2.7576  -2.6963  -2.6898  -2.6661
    -2.6604  -2.6239  -2.6125  -2.6123  -2.6110  -2.5955  -2.5928  -2.5311
    -2.5284  -2.4967  -2.4706  -2.4683  -2.4537  -2.4418  -2.4354  -2.4010
    -2.3175  -2.2937  -2.2453

          k =-0.5000-0.2887 0.0000 (321564 PWs)   bands (ev):

  -102.1493 -88.6683 -70.4654 -70.4629 -70.4626 -70.4625 -70.4339 -70.4339
   -70.4178 -66.6499 -66.6499 -66.6393 -66.6393 -66.6244 -66.6244 -66.6244
   -66.6244 -66.6200 -66.6200 -66.6138 -66.6138 -66.6138 -66.6138 -66.6094
   -66.6094 -66.5842 -66.5837 -66.5735 -66.5733 -66.5586 -66.5585 -66.5585
   -66.5583 -66.5543 -66.5538 -66.5482 -66.5481 -66.5478 -66.5473 -66.5435
   -66.5434 -66.5188 -66.5116 -66.5001 -66.4914 -66.4882 -66.4806 -66.4793
   -66.4736 -66.4713 -66.4662 -66.4629 -66.4612 -66.4549 -66.4533 -66.4426
   -66.4359 -56.4007 -56.3848 -56.3771 -54.4915 -54.4697 -54.4489 -40.9511
   -40.9511 -40.9511 -40.9511 -40.9245 -40.9245 -40.9126 -40.9126 -40.8844
   -40.8843 -40.8839 -40.8837 -40.8621 -40.8621 -40.8621 -40.8621 -40.8576
   -40.8572 -40.8456 -40.8454 -40.8106 -40.8045 -40.8041 -40.8041 -40.7952
   -40.7952 -40.7951 -40.7951 -40.7942 -40.7942 -40.7901 -40.7861 -40.7834
   -40.7834 -40.7812 -40.7683 -40.7557 -40.7540 -40.7540 -40.7540 -40.7540
   -40.7529 -40.7453 -40.7453 -40.7389 -40.7385 -40.7332 -40.7332 -40.7331
   -40.7331 -40.7331 -40.7331 -40.7274 -40.7273 -40.7244 -40.7244 -40.7180
   -40.7179 -40.7107 -40.7096 -40.7082 -40.7054 -40.7024 -40.7024 -40.7024
   -40.7024 -40.7007 -40.6887 -40.6886 -40.6886 -40.6884 -40.6801 -40.6797
   -40.6702 -40.6680 -40.6680 -40.6679 -40.6679 -40.6679 -40.6679 -40.6676
   -40.6672 -40.6664 -40.6663 -40.6637 -40.6591 -40.6591 -40.6559 -40.6558
   -40.6480 -40.6430 -40.6367 -40.6366 -40.6360 -40.6359 -40.6358 -40.6356
   -40.6352 -40.6329 -40.6266 -40.6198 -40.6198 -40.6154 -40.6130 -40.6065
   -40.6031 -40.6012 -40.6012 -40.6011 -40.6010 -40.5994 -40.5947 -40.5909
   -40.5893 -40.5893 -40.5893 -40.5893 -40.5888 -40.5847 -40.5824 -40.5754
   -40.5744 -40.5702 -40.5696 -40.5565 -40.5531 -40.5529 -40.5522 -40.5476
   -40.5400 -40.5228 -40.5223 -40.5181 -40.5147 -40.5116 -40.5102 -40.5042
   -40.4915 -40.4840 -40.4802 -40.4634 -40.4571 -40.4387 -40.4247 -19.8834
   -19.8520 -19.8190 -19.7417 -19.6660 -19.6213 -19.4253 -19.4191 -19.3622
   -19.3283 -19.2343 -19.2146 -18.8164 -18.7541 -18.7383 -18.7185 -18.7108
   -18.7091 -18.6989 -18.6912 -18.6714 -18.6304 -18.6043 -18.5852 -18.5725
   -18.5721 -18.5635 -18.5414 -18.5121 -18.5051 -18.4621 -18.4606 -18.4360
   -18.4189 -18.4024 -18.3756 -18.3682 -18.3596 -18.3384 -18.2834 -18.2603
   -18.2527 -18.2401 -18.2080 -18.1980 -18.1841 -18.1638 -18.1343 -18.1225
   -18.1035 -18.0963 -18.0961 -18.0960 -18.0956 -18.0824 -18.0723 -18.0568
   -18.0441 -18.0220 -18.0206 -18.0162 -18.0141 -18.0075 -18.0009 -17.9791
   -17.9704 -17.9587 -17.9503 -17.9415 -17.9353 -17.9171 -17.9138 -17.9033
   -17.8997 -17.8918 -17.8874 -17.8524 -17.8471 -17.8342 -17.8327 -17.8327
   -17.8262 -17.7874 -17.7785 -17.7769 -17.7728 -17.7720 -17.7566 -17.7562
   -17.7495 -17.7418 -17.7180 -17.7129 -17.7060 -17.6543 -17.6430 -11.8839
   -11.6517 -11.6287 -11.6031 -11.4985 -11.4444 -11.4435 -11.4399 -11.4390
   -11.4276 -11.4130 -11.3852 -11.3683 -11.3592 -11.3515 -11.3430 -11.3318
   -11.3006 -11.2962 -11.2821 -11.2793 -11.2604 -11.2532 -11.2437 -11.2254
   -11.2254 -11.2186 -11.1798 -11.1794 -11.1686 -11.1253 -11.1243 -11.1211
   -11.1196 -11.0605 -11.0111 -10.9730 -10.9555 -10.9376 -10.9359 -10.9198
   -10.8859 -10.8846 -10.8771 -10.8627 -10.8474 -10.8307 -10.8267 -10.8162
   -10.8090 -10.8001 -10.7990 -10.7965 -10.7949 -10.7867 -10.7795 -10.7695
   -10.7586 -10.7391 -10.7371 -10.7266 -10.7195 -10.7101 -10.6865 -10.5718
   -10.5568 -10.5037 -10.4607 -10.4445 -10.3584 -10.3266 -10.3167 -10.2595
   -10.2507 -10.1947 -10.1535 -10.1088 -10.0918 -10.0811 -10.0778 -10.0384
   -10.0079  -9.9896  -9.9771  -9.9439  -9.9159  -9.9064  -9.9037  -9.9020
    -9.8977  -9.8874  -9.8693  -9.8642  -9.8604  -9.8537  -9.8483  -9.7772
    -9.7609  -9.7540  -9.7318  -9.7235  -9.7195  -9.7037  -9.6945  -9.6815
    -9.6788  -9.6698  -9.6667  -9.6466  -9.6291  -9.6255  -9.6147  -9.5984
    -9.5839  -9.5824  -9.5703  -9.5358  -9.5157  -9.5013  -9.4963  -9.4949
    -9.4751  -9.4387  -9.4377  -9.4197  -9.3996  -9.3203  -9.2906  -9.2689
    -9.2473  -9.1891  -9.1709  -9.1654  -9.1527  -9.1309  -9.1199  -9.1118
    -9.1082  -9.0998  -9.0956  -9.0688  -9.0600  -9.0343  -9.0210  -9.0042
    -9.0005  -8.9847  -8.9758  -8.9676  -8.9538  -8.9444  -8.9387  -8.9315
    -8.9193  -8.9139  -8.9086  -8.9037  -8.8998  -8.8931  -8.8785  -8.8743
    -8.8542  -8.8361  -8.8330  -8.8255  -8.8245  -8.8161  -8.8099  -8.8082
    -8.8061  -8.8033  -8.7899  -8.7824  -8.7714  -8.7587  -8.7521  -8.7322
    -8.7299  -8.7196  -8.7129  -8.7033  -8.6654  -8.5757  -8.4931  -8.4808
    -8.4803  -8.4466  -8.4161  -8.3996  -8.3864  -8.3168  -8.3012  -8.2360
    -8.1619  -8.1619  -8.1361  -8.1131  -8.0906  -8.0896  -8.0781  -8.0333
    -8.0105  -7.9877  -7.9046  -7.9031  -7.8901  -7.8739  -7.8524  -7.8328
    -7.8296  -7.8207  -7.8162  -7.8151  -7.8151  -7.8096  -7.8031  -7.7997
    -7.7789  -7.7704  -7.7693  -7.7686  -7.7655  -7.7511  -7.7456  -7.7419
    -7.7278  -7.7230  -7.7193  -7.7107  -7.7002  -7.6995  -7.6944  -7.6896
    -7.6793  -7.6677  -7.6626  -7.6602  -7.6563  -7.6442  -7.6375  -7.6301
    -7.6299  -7.6296  -7.6181  -7.6024  -7.5853  -7.5793  -7.5646  -7.5609
    -7.5513  -7.5384  -7.5235  -7.4998  -7.4955  -7.4867  -7.4667  -7.4292
    -7.4170  -7.3446  -7.3274  -7.2437  -7.2257  -7.2025  -7.2004  -7.1887
    -7.1715  -7.1153  -7.1022  -7.0775  -7.0621  -7.0453  -7.0070  -6.9938
    -6.9838  -6.9764  -6.9676  -6.9642  -6.9352  -6.9113  -6.9072  -6.8691
    -6.8682  -6.8636  -6.8291  -6.8104  -6.7970  -6.7774  -6.7560  -6.7219
    -6.7089  -6.6645  -6.6559  -6.6443  -6.6270  -6.6268  -6.6268  -6.6267
    -6.6161  -6.6057  -6.5711  -6.5669  -6.5581  -6.5565  -6.5552  -6.5542
    -6.5176  -6.4972  -6.4593  -6.4354  -6.4270  -6.4032  -6.3818  -6.2997
    -6.2959  -6.2951  -6.2948  -6.2892  -6.2733  -6.2322  -6.2285  -6.2190
    -6.2131  -6.2120  -6.2104  -6.1910  -6.1703  -6.1671  -6.1444  -6.1032
    -6.0843  -5.9466  -5.9466  -5.8939  -5.8778  -5.8693  -5.8640  -5.8137
    -5.7505  -5.6564  -5.6175  -5.6070  -5.5598  -5.4918  -5.3603  -5.3161
    -5.3079  -4.2825  -3.9937  -3.9858  -3.9829  -3.9570  -3.8622  -3.8620
    -3.8494  -3.8310  -3.7973  -3.7970  -3.7785  -3.7441  -3.7384  -3.7332
    -3.7199  -3.6870  -3.6552  -3.6024  -3.5713  -3.5640  -3.5624  -3.5600
    -3.5476  -3.5475  -3.5440  -3.5156  -3.5117  -3.4769  -3.4711  -3.4670
    -3.4640  -3.4560  -3.4472  -3.4396  -3.4376  -3.4312  -3.4260  -3.3942
    -3.3726  -3.3719  -3.3526  -3.3251  -3.3217  -3.3152  -3.3138  -3.3062
    -3.2920  -3.2830  -3.2789  -3.2737  -3.2672  -3.2401  -3.2383  -3.2381
    -3.2375  -3.2373  -3.2232  -3.2040  -3.1972  -3.1941  -3.1838  -3.1733
    -3.1680  -3.1638  -3.1598  -3.1465  -3.1436  -3.1190  -3.0930  -3.0858
    -3.0765  -3.0750  -3.0398  -3.0351  -3.0338  -3.0003  -2.9954  -2.9938
    -2.9913  -2.9753  -2.9749  -2.9748  -2.9747  -2.9397  -2.9301  -2.9268
    -2.9254  -2.9138  -2.9011  -2.8892  -2.8857  -2.8804  -2.8781  -2.8666
    -2.8611  -2.8509  -2.8458  -2.8370  -2.8312  -2.8264  -2.8030  -2.7915
    -2.7818  -2.7717  -2.7659  -2.7631  -2.7607  -2.6970  -2.6933  -2.6692
    -2.6604  -2.6238  -2.6125  -2.6122  -2.6108  -2.5956  -2.5931  -2.5311
    -2.5285  -2.4970  -2.4712  -2.4687  -2.4534  -2.4418  -2.4354  -2.4028
    -2.3121  -2.3029  -2.2499

          k =-0.5000-0.8660 0.0000 (321564 PWs)   bands (ev):

  -102.1493 -88.6683 -70.4654 -70.4629 -70.4626 -70.4625 -70.4339 -70.4339
   -70.4178 -66.6499 -66.6499 -66.6393 -66.6393 -66.6244 -66.6244 -66.6244
   -66.6244 -66.6200 -66.6200 -66.6138 -66.6138 -66.6138 -66.6138 -66.6094
   -66.6094 -66.5841 -66.5838 -66.5735 -66.5733 -66.5586 -66.5586 -66.5585
   -66.5582 -66.5542 -66.5538 -66.5482 -66.5480 -66.5478 -66.5474 -66.5435
   -66.5433 -66.5188 -66.5114 -66.5005 -66.4919 -66.4872 -66.4802 -66.4794
   -66.4738 -66.4705 -66.4694 -66.4611 -66.4603 -66.4551 -66.4538 -66.4427
   -66.4358 -56.4007 -56.3848 -56.3771 -54.4915 -54.4697 -54.4489 -40.9511
   -40.9511 -40.9511 -40.9511 -40.9245 -40.9245 -40.9126 -40.9126 -40.8843
   -40.8842 -40.8840 -40.8837 -40.8621 -40.8621 -40.8621 -40.8621 -40.8576
   -40.8573 -40.8456 -40.8454 -40.8041 -40.8041 -40.8018 -40.7986 -40.7981
   -40.7969 -40.7953 -40.7952 -40.7951 -40.7950 -40.7942 -40.7942 -40.7834
   -40.7834 -40.7808 -40.7708 -40.7575 -40.7540 -40.7540 -40.7540 -40.7540
   -40.7470 -40.7453 -40.7453 -40.7388 -40.7385 -40.7332 -40.7332 -40.7331
   -40.7331 -40.7331 -40.7331 -40.7274 -40.7272 -40.7244 -40.7244 -40.7180
   -40.7179 -40.7093 -40.7080 -40.7068 -40.7046 -40.7024 -40.7024 -40.7024
   -40.7024 -40.7015 -40.6887 -40.6887 -40.6885 -40.6884 -40.6801 -40.6797
   -40.6720 -40.6680 -40.6679 -40.6679 -40.6679 -40.6679 -40.6678 -40.6677
   -40.6673 -40.6664 -40.6663 -40.6602 -40.6591 -40.6590 -40.6558 -40.6558
   -40.6470 -40.6448 -40.6412 -40.6367 -40.6366 -40.6359 -40.6358 -40.6354
   -40.6353 -40.6348 -40.6198 -40.6198 -40.6175 -40.6148 -40.6134 -40.6103
   -40.6042 -40.6013 -40.6012 -40.6011 -40.6010 -40.5990 -40.5936 -40.5923
   -40.5893 -40.5893 -40.5892 -40.5889 -40.5879 -40.5860 -40.5827 -40.5752
   -40.5745 -40.5701 -40.5696 -40.5553 -40.5531 -40.5529 -40.5511 -40.5481
   -40.5466 -40.5228 -40.5224 -40.5156 -40.5129 -40.5113 -40.5104 -40.5003
   -40.4967 -40.4851 -40.4828 -40.4581 -40.4554 -40.4349 -40.4305 -19.8769
   -19.8532 -19.8143 -19.7532 -19.6656 -19.6337 -19.4218 -19.4188 -19.3495
   -19.3257 -19.2294 -19.2125 -18.8211 -18.7802 -18.7445 -18.7261 -18.7098
   -18.7076 -18.6992 -18.6972 -18.6789 -18.6026 -18.6000 -18.5852 -18.5742
   -18.5721 -18.5438 -18.5334 -18.5149 -18.4859 -18.4637 -18.4609 -18.4357
   -18.4207 -18.4092 -18.3918 -18.3844 -18.3552 -18.3373 -18.3229 -18.2624
   -18.2396 -18.2323 -18.2040 -18.1969 -18.1818 -18.1415 -18.1294 -18.1169
   -18.0966 -18.0965 -18.0962 -18.0961 -18.0931 -18.0737 -18.0731 -18.0567
   -18.0420 -18.0259 -18.0219 -18.0175 -18.0134 -18.0081 -18.0045 -17.9887
   -17.9706 -17.9603 -17.9442 -17.9409 -17.9388 -17.9193 -17.9165 -17.9039
   -17.9027 -17.8960 -17.8889 -17.8552 -17.8407 -17.8392 -17.8331 -17.8327
   -17.8327 -17.7875 -17.7797 -17.7735 -17.7730 -17.7727 -17.7588 -17.7561
   -17.7550 -17.7410 -17.7143 -17.7129 -17.6972 -17.6569 -17.6395 -11.8824
   -11.6530 -11.6219 -11.5510 -11.5062 -11.4847 -11.4446 -11.4420 -11.4377
   -11.4354 -11.4207 -11.4113 -11.3765 -11.3583 -11.3436 -11.3424 -11.3309
   -11.3149 -11.3139 -11.2984 -11.2718 -11.2524 -11.2518 -11.2417 -11.2254
   -11.2254 -11.1856 -11.1796 -11.1789 -11.1430 -11.1275 -11.1247 -11.1212
   -11.1198 -11.0512 -10.9946 -10.9847 -10.9534 -10.9481 -10.9305 -10.9093
   -10.8855 -10.8837 -10.8745 -10.8675 -10.8545 -10.8392 -10.8316 -10.8275
   -10.7999 -10.7996 -10.7982 -10.7972 -10.7916 -10.7833 -10.7812 -10.7698
   -10.7574 -10.7415 -10.7334 -10.7271 -10.7199 -10.7098 -10.6899 -10.5658
   -10.5459 -10.4739 -10.4721 -10.4307 -10.3936 -10.3931 -10.3260 -10.2887
   -10.2439 -10.1280 -10.1188 -10.1031 -10.0925 -10.0854 -10.0795 -10.0346
   -10.0054  -9.9949  -9.9768  -9.9469  -9.9249  -9.9080  -9.9030  -9.8999
    -9.8947  -9.8733  -9.8663  -9.8630  -9.8571  -9.8549  -9.8392  -9.8018
    -9.7673  -9.7366  -9.7364  -9.7220  -9.7137  -9.7057  -9.6967  -9.6793
    -9.6775  -9.6763  -9.6631  -9.6533  -9.6284  -9.6212  -9.6192  -9.5809
    -9.5797  -9.5782  -9.5748  -9.5113  -9.5074  -9.5000  -9.4879  -9.4793
    -9.4782  -9.4453  -9.4425  -9.4373  -9.4118  -9.3669  -9.3143  -9.2793
    -9.2390  -9.1978  -9.1801  -9.1636  -9.1515  -9.1412  -9.1220  -9.1104
    -9.0982  -9.0962  -9.0961  -9.0692  -9.0608  -9.0327  -9.0156  -9.0019
    -8.9915  -8.9904  -8.9702  -8.9660  -8.9594  -8.9461  -8.9404  -8.9293
    -8.9275  -8.9136  -8.9134  -8.9009  -8.8987  -8.8922  -8.8818  -8.8591
    -8.8537  -8.8422  -8.8293  -8.8249  -8.8198  -8.8093  -8.8083  -8.8056
    -8.8029  -8.7915  -8.7889  -8.7812  -8.7788  -8.7661  -8.7545  -8.7392
    -8.7314  -8.7188  -8.7108  -8.7061  -8.6598  -8.5506  -8.4840  -8.4820
    -8.4801  -8.4407  -8.4258  -8.3947  -8.3826  -8.3696  -8.2733  -8.2163
    -8.1975  -8.1619  -8.1619  -8.1436  -8.0902  -8.0894  -8.0661  -8.0278
    -8.0071  -7.9651  -7.9015  -7.9012  -7.8988  -7.8520  -7.8378  -7.8376
    -7.8341  -7.8182  -7.8172  -7.8152  -7.8151  -7.8076  -7.8070  -7.8045
    -7.7708  -7.7700  -7.7691  -7.7682  -7.7484  -7.7477  -7.7403  -7.7402
    -7.7325  -7.7171  -7.7121  -7.7081  -7.7063  -7.7004  -7.6955  -7.6949
    -7.6807  -7.6770  -7.6728  -7.6645  -7.6517  -7.6407  -7.6406  -7.6299
    -7.6299  -7.6253  -7.6068  -7.6008  -7.5884  -7.5808  -7.5729  -7.5633
    -7.5595  -7.5336  -7.5260  -7.5195  -7.4839  -7.4834  -7.4742  -7.4672
    -7.3897  -7.3370  -7.3205  -7.2377  -7.2124  -7.2119  -7.1987  -7.1793
    -7.1758  -7.1083  -7.1010  -7.0830  -7.0504  -7.0233  -7.0222  -7.0129
    -6.9799  -6.9773  -6.9565  -6.9528  -6.9410  -6.9238  -6.9209  -6.8835
    -6.8673  -6.8625  -6.8469  -6.8093  -6.8000  -6.7545  -6.7397  -6.7250
    -6.6987  -6.6905  -6.6494  -6.6278  -6.6271  -6.6267  -6.6265  -6.6264
    -6.6161  -6.6087  -6.5840  -6.5725  -6.5596  -6.5583  -6.5552  -6.5528
    -6.5327  -6.5028  -6.4661  -6.4492  -6.4256  -6.4002  -6.3478  -6.3119
    -6.2953  -6.2948  -6.2947  -6.2933  -6.2548  -6.2306  -6.2285  -6.2168
    -6.2143  -6.2120  -6.2108  -6.1834  -6.1728  -6.1660  -6.1510  -6.1161
    -6.0845  -5.9466  -5.9466  -5.8830  -5.8709  -5.8660  -5.8508  -5.8218
    -5.7681  -5.6537  -5.6211  -5.6059  -5.5794  -5.4579  -5.3676  -5.3279
    -5.3019  -4.2569  -3.9914  -3.9901  -3.9760  -3.9673  -3.8622  -3.8621
    -3.8440  -3.8436  -3.7975  -3.7973  -3.7655  -3.7538  -3.7486  -3.7269
    -3.7207  -3.7127  -3.6459  -3.6104  -3.5666  -3.5646  -3.5635  -3.5606
    -3.5476  -3.5474  -3.5402  -3.5186  -3.5150  -3.4964  -3.4695  -3.4674
    -3.4650  -3.4527  -3.4418  -3.4408  -3.4353  -3.4291  -3.4263  -3.3837
    -3.3821  -3.3663  -3.3445  -3.3297  -3.3259  -3.3147  -3.3142  -3.3047
    -3.2898  -3.2830  -3.2794  -3.2741  -3.2555  -3.2387  -3.2386  -3.2380
    -3.2378  -3.2323  -3.2283  -3.2014  -3.1996  -3.1916  -3.1805  -3.1735
    -3.1673  -3.1607  -3.1555  -3.1498  -3.1411  -3.1361  -3.0913  -3.0812
    -3.0769  -3.0666  -3.0615  -3.0347  -3.0340  -2.9992  -2.9954  -2.9938
    -2.9926  -2.9750  -2.9748  -2.9748  -2.9745  -2.9347  -2.9325  -2.9264
    -2.9252  -2.9098  -2.9022  -2.8850  -2.8839  -2.8813  -2.8807  -2.8704
    -2.8622  -2.8556  -2.8425  -2.8319  -2.8291  -2.8186  -2.7929  -2.7855
    -2.7853  -2.7756  -2.7723  -2.7610  -2.7588  -2.6960  -2.6917  -2.6663
    -2.6584  -2.6395  -2.6132  -2.6110  -2.6004  -2.5909  -2.5899  -2.5304
    -2.5267  -2.5066  -2.4709  -2.4597  -2.4499  -2.4426  -2.4309  -2.4251
    -2.3366  -2.3003  -2.2383

     the Fermi energy is    -4.7063 ev

!    total energy              =  -26031.76683595 Ry
     total all-electron energy =   -512284.336464 Ry
     estimated scf accuracy    <       0.00000056 Ry
     smearing contrib. (-TS)   =      -0.00000075 Ry
     internal energy E=F+TS    =  -26031.76683520 Ry

     The total energy is F=E-TS. E is the sum of the following terms:
     one-electron contribution =  492155.03786762 Ry
     hartree contribution      = -246217.35846398 Ry
     xc contribution           =   -1534.65425615 Ry
     ewald contribution        = -254242.00421109 Ry
     DFT-D3 Dispersion         =      -4.02004507 Ry
     one-center paw contrib.   =  -16188.76772653 Ry

     convergence has been achieved in  21 iterations

     negative rho (up, down):  9.076E-04 0.000E+00

     Forces acting on atoms (cartesian axes, Ry/au):

     atom    1 type  1   force =    -0.00021100   -0.00027733    0.00082678
     atom    2 type  1   force =    -0.00000345   -0.00000286    0.00190324
     atom    3 type  1   force =     0.00003128    0.00001966   -0.00000287
     atom    4 type  2   force =     0.00000052    0.00000039   -0.00337314
     atom    5 type  2   force =     0.00000700    0.00000259   -0.00011204
     atom    6 type  2   force =     0.00005270    0.00032728   -0.00016021
     atom    7 type  2   force =     0.00000262   -0.00000316    0.00156897
     atom    8 type  2   force =     0.00001079   -0.00001529    0.00007704
     atom    9 type  2   force =     0.00034439   -0.00000832    0.00087609
     atom   10 type  1   force =     0.00031962    0.00028667    0.00068305
     atom   11 type  1   force =     0.00000202    0.00000581    0.00190249
     atom   12 type  1   force =     0.00003667    0.00002193    0.00001740
     atom   13 type  2   force =    -0.00000075    0.00000047   -0.00337059
     atom   14 type  2   force =    -0.00002484   -0.00001471   -0.00011114
     atom   15 type  2   force =     0.00112261    0.00072108   -0.00146706
     atom   16 type  2   force =    -0.00000147    0.00000050    0.00158723
     atom   17 type  2   force =    -0.00002344   -0.00002036    0.00006077
     atom   18 type  2   force =    -0.00073416   -0.00061031   -0.00174311
     atom   19 type  1   force =    -0.00033432    0.00019103    0.00051502
     atom   20 type  1   force =    -0.00000030    0.00000055    0.00190489
     atom   21 type  1   force =     0.00004688    0.00003017   -0.00002004
     atom   22 type  2   force =    -0.00000153    0.00000182   -0.00336969
     atom   23 type  2   force =     0.00000452    0.00000620   -0.00012109
     atom   24 type  2   force =     0.00015117   -0.00030992   -0.00034030
     atom   25 type  2   force =    -0.00000284    0.00000354    0.00157100
     atom   26 type  2   force =     0.00000605    0.00002559    0.00007196
     atom   27 type  2   force =     0.00005611    0.00061217    0.00090047
     atom   28 type  1   force =     0.00073562    0.00042321    0.00014785
     atom   29 type  1   force =     0.00000202   -0.00000162    0.00190670
     atom   30 type  1   force =     0.00000652   -0.00000195   -0.00005098
     atom   31 type  2   force =     0.00000030   -0.00000062   -0.00337123
     atom   32 type  2   force =     0.00000020   -0.00000121   -0.00014177
     atom   33 type  2   force =    -0.00011864    0.00006600   -0.00021225
     atom   34 type  2   force =    -0.00000198   -0.00000289    0.00158056
     atom   35 type  2   force =    -0.00000387   -0.00000027    0.00009569
     atom   36 type  2   force =     0.00011263   -0.00006690    0.00016025
     atom   37 type  1   force =    -0.00366479   -0.00026844   -0.00130591
     atom   38 type  1   force =     0.00000495    0.00000119    0.00190175
     atom   39 type  1   force =    -0.00004246    0.00003385   -0.00000923
     atom   40 type  2   force =    -0.00000033   -0.00000019   -0.00337165
     atom   41 type  2   force =    -0.00001000    0.00000302   -0.00010345
     atom   42 type  2   force =     0.00000455    0.00084380   -0.00011091
     atom   43 type  2   force =     0.00000000    0.00000197    0.00158072
     atom   44 type  2   force =    -0.00001737   -0.00001100    0.00014391
     atom   45 type  2   force =    -0.00052702    0.00006643    0.00052563
     atom   46 type  1   force =     0.00017884   -0.00009736    0.00021110
     atom   47 type  1   force =     0.00000586    0.00000742    0.00190575
     atom   48 type  1   force =    -0.00001561   -0.00006323   -0.00004588
     atom   49 type  2   force =     0.00000087    0.00000091   -0.00337091
     atom   50 type  2   force =     0.00000034    0.00000619   -0.00010685
     atom   51 type  2   force =     0.00014917    0.00003218   -0.00020522
     atom   52 type  2   force =     0.00000018    0.00000697    0.00157602
     atom   53 type  2   force =    -0.00002036    0.00001390    0.00008734
     atom   54 type  2   force =    -0.00059408   -0.00116978   -0.00102743
     atom   55 type  1   force =    -0.00008947   -0.00042229    0.00068560
     atom   56 type  1   force =     0.00000724    0.00000027    0.00190439
     atom   57 type  1   force =    -0.00004429    0.00002745   -0.00004900
     atom   58 type  2   force =    -0.00000119   -0.00000063   -0.00337130
     atom   59 type  2   force =     0.00000514   -0.00000471   -0.00009985
     atom   60 type  2   force =     0.00045652   -0.00026408   -0.00009710
     atom   61 type  2   force =     0.00000365   -0.00000328    0.00157553
     atom   62 type  2   force =     0.00001194   -0.00000934    0.00010197
     atom   63 type  2   force =    -0.00033435    0.00019292   -0.00019259
     atom   64 type  1   force =    -0.00155231   -0.00373831   -0.00191767
     atom   65 type  1   force =     0.00000166   -0.00000000    0.00190603
     atom   66 type  1   force =    -0.00000234   -0.00005604   -0.00002393
     atom   67 type  2   force =    -0.00000093    0.00000023   -0.00337154
     atom   68 type  2   force =    -0.00000386   -0.00001063   -0.00012206
     atom   69 type  2   force =     0.00034741    0.00002219   -0.00033767
     atom   70 type  2   force =     0.00000150   -0.00000284    0.00157787
     atom   71 type  2   force =    -0.00001923   -0.00002159    0.00007154
     atom   72 type  2   force =    -0.00050272   -0.00035402    0.00090272
     atom   73 type  1   force =    -0.00019667    0.00010882   -0.03464130
     atom   74 type  1   force =    -0.00000564    0.00000186    0.00190374
     atom   75 type  1   force =     0.00002928    0.00000137   -0.00000696
     atom   76 type  2   force =    -0.00000042    0.00000136   -0.00337129
     atom   77 type  2   force =     0.00004790    0.00002647   -0.00006378
     atom   78 type  2   force =     0.00067603    0.00039024    0.00355101
     atom   79 type  2   force =    -0.00000289    0.00000094    0.00156948
     atom   80 type  2   force =    -0.00003383   -0.00003997    0.00020463
     atom   81 type  2   force =    -0.02083960   -0.01196120    0.02465413
     atom   82 type  1   force =    -0.00161059    0.00331450   -0.00131073
     atom   83 type  1   force =    -0.00000434   -0.00000439    0.00190345
     atom   84 type  1   force =    -0.00003490    0.00002243    0.00001854
     atom   85 type  2   force =     0.00000082    0.00000046   -0.00337218
     atom   86 type  2   force =     0.00002368   -0.00001170   -0.00009823
     atom   87 type  2   force =    -0.00125770    0.00072876   -0.00124295
     atom   88 type  2   force =     0.00000135    0.00000756    0.00157661
     atom   89 type  2   force =     0.00003233   -0.00001675    0.00011657
     atom   90 type  2   force =    -0.00041867    0.00024480   -0.00172298
     atom   91 type  1   force =     0.00014037    0.00031845    0.00082933
     atom   92 type  1   force =    -0.00000440   -0.00000374    0.00190066
     atom   93 type  1   force =     0.00004607    0.00004902   -0.00004788
     atom   94 type  2   force =     0.00000120   -0.00000016   -0.00337118
     atom   95 type  2   force =    -0.00000419   -0.00000480   -0.00010818
     atom   96 type  2   force =     0.00004775   -0.00014420   -0.00020555
     atom   97 type  2   force =     0.00000076   -0.00000045    0.00157565
     atom   98 type  2   force =    -0.00001922    0.00000926    0.00008642
     atom   99 type  2   force =     0.00071732    0.00109907   -0.00102399
     atom  100 type  1   force =     0.00177833   -0.00382964   -0.00213312
     atom  101 type  1   force =    -0.00000381   -0.00000619    0.00190275
     atom  102 type  1   force =    -0.00000429   -0.00004717    0.00001308
     atom  103 type  2   force =    -0.00000045    0.00000018   -0.00337099
     atom  104 type  2   force =     0.00000047    0.00002594   -0.00011128
     atom  105 type  2   force =    -0.00006012   -0.00133407   -0.00146315
     atom  106 type  2   force =     0.00000420   -0.00000333    0.00157611
     atom  107 type  2   force =     0.00000644    0.00002979    0.00006609
     atom  108 type  2   force =     0.00016350    0.00093624   -0.00173711
     atom  109 type  1   force =     0.00419288    0.00037116   -0.00212269
     atom  110 type  1   force =     0.00000540   -0.00000117    0.00190482
     atom  111 type  1   force =    -0.00001275    0.00000996    0.00011792
     atom  112 type  2   force =    -0.00000107   -0.00000010   -0.00337235
     atom  113 type  2   force =    -0.00004819    0.00002780   -0.00005964
     atom  114 type  2   force =    -0.00087186    0.00050379    0.00336803
     atom  115 type  2   force =    -0.00000191    0.00000143    0.00158736
     atom  116 type  2   force =     0.00004213   -0.00002215    0.00020736
     atom  117 type  2   force =     0.02073734   -0.01197087    0.02415257
     atom  118 type  1   force =     0.00245312    0.00320743   -0.00190881
     atom  119 type  1   force =    -0.00000222    0.00000610    0.00190478
     atom  120 type  1   force =     0.00001649   -0.00002719   -0.00000909
     atom  121 type  2   force =    -0.00000157    0.00000014   -0.00336738
     atom  122 type  2   force =     0.00000218   -0.00005326   -0.00006139
     atom  123 type  2   force =    -0.00000115   -0.00077591    0.00355152
     atom  124 type  2   force =    -0.00000294    0.00000251    0.00158644
     atom  125 type  2   force =     0.00002098    0.00005137    0.00020072
     atom  126 type  2   force =    -0.00005954    0.02408858    0.02463372
     atom  127 type  1   force =    -0.00000390   -0.00085473    0.00014931
     atom  128 type  1   force =     0.00000124   -0.00000295    0.00190410
     atom  129 type  1   force =    -0.00004918    0.00001966   -0.00000785
     atom  130 type  2   force =    -0.00000066    0.00000013   -0.00336985
     atom  131 type  2   force =    -0.00000615    0.00000583   -0.00010329
     atom  132 type  2   force =    -0.00072822   -0.00042536   -0.00011048
     atom  133 type  2   force =    -0.00000527   -0.00000324    0.00157568
     atom  134 type  2   force =     0.00000355    0.00002071    0.00014346
     atom  135 type  2   force =    -0.00032095    0.00042420    0.00052900
     atom  136 type  1   force =    -0.00059194    0.00033137    0.00028751
     atom  137 type  1   force =     0.00000138   -0.00000142    0.00190290
     atom  138 type  1   force =    -0.00000237   -0.00003742   -0.00000144
     atom  139 type  2   force =     0.00000100   -0.00000287   -0.00337001
     atom  140 type  2   force =     0.00000259   -0.00000695   -0.00011515
     atom  141 type  2   force =    -0.00025875   -0.00021270   -0.00015737
     atom  142 type  2   force =    -0.00000424   -0.00000600    0.00157356
     atom  143 type  2   force =     0.00002040   -0.00000325    0.00007613
     atom  144 type  2   force =     0.00018087   -0.00029665    0.00087624
     atom  145 type  3   force =     0.00196503   -0.00112346    0.00042351
     atom  146 type  4   force =    -0.00121459    0.00067365   -0.03567327

     Total force =     0.078772     Total SCF correction =     0.003956

     BFGS Geometry Optimization
     Energy error            =      0.0E+00 Ry
     Gradient error          =      3.6E-02 Ry/Bohr

     number of scf cycles    =   1
     number of bfgs steps    =   0

     energy             new  =  -26031.7668359484 Ry

     new trust radius        =       0.0357002989 bohr
     new conv_thr            =       0.0000010000 Ry


ATOMIC_POSITIONS (angstrom)
[...]
     atom   70 type  2   force =     0.00001004   -0.00000573    0.00148920
     atom   71 type  2   force =     0.00000446   -0.00002152   -0.00002660
     atom   72 type  2   force =    -0.00015594    0.00009792   -0.00021152
     atom   73 type  1   force =     0.00001421   -0.00001169    0.00058186
     atom   74 type  1   force =    -0.00000022    0.00000083    0.00189693
     atom   75 type  1   force =    -0.00000490    0.00000100    0.00002372
     atom   76 type  2   force =     0.00000087   -0.00000051   -0.00327932
     atom   77 type  2   force =     0.00000721   -0.00000924    0.00002721
     atom   78 type  2   force =     0.00026003    0.00015224   -0.00055750
     atom   79 type  2   force =     0.00000394    0.00000627    0.00149134
     atom   80 type  2   force =    -0.00000123    0.00000425   -0.00000196
     atom   81 type  2   force =    -0.00003235   -0.00002972   -0.00023589
     atom   82 type  1   force =     0.00037229   -0.00016474    0.00010359
     atom   83 type  1   force =     0.00000150   -0.00000111    0.00189444
     atom   84 type  1   force =     0.00002601   -0.00001421   -0.00001149
     atom   85 type  2   force =     0.00000137   -0.00000082   -0.00327874
     atom   86 type  2   force =    -0.00000325    0.00000228    0.00003137
     atom   87 type  2   force =     0.00088062   -0.00050921    0.00064671
     atom   88 type  2   force =     0.00000664    0.00000495    0.00149060
     atom   89 type  2   force =     0.00001522   -0.00000845   -0.00002097
     atom   90 type  2   force =    -0.00001324    0.00000839   -0.00007971
     atom   91 type  1   force =    -0.00006684   -0.00003770    0.00018362
     atom   92 type  1   force =    -0.00000015   -0.00000199    0.00189555
     atom   93 type  1   force =    -0.00002118   -0.00002408   -0.00003977
     atom   94 type  2   force =     0.00000129   -0.00000066   -0.00327896
     atom   95 type  2   force =     0.00000971   -0.00001199    0.00000241
     atom   96 type  2   force =     0.00043094    0.00020959   -0.00017468
     atom   97 type  2   force =     0.00000347   -0.00000192    0.00148987
     atom   98 type  2   force =    -0.00001941    0.00000520   -0.00003136
     atom   99 type  2   force =    -0.00011322    0.00000403    0.00004255
     atom  100 type  1   force =     0.00003862    0.00040449    0.00016577
     atom  101 type  1   force =     0.00000058   -0.00000008    0.00189640
     atom  102 type  1   force =     0.00000304    0.00002159   -0.00000518
     atom  103 type  2   force =     0.00000095   -0.00000021   -0.00327860
     atom  104 type  2   force =    -0.00001001    0.00001824   -0.00000454
     atom  105 type  2   force =     0.00005867    0.00088411    0.00076500
     atom  106 type  2   force =     0.00000773    0.00000051    0.00149495
     atom  107 type  2   force =    -0.00000063   -0.00002093   -0.00002914
     atom  108 type  2   force =    -0.00001252    0.00001548    0.00007414
     atom  109 type  1   force =    -0.00033185   -0.00023457    0.00016612
     atom  110 type  1   force =    -0.00000117    0.00000042    0.00189735
     atom  111 type  1   force =     0.00000279   -0.00000125    0.00000605
     atom  112 type  2   force =     0.00000101   -0.00000038   -0.00327907
     atom  113 type  2   force =     0.00001194   -0.00000720   -0.00002685
     atom  114 type  2   force =    -0.00003847    0.00002237   -0.00063071
     atom  115 type  2   force =     0.00000006    0.00000512    0.00150539
     atom  116 type  2   force =     0.00007317   -0.00004290   -0.00005707
     atom  117 type  2   force =    -0.00025752    0.00014785   -0.00029386
     atom  118 type  1   force =    -0.00029840   -0.00013181    0.00007196
     atom  119 type  1   force =    -0.00000108   -0.00000057    0.00189692
     atom  120 type  1   force =    -0.00000431    0.00000438    0.00002372
     atom  121 type  2   force =     0.00000108   -0.00000055   -0.00327892
     atom  122 type  2   force =     0.00001279   -0.00000156    0.00002747
     atom  123 type  2   force =    -0.00000263   -0.00030173   -0.00055727
     atom  124 type  2   force =     0.00000105   -0.00000054    0.00150700
     atom  125 type  2   force =    -0.00000349   -0.00000120   -0.00000300
     atom  126 type  2   force =     0.00000850    0.00003683   -0.00023130
     atom  127 type  1   force =    -0.00001082    0.00007034   -0.00026998
     atom  128 type  1   force =     0.00000031   -0.00000427    0.00189852
     atom  129 type  1   force =    -0.00000682    0.00001423   -0.00000161
     atom  130 type  2   force =     0.00000145   -0.00000064   -0.00327875
     atom  131 type  2   force =     0.00000352    0.00002551   -0.00002042
     atom  132 type  2   force =    -0.00008456   -0.00035484    0.00028830
     atom  133 type  2   force =    -0.00000090   -0.00000809    0.00149062
     atom  134 type  2   force =     0.00000265    0.00008153   -0.00006068
     atom  135 type  2   force =     0.00019471    0.00005984   -0.00015376
     atom  136 type  1   force =     0.00002666   -0.00001567   -0.00020670
     atom  137 type  1   force =    -0.00000210   -0.00000144    0.00189983
     atom  138 type  1   force =     0.00000861   -0.00002441    0.00000670
     atom  139 type  2   force =     0.00000109   -0.00000055   -0.00327941
     atom  140 type  2   force =     0.00003909    0.00002639    0.00004198
     atom  141 type  2   force =    -0.00025768    0.00011032    0.00028346
     atom  142 type  2   force =    -0.00001008   -0.00000531    0.00148624
     atom  143 type  2   force =    -0.00002770   -0.00001392    0.00006886
     atom  144 type  2   force =     0.00012496    0.00012828   -0.00009375
     atom  145 type  3   force =    -0.00035311    0.00020472   -0.00048474
     atom  146 type  4   force =    -0.00004899    0.00003244   -0.00036797

     Total force =     0.003266     Total SCF correction =     0.000749
     SCF correction compared to forces is large: reduce conv_thr to get better values
     Energy error            =      2.8E-05 Ry
     Gradient error          =      8.8E-04 Ry/Bohr

     bfgs converged in  18 scf cycles and  17 bfgs steps
     (criteria: energy <  1.0E-04 Ry, force <  1.0E-03 Ry/Bohr)

     End of BFGS Geometry Optimization

     Final energy             =  -26031.7958110477 Ry

     File ./outdir/pwscf.bfgs deleted, as requested
Begin final coordinates

ATOMIC_POSITIONS (angstrom)
Mo               1.5702825118        2.7174252345        6.0737171092
Mo               1.5769197498        0.9104407117       -6.0872367793    0   0   0
Mo              -0.0002334519        1.8210967134       -0.0000086891
S                0.0000044503        0.0000077495       -7.6506323570    0   0   0
S                1.5765573604        0.9113737942       -1.5666305746
S               -0.0013022657        1.8240186081        4.4958879175
S                0.0000053241        0.0000068460       -4.5222282367    0   0   0
S                1.5773492001        0.9098061970        1.5652468415
S                0.0084820244        1.8053600974        7.6422436368
Mo              -0.0118667039        5.4646086481        6.0852225140
Mo               0.0000011799        3.6417399547       -6.0872367793    0   0   0
Mo              -1.5768044232        4.5521466831       -0.0004037727
S               -1.5769141197        2.7313069925       -7.6506323570    0   0   0
S               -0.0001945085        3.6414226033       -1.5659870146
S               -1.5722311241        4.5540459015        4.5062980591
S               -1.5769132459        2.7313060890       -4.5222282367    0   0   0
S                0.0012493701        3.6427836865        1.5669543745
S               -1.5851634197        4.5523711386        7.6489630554
Mo              -1.5790319293        8.1951127353        6.0629152339
Mo              -1.5769173901        6.3730391977       -6.0872367793    0   0   0
Mo              -3.1540007105        7.2830106642       -0.0016608677
S               -3.1538326896        5.4626062355       -7.6506323570    0   0   0
S               -1.5770942613        6.3724145840       -1.5669113449
S               -3.1549102188        7.2826100432        4.4965833617
S               -3.1538318159        5.4626053320       -4.5222282367    0   0   0
S               -1.5766808516        6.3735728228        1.5653325997
S               -3.1455278772        7.3030394930        7.6387063484
Mo               3.1525880387       -0.0024520885        6.0681549287
Mo              -3.1538359601        9.1043384407       -6.0872367793    0   0   0
Mo              -4.7308702710       10.0148187808       -0.0025931843
S               -4.7307512596        8.1939054785       -7.6506323570    0   0   0
S               -3.1534930280        9.1041199022       -1.5674115587
S               -4.7289304386       10.0137119085        4.4987092182
S               -4.7307503859        8.1939045750       -4.5222282367    0   0   0
S               -3.1540109235        9.1044185151        1.5641570906
S               -4.7319348444       10.0154358013        7.6342509064
Mo               4.7178326472        2.7197372703        6.0939975952
Mo               4.7307503218        0.9104407117       -6.0872367793    0   0   0
Mo               3.1541762855        1.8210628837       -0.0009359203
S                3.1538350223        0.0000077495       -7.6506323570    0   0   0
S                4.7314213247        0.9111685534       -1.5662607606
S                3.1554852720        1.8225747032        4.5037149485
S                3.1538358961        0.0000068460       -4.5222282367    0   0   0
S                4.7315483164        0.9107801828        1.5666307792
S                3.1320183199        1.8104415336        7.6454334492
Mo               3.1531315111        5.4629879265        6.1445471753
Mo               3.1538317519        3.6417399547       -6.0872367793    0   0   0
Mo               1.5772286884        4.5521383387       -0.0014836579
S                1.5769164523        2.7313069925       -7.6506323570    0   0   0
S                3.1541383412        3.6416230236       -1.5666505282
S                1.5990308734        4.5690517016        4.5534239863
S                1.5769173261        2.7313060890       -4.5222282367    0   0   0
S                3.1537296237        3.6420210259        1.5663781785
S                1.4840855618        4.4953710219        7.6977816166
Mo               1.5692244519        8.2031501301        6.0852236648
Mo               1.5769131819        6.3730391977       -6.0872367793    0   0   0
Mo              -0.0000532897        7.2834811173       -0.0020534138
S               -0.0000021176        5.4626062355       -7.6506323570    0   0   0
S                1.5771133507        6.3729021249       -1.5671743701
S                0.0062900832        7.2798190421        4.5082481074
S               -0.0000012439        5.4626053320       -4.5222282367    0   0   0
S                1.5768528493        6.3730512844        1.5651818519
S               -0.0084587299        7.2883310542        7.6435839344
Mo               6.3028207116       -0.0192036946        6.0783074612
Mo              -0.0000053881        9.1043384407       -6.0872367793    0   0   0
Mo              -1.5766207666       10.0151164218       -0.0016594224
S               -1.5769206876        8.1939054785       -7.6506323570    0   0   0
S                0.0004268770        9.1047750393       -1.5669155645
S               -1.5767182779       10.0161221510        4.4965901857
S               -1.5769198139        8.1939045750       -4.5222282367    0   0   0
S               -0.0003711617        9.1038374742        1.5653348039
S               -1.5897158827        9.9977708510        7.6387144989
Mo               7.8827062472        2.7323835458        6.1325789537
Mo               7.8845808939        0.9104407117       -6.0872367793    0   0   0
Mo               6.3078851578        1.8212937463       -0.0000241669
S                6.3076655943        0.0000077495       -7.6506323570    0   0   0
S                7.8845855438        0.9106202788       -1.5656202954
S                6.3274126460        1.8345421014        4.5576915129
S                6.3076664681        0.0000068460       -4.5222282367    0   0   0
S                7.8843517940        0.9103217616        1.5674670097
S                6.1827232223        1.7274214809        7.7257069014
Mo               6.3112058272        5.4795570287        6.0939899269
Mo               6.3076623239        3.6417399547       -6.0872367793    0   0   0
Mo               4.7305969315        4.5522377138       -0.0006862769
S                4.7307470244        2.7313069925       -7.6506323570    0   0   0
S                6.3077151745        3.6416882626       -1.5657410634
S                4.7099972071        4.5641342832        4.5605969293
S                4.7307478981        2.7313060890       -4.5222282367    0   0   0
S                6.3066151504        3.6423224269        1.5683220175
S                4.8268401686        4.4966783321        7.7059010785
Mo               4.7394194636        8.2065677932        6.0737056866
Mo               4.7307437539        6.3730391977       -6.0872367793    0   0   0
Mo               3.1539976571        7.2831871853       -0.0014832870
S                3.1538284544        5.4626062355       -7.6506323570    0   0   0
S                4.7309776994        6.3728020083       -1.5666506442
S                3.1502377627        7.2558441856        4.5534183445
S                3.1538293281        5.4626053320       -4.5222282367    0   0   0
S                4.7304274024        6.3729553872        1.5663789338
S                3.1565849584        7.3922327637        7.6977773658
Mo               9.4665242853       -0.0162617927        6.0800760956
Mo               3.1538251839        9.1043384407       -6.0872367793    0   0   0
Mo               1.5769695493       10.0146582644       -0.0004031138
S                1.5769098844        8.1939054785       -7.6506323570    0   0   0
S                3.1539843790        9.1046360926       -1.5659873125
S                1.5776141348       10.0097512458        4.5063012151
S                1.5769107581        8.1939045750       -4.5222282367    0   0   0
S                3.1535272614        9.1027045216        1.5669542746
S                1.5726008381       10.0217847730        7.6489693673
Mo              -1.5603174112        2.7350600537        6.0800732430
Mo              11.0384114659        0.9104407117       -6.0872367793    0   0   0
Mo               9.4610649316        1.8211013916       -0.0000127300
S                9.4614961663        0.0000077495       -7.6506323570    0   0   0
S               11.0380055227        0.9106548705       -1.5651974653
S                9.4364355619        1.8353272548        4.5575928036
S                9.4614970401        0.0000068460       -4.5222282367    0   0   0
S               11.0372431140        0.9110954609        1.5675349253
S                9.5860973476        1.7489246703        7.7165716128
Mo              -3.1396283296        5.4763982434        6.0782995907
Mo               9.4614928959        3.6417399547       -6.0872367793    0   0   0
Mo               7.8843058335        4.5517404763       -0.0000227703
S                7.8845775964        2.7313069925       -7.6506323570    0   0   0
S                9.4613187864        3.6416149873       -1.5656205523
S                7.8826041579        4.5282239483        4.5576843283
S                7.8845784701        2.7313060890       -4.5222282367    0   0   0
S                9.4614617404        3.6419662634        1.5674689439
S                7.9030282094        4.7070778866        7.7256934322
Mo              -4.7292596116        8.1961990752        6.0681441863
Mo               7.8845743259        6.3730391977       -6.0872367793    0   0   0
Mo               6.3076469087        7.2830522307       -0.0009360195
S                6.3076590264        5.4626062355       -7.6506323570    0   0   0
S                7.8842625082        6.3720633936       -1.5662579527
S                6.3069895457        7.2811687950        4.5037082551
S                6.3076599001        5.4626053320       -4.5222282367    0   0   0
S                7.8846618559        6.3721472368        1.5666313481
S                6.3057645214        7.3075621658        7.6454167959
Mo               0.0000004112       -0.0000075032        6.0617070296
Mo               6.3076557559        9.1043384407       -6.0872367793    0   0   0
Mo               4.7304092142       10.0148341306       -0.0000089240
S                4.7307404564        8.1939054785       -7.6506323570    0   0   0
S                6.3066499398        9.1041536513       -1.5666302672
S                4.7273385629       10.0143146276        4.4958851835
S                4.7307413301        8.1939045750       -4.5222282367    0   0   0
S                6.3084028745        9.1042524803        1.5652475018
S                4.7483902175       10.0151541298        7.6422387626
Pd               3.1674359677        5.4547250967        9.0180868185
Pt               7.8719625846        2.7385449196        8.8816675878
End final coordinates



     Writing all to output data dir ./outdir/pwscf.save/ :
     XML data file, charge density, pseudopotentials, collected wavefunctions
 
     init_run     :     96.04s CPU     98.28s WALL (       1 calls)
     electrons    :  81830.61s CPU  83024.43s WALL (      18 calls)
     update_pot   :     22.48s CPU     23.16s WALL (      17 calls)
     forces       :   1291.96s CPU   1320.26s WALL (      18 calls)
     force_dftd3  :      6.91s CPU      7.27s WALL (      18 calls)

     Called by init_run:
     wfcinit      :     77.82s CPU     78.83s WALL (       1 calls)
     potinit      :      1.11s CPU      1.21s WALL (       1 calls)
     hinit0       :      9.28s CPU      9.35s WALL (       1 calls)

     Called by electrons:
     c_bands      :  71044.96s CPU  71739.14s WALL (     249 calls)
     sum_band     :   9237.80s CPU   9490.29s WALL (     249 calls)
     v_of_rho     :     73.60s CPU     82.27s WALL (     256 calls)
     newd         :   1304.75s CPU   1547.25s WALL (     256 calls)
     PAW_pot      :    208.88s CPU    210.48s WALL (     273 calls)
     mix_rho      :     20.12s CPU     22.78s WALL (     249 calls)
     energy_dftd3 :      3.90s CPU      3.93s WALL (      18 calls)

     Called by c_bands:
     init_us_2    :    347.88s CPU    349.55s WALL (    2136 calls)
     init_us_2:cp :    347.86s CPU    349.54s WALL (    2136 calls)
     cegterg      :  69567.53s CPU  70255.04s WALL (    1014 calls)

     Called by *egterg:
     cdiaghg      :   3395.25s CPU   3531.66s WALL (   11268 calls)
     h_psi        :  36439.58s CPU  36663.22s WALL (   11392 calls)
     s_psi        :   7727.76s CPU   7758.61s WALL (   11392 calls)
     g_psi        :     80.02s CPU     80.36s WALL (   10374 calls)

     Called by h_psi:
     h_psi:calbec :   7546.59s CPU   7570.54s WALL (   11392 calls)
     vloc_psi     :  20953.23s CPU  21059.44s WALL (   11392 calls)
     add_vuspsi   :   7766.48s CPU   7800.51s WALL (   11392 calls)

     General routines
     calbec       :  10740.64s CPU  10774.88s WALL (   12744 calls)
     fft          :     65.56s CPU     73.81s WALL (    3518 calls)
     ffts         :      3.29s CPU      3.36s WALL (     505 calls)
     fftw         :  15587.38s CPU  15666.82s WALL ( 5464938 calls)
     interpolate  :      6.05s CPU      6.65s WALL (     256 calls)
 
     Parallel routines
 
     PWSCF        :     23h14m CPU     23h36m WALL

 
   This run was terminated on:  15: 2:44  12Mar2024            

=------------------------------------------------------------------------------=
   JOB DONE.
=------------------------------------------------------------------------------=
