
     Program PWSCF v.7.3 starts on 18Apr2024 at 12:30: 8 

     This program is part of the open-source Quantum ESPRESSO suite
     for quantum simulation of materials; please cite
         "P. Giannozzi et al., J. Phys.:Condens. Matter 21 395502 (2009);
         "P. Giannozzi et al., J. Phys.:Condens. Matter 29 465901 (2017);
         "P. Giannozzi et al., J. Chem. Phys. 152 154105 (2020);
          URL http://www.quantum-espresso.org", 
     in publications or presentations arising from this work. More details at
     http://www.quantum-espresso.org/quote

     Parallel version (MPI & OpenMP), running on      36 processor cores
     Number of MPI processes:                36
     Threads/MPI process:                     1

     MPI processes distributed on     1 nodes
     553701 MiB available memory on the printing compute node when the environment starts
 
     Waiting for input...
     Reading input from standard input
Warning: card &CELL ignored
Warning: card / ignored

     Current dimensions of program PWSCF are:
     Max number of different atomic species (ntypx) = 10
     Max number of k-points (npk) =  40000
     Max angular momentum in pseudopotentials (lmaxx) =  4
     file Mo.pbe-spn-kjpaw_psl.1.0.0.UPF: wavefunction(s)  4S 4D renormalized
     file S.pbe-n-kjpaw_psl.1.0.0.UPF: wavefunction(s)  3S 3P renormalized
     file Pt.pbe-spfn-kjpaw_psl.1.0.0.UPF: wavefunction(s)  5P 4F renormalized
     file Pd.pbe-spn-kjpaw_psl.1.0.0.UPF: wavefunction(s)  4S 5S 4D renormalized
 
     R & G space division:  proc/nbgrp/npool/nimage =      36
     Subspace diagonalization in iterative solution of the eigenvalue problem:
     one sub-group per band group will be used
     scalapack distributed-memory algorithm (size of sub-group:  6*  6 procs)

 
     Parallelization info
     --------------------
     sticks:   dense  smooth     PW     G-vecs:    dense   smooth      PW
     Min         586     335     89               165416    71459    9765
     Max         587     337     90               165425    71461    9778
     Sum       21109   12085   3205              5955087  2572543  351657
 
     Using Slab Decomposition
 


     bravais-lattice index     =            0
     lattice parameter (alat)  =      23.8395  a.u.
     unit-cell volume          =   28182.8498 (a.u.)^3
     number of atoms/cell      =          147
     number of atomic types    =            4
     number of electrons       =      1316.00
     number of Kohn-Sham states=          790
     kinetic-energy cutoff     =      77.0000  Ry
     charge density cutoff     =     539.0000  Ry
     scf convergence threshold =      1.0E-06
     mixing beta               =       0.2000
     number of iterations used =            8  plain     mixing
     energy convergence thresh.=      1.0E-04
     force convergence thresh. =      1.0E-03
     Exchange-correlation= SLA  PW   PBX  PBC
                           (   1   4   3   4   0   0   0)
     nstep                     =         1000


     Effective Screening Medium Method
     =================================
     Boundary Conditions: Vacuum-Slab-Vacuum
     total charge in unit cell        =   0.0000
     grid points for fit at edges     =        4 
 

     celldm(1)=  23.839504  celldm(2)=   0.000000  celldm(3)=   0.000000
     celldm(4)=   0.000000  celldm(5)=   0.000000  celldm(6)=   0.000000

     crystal axes: (cart. coord. in units of alat)
               a(1) = (   1.000000   0.000000   0.000000 )  
               a(2) = (  -0.500001   0.866026   0.000000 )  
               a(3) = (   0.000000   0.000000   2.401941 )  

     reciprocal axes: (cart. coord. in units 2 pi/alat)
               b(1) = (  1.000000  0.577351  0.000000 )  
               b(2) = (  0.000000  1.154700  0.000000 )  
               b(3) = (  0.000000  0.000000  0.416330 )  


     PseudoPot. # 1 for Mo read from file:
     ./pseudo/Mo.pbe-spn-kjpaw_psl.1.0.0.UPF
     MD5 check sum: 317bf72632116215fd98f72de1686f13
     Pseudo is Projector augmented-wave + core cor, Zval = 14.0
     Generated using 'atomic' code by A. Dal Corso  v.7.2
     Shape of augmentation charge: PSQ
     Using radial grid of 1229 points,  6 beta functions with: 
                l(1) =   0
                l(2) =   0
                l(3) =   1
                l(4) =   1
                l(5) =   2
                l(6) =   2
     Q(r) pseudized with 0 coefficients 


     PseudoPot. # 2 for S  read from file:
     ./pseudo/S.pbe-n-kjpaw_psl.1.0.0.UPF
     MD5 check sum: 8b7b5302570d38d5e87fed6a1065abda
     Pseudo is Projector augmented-wave + core cor, Zval =  6.0
     Generated using 'atomic' code by A. Dal Corso  v.7.2
     Shape of augmentation charge: PSQ
     Using radial grid of 1151 points,  6 beta functions with: 
                l(1) =   0
                l(2) =   0
                l(3) =   1
                l(4) =   1
                l(5) =   2
                l(6) =   2
     Q(r) pseudized with 0 coefficients 


     PseudoPot. # 3 for Pt read from file:
     ./pseudo/Pt.pbe-spfn-kjpaw_psl.1.0.0.UPF
     MD5 check sum: 620096ebf4e6ebacc94de60fd67efcb5
     Pseudo is Projector augmented-wave + core cor, Zval = 32.0
     Generated using 'atomic' code by A. Dal Corso  v.7.2
     Shape of augmentation charge: PSQ
     Using radial grid of 1277 points,  8 beta functions with: 
                l(1) =   0
                l(2) =   0
                l(3) =   1
                l(4) =   1
                l(5) =   2
                l(6) =   2
                l(7) =   3
                l(8) =   3
     Q(r) pseudized with 0 coefficients 


     PseudoPot. # 4 for Pd read from file:
     ./pseudo/Pd.pbe-spn-kjpaw_psl.1.0.0.UPF
     MD5 check sum: a60571a671f2502b8a6a4569d20a6edb
     Pseudo is Projector augmented-wave + core cor, Zval = 18.0
     Generated using 'atomic' code by A. Dal Corso  v.7.2
     Shape of augmentation charge: PSQ
     Using radial grid of 1235 points,  6 beta functions with: 
                l(1) =   0
                l(2) =   0
                l(3) =   1
                l(4) =   1
                l(5) =   2
                l(6) =   2
     Q(r) pseudized with 0 coefficients 


     atomic species   valence    mass     pseudopotential
     Mo               14.00    95.95000     Mo( 1.00)
     S                 6.00    32.06000     S ( 1.00)
     Pt               32.00   195.08400     Pt( 1.00)
     Pd               18.00   106.42000     Pd( 1.00)

     No symmetry found



   Cartesian axes

     site n.     atom                  positions (alat units)
         1        Mo     tau(   1) = (   0.1246074   0.2157200   0.4826345  )
         2        Mo     tau(   2) = (   0.1250004   0.0721694  -0.4825273  )
         3        Mo     tau(   3) = (   0.0000068   0.1443549  -0.0000406  )
         4        S      tau(   4) = (   0.0000004   0.0000006  -0.6064556  )
         5        S      tau(   5) = (   0.1249873   0.0722031  -0.1241756  )
         6        S      tau(   6) = (   0.0000973   0.1450650   0.3573519  )
         7        S      tau(   7) = (   0.0000004   0.0000005  -0.3584711  )
         8        S      tau(   8) = (   0.1249847   0.0720950   0.1240801  )
         9        S      tau(   9) = (  -0.0005301   0.1434694   0.6062599  )
        10        Mo     tau(  10) = (  -0.0009156   0.4330317   0.4832560  )
        11        Mo     tau(  11) = (   0.0000001   0.2886759  -0.4825273  )
        12        Mo     tau(  12) = (  -0.1249829   0.3608507   0.0000027  )
        13        S      tau(  13) = (  -0.1249999   0.2165071  -0.6064556  )
        14        S      tau(  14) = (   0.0000128   0.2886930  -0.1241006  )
        15        S      tau(  15) = (  -0.1248837   0.3612581   0.3580377  )
        16        S      tau(  16) = (  -0.1249998   0.2165070  -0.3584711  )
        17        S      tau(  17) = (   0.0000764   0.2887257   0.1242499  )
        18        S      tau(  18) = (  -0.1253220   0.3603286   0.6073134  )
        19        Mo     tau(  19) = (  -0.1249684   0.6493789   0.4818062  )
        20        Mo     tau(  20) = (  -0.1250002   0.5051824  -0.4825273  )
        21        Mo     tau(  21) = (  -0.2500040   0.5773207  -0.0001409  )
        22        S      tau(  22) = (  -0.2500002   0.4330136  -0.6064556  )
        23        S      tau(  23) = (  -0.1249903   0.5051158  -0.1241917  )
        24        S      tau(  24) = (  -0.2499555   0.5769406   0.3578597  )
        25        S      tau(  25) = (  -0.2500001   0.4330135  -0.3584711  )
        26        S      tau(  26) = (  -0.1249930   0.5052458   0.1241101  )
        27        S      tau(  27) = (  -0.2497899   0.5778453   0.6063597  )
        28        Mo     tau(  28) = (   0.2497834  -0.0005160   0.4806710  )
        29        Mo     tau(  29) = (  -0.2500004   0.7216889  -0.4825273  )
        30        Mo     tau(  30) = (  -0.3750188   0.7938286  -0.0001549  )
        31        S      tau(  31) = (  -0.3750004   0.6495201  -0.6064556  )
        32        S      tau(  32) = (  -0.2500074   0.7216649  -0.1242513  )
        33        S      tau(  33) = (  -0.3752234   0.7935039   0.3566636  )
        34        S      tau(  34) = (  -0.3750004   0.6495200  -0.3584711  )
        35        S      tau(  35) = (  -0.2499996   0.7216607   0.1240200  )
        36        S      tau(  36) = (  -0.3746819   0.7948899   0.6057341  )
        37        Mo     tau(  37) = (   0.3750034   0.2123618   0.4807886  )
        38        Mo     tau(  38) = (   0.3750004   0.0721694  -0.4825273  )
        39        Mo     tau(  39) = (   0.2499981   0.1443415  -0.0000413  )
        40        S      tau(  40) = (   0.2500004   0.0000006  -0.6064556  )
        41        S      tau(  41) = (   0.3750280   0.0722231  -0.1241519  )
        42        S      tau(  42) = (   0.2489233   0.1437373   0.3564531  )
        43        S      tau(  43) = (   0.2500004   0.0000005  -0.3584711  )
        44        S      tau(  44) = (   0.3749877   0.0720947   0.1241383  )
        45        S      tau(  45) = (   0.2497122   0.1423104   0.6055821  )
        46        Mo     tau(  46) = (   0.2490774   0.4329018   0.4862977  )
        47        Mo     tau(  47) = (   0.2500001   0.2886759  -0.4825273  )
        48        Mo     tau(  48) = (   0.1250319   0.3608540  -0.0000126  )
        49        S      tau(  49) = (   0.1250001   0.2165071  -0.6064556  )
        50        S      tau(  50) = (   0.2500259   0.2886851  -0.1240979  )
        51        S      tau(  51) = (   0.1263042   0.3620125   0.3614359  )
        52        S      tau(  52) = (   0.1250002   0.2165070  -0.3584711  )
        53        S      tau(  53) = (   0.2500168   0.2886898   0.1242904  )
        54        S      tau(  54) = (   0.1173694   0.3566575   0.6132890  )
        55        Mo     tau(  55) = (   0.1240062   0.6506471   0.4823696  )
        56        Mo     tau(  56) = (   0.1249998   0.5051824  -0.4825273  )
        57        Mo     tau(  57) = (   0.0000191   0.5773226  -0.0001255  )
        58        S      tau(  58) = (  -0.0000002   0.4330136  -0.6064556  )
        59        S      tau(  59) = (   0.1250359   0.5051398  -0.1241676  )
        60        S      tau(  60) = (   0.0000697   0.5768181   0.3580317  )
        61        S      tau(  61) = (  -0.0000001   0.4330135  -0.3584711  )
        62        S      tau(  62) = (   0.1250059   0.5052001   0.1242069  )
        63        S      tau(  63) = (  -0.0003304   0.5778980   0.6066479  )
        64        Mo     tau(  64) = (   0.5003257  -0.0004925   0.4803774  )
        65        Mo     tau(  65) = (  -0.0000004   0.7216889  -0.4825273  )
        66        Mo     tau(  66) = (  -0.1249927   0.7938427  -0.0001655  )
        67        S      tau(  67) = (  -0.1250004   0.6495201  -0.6064556  )
        68        S      tau(  68) = (   0.0000418   0.7216760  -0.1242215  )
        69        S      tau(  69) = (  -0.1250504   0.7929751   0.3566577  )
        70        S      tau(  70) = (  -0.1250004   0.6495200  -0.3584711  )
        71        S      tau(  71) = (  -0.0000163   0.7216479   0.1240623  )
        72        S      tau(  72) = (  -0.1248984   0.7939509   0.6051552  )
        73        Mo     tau(  73) = (   0.6254010   0.2160480   0.4824065  )
        74        Mo     tau(  74) = (   0.6250004   0.0721694  -0.4825273  )
        75        Mo     tau(  75) = (   0.5000167   0.1443371   0.0000092  )
        76        S      tau(  76) = (   0.5000004   0.0000006  -0.6064556  )
        77        S      tau(  77) = (   0.6250207   0.0721868  -0.1241145  )
        78        S      tau(  78) = (   0.5010641   0.1438734   0.3562763  )
        79        S      tau(  79) = (   0.5000004   0.0000005  -0.3584711  )
        80        S      tau(  80) = (   0.6250414   0.0720927   0.1241409  )
        81        S      tau(  81) = (   0.5005473   0.1420509   0.6053992  )
        82        Mo     tau(  82) = (   0.5016373   0.4329758   0.4857863  )
        83        Mo     tau(  83) = (   0.5000001   0.2886759  -0.4825273  )
        84        Mo     tau(  84) = (   0.3750027   0.3608467   0.0000234  )
        85        S      tau(  85) = (   0.3750001   0.2165071  -0.6064556  )
        86        S      tau(  86) = (   0.5000046   0.2886693  -0.1240592  )
        87        S      tau(  87) = (   0.3745963   0.3620572   0.3631324  )
        88        S      tau(  88) = (   0.3750002   0.2165070  -0.3584711  )
        89        S      tau(  89) = (   0.4999634   0.2887051   0.1243131  )
        90        S      tau(  90) = (   0.3781068   0.3490112   0.6089630  )
        91        Mo     tau(  91) = (   0.3753335   0.6518408   0.4830502  )
        92        Mo     tau(  92) = (   0.3749998   0.5051824  -0.4825273  )
        93        Mo     tau(  93) = (   0.2500203   0.5772987  -0.0000555  )
        94        S      tau(  94) = (   0.2499998   0.4330136  -0.6064556  )
        95        S      tau(  95) = (   0.3750008   0.5051221  -0.1241383  )
        96        S      tau(  96) = (   0.2501878   0.5758780   0.3616377  )
        97        S      tau(  97) = (   0.2499999   0.4330135  -0.3584711  )
        98        S      tau(  98) = (   0.3750015   0.5051839   0.1242620  )
        99        S      tau(  99) = (   0.2495016   0.5878580   0.6113208  )
       100        Mo     tau( 100) = (   0.7500199   0.0003818   0.4811571  )
       101        Mo     tau( 101) = (   0.2499996   0.7216889  -0.4825273  )
       102        Mo     tau( 102) = (   0.1250316   0.7938162  -0.0000875  )
       103        S      tau( 103) = (   0.1249996   0.6495201  -0.6064556  )
       104        S      tau( 104) = (   0.2500359   0.7216507  -0.1241461  )
       105        S      tau( 105) = (   0.1254554   0.7934228   0.3566219  )
       106        S      tau( 106) = (   0.1249996   0.6495200  -0.3584711  )
       107        S      tau( 107) = (   0.2500086   0.7215741   0.1241838  )
       108        S      tau( 108) = (   0.1244907   0.7952297   0.6057917  )
       109        Mo     tau( 109) = (  -0.1249741   0.2166510   0.4819241  )
       110        Mo     tau( 110) = (   0.8750004   0.0721694  -0.4825273  )
       111        Mo     tau( 111) = (   0.7500133   0.1443436  -0.0000073  )
       112        S      tau( 112) = (   0.7500004   0.0000006  -0.6064556  )
       113        S      tau( 113) = (   0.8749956   0.0721731  -0.1241058  )
       114        S      tau( 114) = (   0.7500203   0.1449522   0.3574598  )
       115        S      tau( 115) = (   0.7500004   0.0000005  -0.3584711  )
       116        S      tau( 116) = (   0.8750238   0.0721604   0.1241841  )
       117        S      tau( 117) = (   0.7504201   0.1437382   0.6062629  )
       118        Mo     tau( 118) = (  -0.2493495   0.4328575   0.4828262  )
       119        Mo     tau( 119) = (   0.7500001   0.2886759  -0.4825273  )
       120        Mo     tau( 120) = (   0.6249856   0.3608477   0.0000279  )
       121        S      tau( 121) = (   0.6250001   0.2165071  -0.6064556  )
       122        S      tau( 122) = (   0.7499958   0.2886820  -0.1240679  )
       123        S      tau( 123) = (   0.6241512   0.3616755   0.3603414  )
       124        S      tau( 124) = (   0.6250002   0.2165070  -0.3584711  )
       125        S      tau( 125) = (   0.7499862   0.2887159   0.1242658  )
       126        S      tau( 126) = (   0.6305969   0.3581080   0.6112211  )
       127        Mo     tau( 127) = (  -0.3742668   0.6505223   0.4820597  )
       128        Mo     tau( 128) = (   0.6249998   0.5051824  -0.4825273  )
       129        Mo     tau( 129) = (   0.4999851   0.5773046  -0.0000631  )
       130        S      tau( 130) = (   0.4999998   0.4330136  -0.6064556  )
       131        S      tau( 131) = (   0.6249723   0.5051139  -0.1241565  )
       132        S      tau( 132) = (   0.4998783   0.5762956   0.3606843  )
       133        S      tau( 133) = (   0.4999999   0.4330135  -0.3584711  )
       134        S      tau( 134) = (   0.6250095   0.5052263   0.1241915  )
       135        S      tau( 135) = (   0.5006407   0.5846211   0.6091832  )
       136        Mo     tau( 136) = (   0.0000410   0.0004185   0.4809769  )
       137        Mo     tau( 137) = (   0.4999996   0.7216889  -0.4825273  )
       138        Mo     tau( 138) = (   0.3750036   0.7938273  -0.0000272  )
       139        S      tau( 139) = (   0.3749996   0.6495201  -0.6064556  )
       140        S      tau( 140) = (   0.4999499   0.7216482  -0.1241729  )
       141        S      tau( 141) = (   0.3750006   0.7941054   0.3569117  )
       142        S      tau( 142) = (   0.3749996   0.6495200  -0.3584711  )
       143        S      tau( 143) = (   0.5000314   0.7216102   0.1241515  )
       144        S      tau( 144) = (   0.3752329   0.7966920   0.6062052  )
       145        Pt     tau( 145) = (   0.2580795   0.4348292   0.7095693  )
       146        Pd     tau( 146) = (   0.4899479   0.4358638   0.7204770  )
       147        Pd     tau( 147) = (   0.2580988   0.4348680   0.8997788  )

     --------------------------------------------
     DFT-D3 Dispersion Correction (3-body terms):
     --------------------------------------------
       Reference C6 values for interpolation: 

         atom   Coordination number   C6
         S          0.000           268.01
         S          0.995           261.99
         S          1.990           251.62
         Mo         0.000          1691.79
         Mo         1.942          1004.01
         Mo        11.056           674.22
         Pd         0.000          1217.01
         Pd         1.863           573.90
         Pd         5.710           531.75
         Pt         0.000           782.29
         Pt         1.919           692.72
         Pt         6.667           673.75

       Values used:

         atom   Coordination number  R0_AB[au]  C6      C8
         Mo        10.200            3.547    674.22  77634.20
         Mo        10.189            3.547    674.22  77634.20
         Mo        10.200            3.547    674.22  77634.20
         S          3.753            3.128    251.62  12327.25
         S          3.858            3.128    251.62  12327.25
         S          3.854            3.128    251.62  12327.25
         S          3.858            3.128    251.62  12327.25
         S          3.864            3.128    251.62  12327.25
         S          3.814            3.128    251.62  12327.25
         Mo        10.207            3.547    674.22  77634.20
         Mo        10.189            3.547    674.22  77634.20
         Mo        10.201            3.547    674.22  77634.20
         S          3.753            3.128    251.62  12327.25
         S          3.859            3.128    251.62  12327.25
         S          3.853            3.128    251.62  12327.25
         S          3.858            3.128    251.62  12327.25
         S          3.855            3.128    251.62  12327.25
         S          3.817            3.128    251.62  12327.25
         Mo        10.231            3.547    674.22  77634.20
         Mo        10.189            3.547    674.22  77634.20
         Mo        10.201            3.547    674.22  77634.20
         S          3.753            3.128    251.62  12327.25
         S          3.858            3.128    251.62  12327.25
         S          3.865            3.128    251.62  12327.25
         S          3.859            3.128    251.62  12327.25
         S          3.860            3.128    251.62  12327.25
         S          3.761            3.128    251.62  12327.25
         Mo        10.258            3.547    674.22  77634.20
         Mo        10.189            3.547    674.22  77634.20
         Mo        10.200            3.547    674.22  77634.20
         S          3.753            3.128    251.62  12327.25
         S          3.857            3.128    251.62  12327.25
         S          3.856            3.128    251.62  12327.25
         S          3.859            3.128    251.62  12327.25
         S          3.864            3.128    251.62  12327.25
         S          3.803            3.128    251.62  12327.25
         Mo        10.158            3.547    674.22  77634.20
         Mo        10.189            3.547    674.22  77634.20
         Mo        10.200            3.547    674.22  77634.20
         S          3.753            3.128    251.62  12327.25
         S          3.858            3.128    251.62  12327.25
         S          3.842            3.128    251.62  12327.25
         S          3.859            3.128    251.62  12327.25
         S          3.863            3.128    251.62  12327.25
         S          3.812            3.128    251.62  12327.25
         Mo        10.848            3.547    674.22  77634.20
         Mo        10.189            3.547    674.22  77634.20
         Mo        10.202            3.547    674.22  77634.20
         S          3.753            3.128    251.62  12327.25
         S          3.859            3.128    251.62  12327.25
         S          3.851            3.128    251.62  12327.25
         S          3.858            3.128    251.62  12327.25
         S          3.851            3.128    251.62  12327.25
         S          4.640            3.128    251.62  12327.25
         Mo        10.195            3.547    674.22  77634.20
         Mo        10.189            3.547    674.22  77634.20
         Mo        10.201            3.547    674.22  77634.20
         S          3.753            3.128    251.62  12327.25
         S          3.859            3.128    251.62  12327.25
         S          3.864            3.128    251.62  12327.25
         S          3.859            3.128    251.62  12327.25
         S          3.853            3.128    251.62  12327.25
         S          3.758            3.128    251.62  12327.25
         Mo        10.259            3.547    674.22  77634.20
         Mo        10.189            3.547    674.22  77634.20
         Mo        10.200            3.547    674.22  77634.20
         S          3.753            3.128    251.62  12327.25
         S          3.858            3.128    251.62  12327.25
         S          3.858            3.128    251.62  12327.25
         S          3.859            3.128    251.62  12327.25
         S          3.863            3.128    251.62  12327.25
         S          3.783            3.128    251.62  12327.25
         Mo        10.209            3.547    674.22  77634.20
         Mo        10.189            3.547    674.22  77634.20
         Mo        10.200            3.547    674.22  77634.20
         S          3.753            3.128    251.62  12327.25
         S          3.859            3.128    251.62  12327.25
         S          3.839            3.128    251.62  12327.25
         S          3.859            3.128    251.62  12327.25
         S          3.863            3.128    251.62  12327.25
         S          3.835            3.128    251.62  12327.25
         Mo        10.708            3.547    674.22  77634.20
         Mo        10.189            3.547    674.22  77634.20
         Mo        10.202            3.547    674.22  77634.20
         S          3.753            3.128    251.62  12327.25
         S          3.859            3.128    251.62  12327.25
         S          3.873            3.128    251.62  12327.25
         S          3.858            3.128    251.62  12327.25
         S          3.851            3.128    251.62  12327.25
         S          5.642            3.128    251.62  12327.25
         Mo        10.151            3.547    674.22  77634.20
         Mo        10.189            3.547    674.22  77634.20
         Mo        10.203            3.547    674.22  77634.20
         S          3.753            3.128    251.62  12327.25
         S          3.859            3.128    251.62  12327.25
         S          3.861            3.128    251.62  12327.25
         S          3.859            3.128    251.62  12327.25
         S          3.849            3.128    251.62  12327.25
         S          4.672            3.128    251.62  12327.25
         Mo        10.241            3.547    674.22  77634.20
         Mo        10.189            3.547    674.22  77634.20
         Mo        10.200            3.547    674.22  77634.20
         S          3.753            3.128    251.62  12327.25
         S          3.858            3.128    251.62  12327.25
         S          3.852            3.128    251.62  12327.25
         S          3.859            3.128    251.62  12327.25
         S          3.858            3.128    251.62  12327.25
         S          3.820            3.128    251.62  12327.25
         Mo        10.231            3.547    674.22  77634.20
         Mo        10.189            3.547    674.22  77634.20
         Mo        10.200            3.547    674.22  77634.20
         S          3.753            3.128    251.62  12327.25
         S          3.858            3.128    251.62  12327.25
         S          3.857            3.128    251.62  12327.25
         S          3.858            3.128    251.62  12327.25
         S          3.861            3.128    251.62  12327.25
         S          3.803            3.128    251.62  12327.25
         Mo        10.222            3.547    674.22  77634.20
         Mo        10.189            3.547    674.22  77634.20
         Mo        10.201            3.547    674.22  77634.20
         S          3.753            3.128    251.62  12327.25
         S          3.859            3.128    251.62  12327.25
         S          3.849            3.128    251.62  12327.25
         S          3.858            3.128    251.62  12327.25
         S          3.855            3.128    251.62  12327.25
         S          4.617            3.128    251.62  12327.25
         Mo        10.206            3.547    674.22  77634.20
         Mo        10.189            3.547    674.22  77634.20
         Mo        10.202            3.547    674.22  77634.20
         S          3.753            3.128    251.62  12327.25
         S          3.858            3.128    251.62  12327.25
         S          3.862            3.128    251.62  12327.25
         S          3.858            3.128    251.62  12327.25
         S          3.855            3.128    251.62  12327.25
         S          4.663            3.128    251.62  12327.25
         Mo        10.248            3.547    674.22  77634.20
         Mo        10.189            3.547    674.22  77634.20
         Mo        10.201            3.547    674.22  77634.20
         S          3.753            3.128    251.62  12327.25
         S          3.858            3.128    251.62  12327.25
         S          3.844            3.128    251.62  12327.25
         S          3.859            3.128    251.62  12327.25
         S          3.859            3.128    251.62  12327.25
         S          3.836            3.128    251.62  12327.25
         Pt         5.427            3.168    673.75  70061.90
         Pd         4.145            3.168    531.75  48720.79
         Pd         1.029            3.168    672.87  61651.14

         Molecular C6 ( Ry / a.u.^6 ) =   8076358.94


     number of k points=     4  Gaussian smearing, width (Ry)=  0.0100
                       cart. coord. in units 2pi/alat
        k(    1) = (   0.0000000   0.0000000   0.0000000), wk =   0.5000000
        k(    2) = (   0.0000000  -0.5773499   0.0000000), wk =   0.5000000
        k(    3) = (  -0.5000000  -0.2886755   0.0000000), wk =   0.5000000
        k(    4) = (  -0.5000000  -0.8660254   0.0000000), wk =   0.5000000

     Dense  grid:  5955087 G-vectors     FFT dimensions: ( 180, 180, 432)

     Smooth grid:  2572543 G-vectors     FFT dimensions: ( 135, 135, 320)

     Estimated max dynamical RAM per process >       3.08 GB

     Estimated total dynamical RAM >     110.88 GB

     Atomic positions and unit cell read from directory:
     ./outdir/pwscf.save/
     Atomic positions from file used, from input discarded
 

     The initial density is read from file :
     ./outdir/pwscf.save/charge-density


     negative rho (up, down):  9.349E-04 0.000E+00
     Cannot read wfcs: file not found
     Starting wfcs are  901 randomized atomic wfcs
     Checking if some PAW data can be deallocated... 

     total cpu time spent up to now is      100.2 secs

     Self-consistent Calculation

     iteration #  1     ecut=    77.00 Ry     beta= 0.20
     Davidson diagonalization with overlap
     c_bands:  3 eigenvalues not converged
     c_bands:  6 eigenvalues not converged
     c_bands:  2 eigenvalues not converged
     ethr =  1.00E-05,  avg # of iterations =110.5

     negative rho (up, down):  8.618E-04 0.000E+00

     total cpu time spent up to now is     5523.0 secs

     total energy              =  -26543.72532290 Ry
     estimated scf accuracy    <       2.44725179 Ry

     iteration #  2     ecut=    77.00 Ry     beta= 0.20
     Davidson diagonalization with overlap
     ethr =  1.86E-04,  avg # of iterations = 11.8

     negative rho (up, down):  8.252E-04 0.000E+00

     total cpu time spent up to now is     5777.8 secs

     total energy              =  -26543.63094024 Ry
     estimated scf accuracy    <       1.26522046 Ry

     iteration #  3     ecut=    77.00 Ry     beta= 0.20
     Davidson diagonalization with overlap
     ethr =  9.61E-05,  avg # of iterations =  5.0

     negative rho (up, down):  8.725E-04 0.000E+00

     total cpu time spent up to now is     6007.1 secs

     total energy              =  -26542.48557972 Ry
     estimated scf accuracy    <      31.96656911 Ry

     iteration #  4     ecut=    77.00 Ry     beta= 0.20
     Davidson diagonalization with overlap
     ethr =  9.61E-05,  avg # of iterations = 12.0

     negative rho (up, down):  8.086E-04 0.000E+00

     total cpu time spent up to now is     6251.0 secs

     total energy              =  -26543.71652785 Ry
     estimated scf accuracy    <       0.40594577 Ry

     iteration #  5     ecut=    77.00 Ry     beta= 0.20
     Davidson diagonalization with overlap
     ethr =  3.08E-05,  avg # of iterations = 12.8

     negative rho (up, down):  7.924E-04 0.000E+00

     total cpu time spent up to now is     6523.7 secs

     total energy              =  -26543.77302577 Ry
     estimated scf accuracy    <       0.24023846 Ry

     iteration #  6     ecut=    77.00 Ry     beta= 0.20
     Davidson diagonalization with overlap
     c_bands:  3 eigenvalues not converged
     ethr =  1.83E-05,  avg # of iterations = 21.5

     negative rho (up, down):  7.847E-04 0.000E+00

     total cpu time spent up to now is     6927.8 secs

     total energy              =  -26543.75295552 Ry
     estimated scf accuracy    <       0.31835504 Ry

     iteration #  7     ecut=    77.00 Ry     beta= 0.20
     Davidson diagonalization with overlap
     ethr =  1.83E-05,  avg # of iterations =  3.8

     negative rho (up, down):  7.893E-04 0.000E+00

     total cpu time spent up to now is     7149.2 secs

     total energy              =  -26543.74491631 Ry
     estimated scf accuracy    <       0.13873561 Ry

     iteration #  8     ecut=    77.00 Ry     beta= 0.20
     Davidson diagonalization with overlap
     ethr =  1.05E-05,  avg # of iterations = 10.5

     negative rho (up, down):  7.967E-04 0.000E+00

     total cpu time spent up to now is     7397.7 secs

     total energy              =  -26543.74980941 Ry
     estimated scf accuracy    <       0.06276675 Ry

     iteration #  9     ecut=    77.00 Ry     beta= 0.20
     Davidson diagonalization with overlap
     c_bands:  1 eigenvalues not converged
     ethr =  4.77E-06,  avg # of iterations = 15.2

     negative rho (up, down):  8.047E-04 0.000E+00

     total cpu time spent up to now is     7700.2 secs

     total energy              =  -26543.75133374 Ry
     estimated scf accuracy    <       0.04317580 Ry

     iteration # 10     ecut=    77.00 Ry     beta= 0.20
     Davidson diagonalization with overlap
     c_bands:  3 eigenvalues not converged
     c_bands:  4 eigenvalues not converged
     ethr =  3.28E-06,  avg # of iterations = 21.8

     negative rho (up, down):  8.283E-04 0.000E+00

     total cpu time spent up to now is     8067.8 secs

     total energy              =  -26543.75003413 Ry
     estimated scf accuracy    <       0.03907335 Ry

     iteration # 11     ecut=    77.00 Ry     beta= 0.20
     Davidson diagonalization with overlap
     c_bands:  2 eigenvalues not converged
     c_bands:  3 eigenvalues not converged
     ethr =  2.97E-06,  avg # of iterations = 12.0

     negative rho (up, down):  8.404E-04 0.000E+00

     total cpu time spent up to now is     8316.1 secs

     total energy              =  -26543.74920216 Ry
     estimated scf accuracy    <       0.02619597 Ry

     iteration # 12     ecut=    77.00 Ry     beta= 0.20
     Davidson diagonalization with overlap
     c_bands:  2 eigenvalues not converged
     c_bands:  2 eigenvalues not converged
     ethr =  1.99E-06,  avg # of iterations = 21.8

     negative rho (up, down):  9.057E-04 0.000E+00

     total cpu time spent up to now is     8635.8 secs

     total energy              =  -26543.74519675 Ry
     estimated scf accuracy    <       0.01782904 Ry

     iteration # 13     ecut=    77.00 Ry     beta= 0.20
     Davidson diagonalization with overlap
     c_bands:  1 eigenvalues not converged
     c_bands:  1 eigenvalues not converged
     ethr =  1.35E-06,  avg # of iterations = 16.5

     negative rho (up, down):  8.846E-04 0.000E+00

     total cpu time spent up to now is     8908.1 secs

     total energy              =  -26543.74842337 Ry
     estimated scf accuracy    <       0.00451957 Ry

     iteration # 14     ecut=    77.00 Ry     beta= 0.20
     Davidson diagonalization with overlap
     c_bands:  1 eigenvalues not converged
     c_bands:  1 eigenvalues not converged
     ethr =  3.43E-07,  avg # of iterations = 18.2

     negative rho (up, down):  8.860E-04 0.000E+00

     total cpu time spent up to now is     9335.0 secs

     total energy              =  -26543.75258915 Ry
     estimated scf accuracy    <       0.00149779 Ry

     iteration # 15     ecut=    77.00 Ry     beta= 0.20
     Davidson diagonalization with overlap
     ethr =  1.14E-07,  avg # of iterations =  9.8

     negative rho (up, down):  9.057E-04 0.000E+00

     total cpu time spent up to now is     9659.2 secs

     total energy              =  -26543.75279970 Ry
     estimated scf accuracy    <       0.00125851 Ry

     iteration # 16     ecut=    77.00 Ry     beta= 0.20
     Davidson diagonalization with overlap
     ethr =  9.56E-08,  avg # of iterations =  9.8

     negative rho (up, down):  9.208E-04 0.000E+00

     total cpu time spent up to now is     9901.1 secs

     total energy              =  -26543.75275748 Ry
     estimated scf accuracy    <       0.00046457 Ry

     iteration # 17     ecut=    77.00 Ry     beta= 0.20
     Davidson diagonalization with overlap
     c_bands:  1 eigenvalues not converged
     ethr =  3.53E-08,  avg # of iterations = 32.2

     negative rho (up, down):  9.218E-04 0.000E+00

     total cpu time spent up to now is    10502.2 secs

     total energy              =  -26543.75312851 Ry
     estimated scf accuracy    <       0.00029789 Ry

     iteration # 18     ecut=    77.00 Ry     beta= 0.20
     Davidson diagonalization with overlap
     ethr =  2.26E-08,  avg # of iterations =  2.2

     negative rho (up, down):  9.266E-04 0.000E+00

     total cpu time spent up to now is    10718.5 secs

     total energy              =  -26543.75312216 Ry
     estimated scf accuracy    <       0.00014910 Ry

     iteration # 19     ecut=    77.00 Ry     beta= 0.20
     Davidson diagonalization with overlap
     ethr =  1.13E-08,  avg # of iterations = 11.5

     negative rho (up, down):  9.349E-04 0.000E+00

     total cpu time spent up to now is    10990.8 secs

     total energy              =  -26543.75313257 Ry
     estimated scf accuracy    <       0.00007149 Ry

     iteration # 20     ecut=    77.00 Ry     beta= 0.20
     Davidson diagonalization with overlap
     ethr =  5.43E-09,  avg # of iterations = 14.5

     negative rho (up, down):  9.370E-04 0.000E+00

     total cpu time spent up to now is    11428.5 secs

     total energy              =  -26543.75318946 Ry
     estimated scf accuracy    <       0.00001792 Ry

     iteration # 21     ecut=    77.00 Ry     beta= 0.20
     Davidson diagonalization with overlap
     ethr =  1.36E-09,  avg # of iterations = 16.5

     negative rho (up, down):  9.369E-04 0.000E+00

     total cpu time spent up to now is    11978.8 secs

     total energy              =  -26543.75320960 Ry
     estimated scf accuracy    <       0.00000944 Ry

     iteration # 22     ecut=    77.00 Ry     beta= 0.20
     Davidson diagonalization with overlap
     ethr =  7.17E-10,  avg # of iterations = 14.0

     negative rho (up, down):  9.387E-04 0.000E+00

     total cpu time spent up to now is    12315.5 secs

     total energy              =  -26543.75321212 Ry
     estimated scf accuracy    <       0.00000554 Ry

     iteration # 23     ecut=    77.00 Ry     beta= 0.20
     Davidson diagonalization with overlap
     ethr =  4.21E-10,  avg # of iterations = 12.0

     negative rho (up, down):  9.400E-04 0.000E+00

     total cpu time spent up to now is    12620.2 secs

     total energy              =  -26543.75321309 Ry
     estimated scf accuracy    <       0.00000176 Ry

     iteration # 24     ecut=    77.00 Ry     beta= 0.20
     Davidson diagonalization with overlap
     c_bands:  1 eigenvalues not converged
     ethr =  1.33E-10,  avg # of iterations = 14.5

     negative rho (up, down):  9.406E-04 0.000E+00

     total cpu time spent up to now is    13109.0 secs

     End of self-consistent calculation

          k = 0.0000 0.0000 0.0000 (321495 PWs)   bands (ev):

  -103.1054 -89.0239 -87.2069 -71.4913 -71.4853 -71.4395 -71.3956 -71.3809
   -71.3780 -71.3689 -66.6873 -66.6662 -66.6662 -66.6662 -66.6661 -66.6661
   -66.6661 -66.6450 -66.6450 -66.6450 -66.6450 -66.6450 -66.6450 -66.6449
   -66.6449 -66.6449 -66.6217 -66.6011 -66.6010 -66.6009 -66.6004 -66.6003
   -66.6002 -66.5801 -66.5799 -66.5799 -66.5797 -66.5795 -66.5794 -66.5791
   -66.5789 -66.5786 -66.5751 -66.5526 -66.5441 -66.5401 -66.5326 -66.5292
   -66.5273 -66.5234 -66.5177 -66.5077 -66.5002 -66.4960 -66.4832 -66.4708
   -66.4682 -66.4623 -57.3885 -57.3549 -57.1417 -54.9089 -54.8756 -54.6082
   -53.1885 -53.0787 -52.7201 -41.0137 -41.0137 -41.0137 -40.9472 -40.9470
   -40.9468 -40.9389 -40.9389 -40.9389 -40.9389 -40.9389 -40.9389 -40.8806
   -40.8770 -40.8726 -40.8726 -40.8724 -40.8723 -40.8721 -40.8721 -40.8720
   -40.8473 -40.8134 -40.8133 -40.8133 -40.8133 -40.8133 -40.8133 -40.8111
   -40.8071 -40.8059 -40.8059 -40.8059 -40.8058 -40.8058 -40.8058 -40.7967
   -40.7915 -40.7827 -40.7823 -40.7785 -40.7785 -40.7785 -40.7785 -40.7784
   -40.7784 -40.7712 -40.7642 -40.7642 -40.7642 -40.7642 -40.7642 -40.7641
   -40.7641 -40.7641 -40.7640 -40.7471 -40.7470 -40.7469 -40.7467 -40.7467
   -40.7466 -40.7420 -40.7413 -40.7412 -40.7411 -40.7406 -40.7406 -40.7406
   -40.7123 -40.7122 -40.7122 -40.7119 -40.7119 -40.7118 -40.7104 -40.7009
   -40.7007 -40.7007 -40.7007 -40.6998 -40.6997 -40.6996 -40.6994 -40.6994
   -40.6992 -40.6989 -40.6988 -40.6984 -40.6909 -40.6900 -40.6867 -40.6804
   -40.6785 -40.6749 -40.6703 -40.6669 -40.6615 -40.6600 -40.6552 -40.6539
   -40.6539 -40.6539 -40.6539 -40.6539 -40.6538 -40.6498 -40.6474 -40.6461
   -40.6418 -40.6402 -40.6344 -40.6343 -40.6342 -40.6333 -40.6301 -40.6294
   -40.6243 -40.6207 -40.6132 -40.6110 -40.6066 -40.6066 -40.6065 -40.6016
   -40.5880 -40.5878 -40.5876 -40.5873 -40.5873 -40.5872 -40.5639 -40.5574
   -40.5507 -40.5403 -40.5403 -40.5161 -40.5148 -40.5045 -40.4990 -40.4915
   -40.4893 -40.4505 -40.4360 -20.1550 -20.0891 -19.9357 -19.6111 -19.2749
   -19.2611 -19.2552 -19.2544 -19.2528 -19.2460 -19.2222 -19.1994 -19.1601
   -19.1544 -19.1402 -19.1025 -19.0821 -19.0746 -19.0486 -19.0405 -19.0134
   -18.8809 -18.7585 -18.6893 -18.5372 -18.5187 -18.5122 -18.4782 -18.4637
   -18.4570 -18.4336 -18.3934 -18.3821 -18.3609 -18.3399 -18.3046 -18.2762
   -18.2601 -18.2160 -18.2137 -18.2011 -18.1638 -18.1547 -18.1530 -18.1475
   -18.1474 -18.1466 -18.1466 -18.1459 -18.1457 -18.1072 -18.1065 -18.1060
   -18.0772 -18.0752 -18.0713 -18.0674 -18.0625 -18.0611 -18.0505 -18.0361
   -18.0349 -18.0304 -18.0095 -17.9891 -17.9821 -17.9741 -17.9721 -17.9643
   -17.9523 -17.9483 -17.9470 -17.9390 -17.9273 -17.9238 -17.9208 -17.9196
   -17.9174 -17.8965 -17.8893 -17.8848 -17.8738 -17.8648 -17.8545 -17.8537
   -17.8491 -17.8482 -17.8281 -17.8224 -17.8167 -17.8005 -17.7846 -17.7782
   -17.7718 -17.7684 -17.7640 -12.1873 -12.0003 -11.9011 -11.8077 -11.7625
   -11.7606 -11.7551 -11.6994 -11.6780 -11.6701 -11.6618 -11.4499 -11.3698
   -11.3027 -11.2406 -11.2203 -11.2136 -11.2118 -11.2067 -11.1988 -11.1749
   -11.1444 -11.1371 -11.1362 -11.1334 -11.1303 -11.1243 -11.1012 -11.0896
   -11.0711 -11.0203 -11.0028 -11.0010 -10.9896 -10.9861 -10.9787 -10.9543
   -10.9363 -10.9297 -10.9263 -10.9224 -10.9194 -10.8909 -10.8889 -10.8805
   -10.8568 -10.8462 -10.8415 -10.8384 -10.8379 -10.8372 -10.8348 -10.8309
   -10.8262 -10.8118 -10.8092 -10.8076 -10.8039 -10.7932 -10.7925 -10.7886
   -10.7872 -10.7828 -10.7789 -10.7378 -10.7355 -10.7229 -10.7061 -10.6953
   -10.6626 -10.6372 -10.6341 -10.6134 -10.6073 -10.6011 -10.5045 -10.3705
   -10.2482 -10.1072 -10.0564 -10.0528 -10.0508  -9.9114  -9.9068  -9.8927
    -9.8821  -9.8051  -9.8029  -9.7894  -9.7846  -9.7800  -9.7696  -9.7532
    -9.7435  -9.7208  -9.7109  -9.7083  -9.6942  -9.6889  -9.6764  -9.6642
    -9.6381  -9.6331  -9.6294  -9.6256  -9.6227  -9.6149  -9.5974  -9.5909
    -9.5845  -9.5827  -9.5821  -9.5798  -9.5780  -9.5770  -9.5671  -9.5495
    -9.5386  -9.5279  -9.5243  -9.4761  -9.4654  -9.4536  -9.4440  -9.4419
    -9.4366  -9.4251  -9.3769  -9.3661  -9.3505  -9.3485  -9.3392  -9.3254
    -9.3090  -9.3063  -9.2715  -9.2639  -9.2327  -9.2259  -9.2146  -9.2076
    -9.2022  -9.1951  -9.1814  -9.1444  -9.1241  -9.1087  -9.0752  -9.0475
    -9.0273  -9.0261  -9.0254  -9.0248  -9.0237  -9.0225  -9.0139  -8.9894
    -8.9540  -8.9491  -8.9479  -8.9401  -8.8979  -8.8933  -8.8699  -8.8615
    -8.8336  -8.8179  -8.8159  -8.8060  -8.8042  -8.8027  -8.8000  -8.7939
    -8.7888  -8.7647  -8.7633  -8.7556  -8.7509  -8.7306  -8.7276  -8.7241
    -8.7123  -8.7102  -8.6757  -8.5145  -8.5024  -8.4364  -8.4364  -8.3646
    -8.3645  -8.3607  -8.3417  -8.3362  -8.3244  -8.3243  -8.3242  -8.3242
    -8.3238  -8.3234  -8.2927  -8.2860  -8.2601  -8.2537  -8.2491  -8.2481
    -8.2478  -8.2467  -8.2266  -8.1959  -8.1748  -8.1411  -8.0221  -7.9758
    -7.9600  -7.9346  -7.9217  -7.8316  -7.8062  -7.7154  -7.7090  -7.6947
    -7.6580  -7.6018  -7.5892  -7.5890  -7.5888  -7.5887  -7.5885  -7.5867
    -7.5571  -7.5440  -7.5434  -7.5426  -7.5423  -7.5418  -7.5415  -7.5275
    -7.5224  -7.5190  -7.5145  -7.5117  -7.5089  -7.5074  -7.5032  -7.4915
    -7.4823  -7.4735  -7.4731  -7.4689  -7.4689  -7.4664  -7.4604  -7.4556
    -7.4406  -7.4301  -7.4260  -7.4239  -7.4225  -7.4206  -7.4048  -7.3985
    -7.3630  -7.3172  -7.3075  -7.3074  -7.2976  -7.2899  -7.2695  -7.2383
    -7.2377  -7.2207  -7.2147  -7.1914  -7.1701  -7.1488  -7.0989  -7.0386
    -7.0285  -6.9752  -6.9238  -6.9118  -6.8880  -6.8717  -6.8455  -6.8130
    -6.8067  -6.8046  -6.7867  -6.7503  -6.7173  -6.7001  -6.6920  -6.6729
    -6.6389  -6.6355  -6.6251  -6.6209  -6.6132  -6.6121  -6.5997  -6.5847
    -6.5421  -6.5390  -6.5303  -6.5252  -6.5222  -6.5108  -6.5098  -6.5034
    -6.4864  -6.4707  -6.4641  -6.4494  -6.4414  -6.4332  -6.4280  -6.4266
    -6.4217  -6.3706  -6.3558  -6.3556  -6.3555  -6.3555  -6.3554  -6.3554
    -6.3525  -6.3344  -6.2952  -6.2825  -6.2817  -6.2792  -6.2788  -6.2780
    -6.2748  -6.2709  -6.2502  -6.2152  -6.2047  -6.1991  -6.1751  -6.0543
    -5.9037  -5.8039  -5.6003  -5.5436  -5.4469  -5.2690  -5.1427  -5.0663
    -5.0085  -4.9826  -4.5045  -3.8549  -3.8433  -3.8407  -3.8390  -3.8356
    -3.8212  -3.8118  -3.8095  -3.8086  -3.8064  -3.8046  -3.7938  -3.6735
    -3.6133  -3.6122  -3.6099  -3.5955  -3.5903  -3.5858  -3.5785  -3.5763
    -3.5713  -3.5687  -3.4963  -3.4963  -3.4962  -3.4848  -3.4843  -3.4799
    -3.4777  -3.4769  -3.4763  -3.4753  -3.4317  -3.4297  -3.4293  -3.4246
    -3.4048  -3.3928  -3.3871  -3.3847  -3.3823  -3.3774  -3.3747  -3.3680
    -3.3640  -3.3615  -3.3535  -3.3501  -3.3421  -3.3281  -3.3161  -3.3068
    -3.2779  -3.2699  -3.2638  -3.2609  -3.2489  -3.2341  -3.2240  -3.1984
    -3.1729  -3.1341  -3.0315  -3.0307  -3.0303  -3.0255  -3.0244  -2.9828
    -2.9612  -2.9596  -2.9590  -2.9588  -2.9587  -2.9586  -2.9585  -2.9581
    -2.9467  -2.9414  -2.9405  -2.9316  -2.9271  -2.9208  -2.9037  -2.8997
    -2.8956  -2.8943  -2.8919  -2.8883  -2.8859  -2.8806  -2.8778  -2.8755
    -2.8695  -2.8624  -2.8482  -2.8242  -2.8175  -2.8133  -2.7985  -2.7872
    -2.7734  -2.7697  -2.7646  -2.7548  -2.7520  -2.7508  -2.7475  -2.7452
    -2.7366  -2.7005  -2.6961  -2.6764  -2.6641  -2.6515  -2.6356  -2.6282
    -2.6102  -2.6038  -2.5922  -2.5810  -2.5803  -2.5798  -2.5793  -2.5788
    -2.5782  -2.5499  -2.5286  -2.5249  -2.4972  -2.4884

          k = 0.0000-0.5773 0.0000 (321564 PWs)   bands (ev):

  -103.1054 -89.0239 -87.2069 -71.4913 -71.4853 -71.4395 -71.3956 -71.3809
   -71.3780 -71.3689 -66.6811 -66.6811 -66.6705 -66.6705 -66.6556 -66.6556
   -66.6556 -66.6556 -66.6512 -66.6511 -66.6450 -66.6450 -66.6450 -66.6449
   -66.6406 -66.6406 -66.6159 -66.6153 -66.6051 -66.6050 -66.5904 -66.5902
   -66.5898 -66.5898 -66.5860 -66.5853 -66.5799 -66.5798 -66.5795 -66.5786
   -66.5751 -66.5750 -66.5750 -66.5517 -66.5463 -66.5405 -66.5321 -66.5283
   -66.5264 -66.5232 -66.5188 -66.5073 -66.5004 -66.4960 -66.4831 -66.4710
   -66.4682 -66.4622 -57.3885 -57.3549 -57.1417 -54.9089 -54.8756 -54.6082
   -53.1885 -53.0787 -52.7201 -40.9823 -40.9823 -40.9823 -40.9822 -40.9557
   -40.9556 -40.9437 -40.9437 -40.9159 -40.9159 -40.9157 -40.9150 -40.8933
   -40.8933 -40.8933 -40.8933 -40.8892 -40.8887 -40.8771 -40.8770 -40.8640
   -40.8610 -40.8352 -40.8351 -40.8347 -40.8279 -40.8268 -40.8267 -40.8267
   -40.8266 -40.8254 -40.8254 -40.8145 -40.8145 -40.8139 -40.8055 -40.8037
   -40.7904 -40.7850 -40.7850 -40.7850 -40.7850 -40.7764 -40.7763 -40.7705
   -40.7699 -40.7644 -40.7644 -40.7642 -40.7641 -40.7641 -40.7641 -40.7589
   -40.7588 -40.7577 -40.7555 -40.7555 -40.7507 -40.7496 -40.7495 -40.7446
   -40.7371 -40.7336 -40.7336 -40.7336 -40.7335 -40.7312 -40.7205 -40.7203
   -40.7199 -40.7198 -40.7134 -40.7118 -40.7111 -40.7016 -40.6997 -40.6995
   -40.6994 -40.6991 -40.6991 -40.6991 -40.6991 -40.6984 -40.6979 -40.6978
   -40.6907 -40.6907 -40.6906 -40.6871 -40.6870 -40.6862 -40.6807 -40.6759
   -40.6679 -40.6678 -40.6677 -40.6675 -40.6670 -40.6665 -40.6659 -40.6651
   -40.6616 -40.6554 -40.6509 -40.6509 -40.6467 -40.6426 -40.6368 -40.6328
   -40.6327 -40.6327 -40.6326 -40.6314 -40.6243 -40.6223 -40.6209 -40.6205
   -40.6204 -40.6203 -40.6168 -40.6139 -40.6033 -40.6019 -40.6018 -40.6010
   -40.5998 -40.5846 -40.5846 -40.5802 -40.5748 -40.5621 -40.5578 -40.5545
   -40.5538 -40.5518 -40.5430 -40.5391 -40.5246 -40.5216 -40.5160 -40.4982
   -40.4866 -40.4738 -40.4402 -20.0365 -19.8848 -19.8706 -19.7766 -19.7139
   -19.6528 -19.4911 -19.4542 -19.4326 -19.3783 -19.2895 -19.2564 -19.0732
   -18.8023 -18.7659 -18.7541 -18.7427 -18.7401 -18.7368 -18.7202 -18.6983
   -18.6658 -18.6448 -18.6166 -18.6114 -18.6033 -18.5880 -18.5525 -18.5437
   -18.5427 -18.4944 -18.4918 -18.4723 -18.4531 -18.4312 -18.4189 -18.4048
   -18.3956 -18.3686 -18.3329 -18.3019 -18.2835 -18.2749 -18.2340 -18.2220
   -18.2196 -18.1916 -18.1729 -18.1415 -18.1278 -18.1276 -18.1270 -18.1266
   -18.1256 -18.1134 -18.1023 -18.0846 -18.0636 -18.0554 -18.0540 -18.0501
   -18.0466 -18.0424 -18.0154 -18.0139 -17.9940 -17.9878 -17.9821 -17.9763
   -17.9724 -17.9507 -17.9407 -17.9381 -17.9290 -17.9259 -17.9133 -17.8915
   -17.8754 -17.8659 -17.8636 -17.8636 -17.8614 -17.8242 -17.8117 -17.8045
   -17.8043 -17.7948 -17.7884 -17.7882 -17.7857 -17.7653 -17.7575 -17.7452
   -17.7426 -17.6924 -17.6835 -12.1307 -11.9003 -11.6839 -11.6799 -11.5936
   -11.5067 -11.4758 -11.4752 -11.4722 -11.4714 -11.4510 -11.4403 -11.4084
   -11.3986 -11.3918 -11.3772 -11.3735 -11.3493 -11.3200 -11.3140 -11.3054
   -11.3001 -11.2862 -11.2804 -11.2564 -11.2564 -11.2512 -11.2240 -11.2117
   -11.2115 -11.1911 -11.1577 -11.1533 -11.1522 -11.1263 -11.0818 -11.0163
   -11.0071 -10.9979 -10.9780 -10.9681 -10.9504 -10.9212 -10.9161 -10.9137
   -10.9107 -10.8914 -10.8763 -10.8674 -10.8520 -10.8430 -10.8344 -10.8306
   -10.8299 -10.8288 -10.8277 -10.8046 -10.8010 -10.7819 -10.7692 -10.7659
   -10.7588 -10.7529 -10.7169 -10.6878 -10.6071 -10.5886 -10.5651 -10.4970
   -10.4915 -10.4616 -10.3849 -10.3531 -10.2567 -10.1934 -10.1542 -10.1344
   -10.1278 -10.1128 -10.1043 -10.0800 -10.0588 -10.0367 -10.0033  -9.9819
    -9.9699  -9.9444  -9.9388  -9.9326  -9.9312  -9.9243  -9.9119  -9.9027
    -9.8927  -9.8848  -9.8797  -9.8275  -9.8051  -9.7980  -9.7891  -9.7610
    -9.7480  -9.7377  -9.7213  -9.7164  -9.7138  -9.7027  -9.6981  -9.6728
    -9.6669  -9.6573  -9.6508  -9.6413  -9.6155  -9.6117  -9.5988  -9.5923
    -9.5459  -9.5316  -9.5299  -9.5179  -9.5006  -9.4725  -9.4694  -9.4589
    -9.4341  -9.3522  -9.3343  -9.3063  -9.2841  -9.2656  -9.2243  -9.2083
    -9.2000  -9.1798  -9.1584  -9.1429  -9.1381  -9.1353  -9.1312  -9.1151
    -9.1090  -9.1006  -9.0887  -9.0494  -9.0362  -9.0321  -9.0254  -9.0159
    -8.9995  -8.9888  -8.9717  -8.9696  -8.9607  -8.9476  -8.9453  -8.9380
    -8.9338  -8.9313  -8.9213  -8.9097  -8.8984  -8.8842  -8.8750  -8.8660
    -8.8586  -8.8544  -8.8524  -8.8394  -8.8388  -8.8355  -8.8298  -8.8170
    -8.8085  -8.7941  -8.7803  -8.7733  -8.7628  -8.7537  -8.7393  -8.7278
    -8.7143  -8.6662  -8.5751  -8.5630  -8.5114  -8.5110  -8.4570  -8.4327
    -8.4196  -8.4042  -8.3698  -8.3281  -8.3072  -8.2492  -8.1929  -8.1928
    -8.1753  -8.1223  -8.1207  -8.0955  -8.0772  -8.0593  -8.0182  -7.9710
    -7.9387  -7.9317  -7.9276  -7.8757  -7.8638  -7.8611  -7.8518  -7.8479
    -7.8466  -7.8461  -7.8460  -7.8367  -7.8351  -7.8319  -7.8010  -7.8000
    -7.7997  -7.7977  -7.7771  -7.7768  -7.7672  -7.7624  -7.7590  -7.7551
    -7.7378  -7.7343  -7.7292  -7.7215  -7.7189  -7.7152  -7.7030  -7.6988
    -7.6885  -7.6844  -7.6691  -7.6659  -7.6608  -7.6607  -7.6518  -7.6337
    -7.6275  -7.6167  -7.6139  -7.5934  -7.5902  -7.5886  -7.5716  -7.5572
    -7.5377  -7.5339  -7.4948  -7.4651  -7.4617  -7.4249  -7.3885  -7.3415
    -7.3097  -7.2729  -7.2680  -7.2351  -7.2279  -7.2061  -7.1963  -7.1461
    -7.1244  -7.1056  -7.0685  -7.0552  -7.0378  -7.0285  -7.0172  -7.0103
    -7.0065  -6.9984  -6.9538  -6.9455  -6.9396  -6.9263  -6.9089  -6.9002
    -6.8727  -6.8681  -6.8374  -6.8291  -6.8201  -6.7927  -6.7666  -6.7308
    -6.7206  -6.6913  -6.6595  -6.6581  -6.6579  -6.6575  -6.6561  -6.6506
    -6.6173  -6.5931  -6.5913  -6.5889  -6.5884  -6.5818  -6.5748  -6.5382
    -6.5202  -6.4855  -6.4795  -6.4682  -6.4255  -6.3934  -6.3474  -6.3267
    -6.3264  -6.3260  -6.3256  -6.2613  -6.2584  -6.2537  -6.2499  -6.2468
    -6.2426  -6.2187  -6.2051  -6.1920  -6.1836  -6.1649  -6.1492  -6.1269
    -5.9777  -5.9777  -5.9571  -5.9067  -5.9004  -5.8865  -5.8089  -5.7951
    -5.7639  -5.7263  -5.5911  -5.5518  -5.5352  -5.4229  -5.2005  -5.0815
    -5.0093  -4.9823  -4.4808  -4.0224  -4.0153  -4.0126  -3.9978  -3.8932
    -3.8932  -3.8808  -3.8681  -3.8292  -3.8289  -3.8014  -3.7793  -3.7718
    -3.7609  -3.7565  -3.7224  -3.6873  -3.6543  -3.6040  -3.5988  -3.5939
    -3.5936  -3.5794  -3.5788  -3.5702  -3.5564  -3.5429  -3.5149  -3.5054
    -3.5015  -3.4912  -3.4890  -3.4828  -3.4800  -3.4702  -3.4641  -3.4592
    -3.4477  -3.4268  -3.4084  -3.3758  -3.3664  -3.3589  -3.3466  -3.3460
    -3.3418  -3.3179  -3.3160  -3.3109  -3.3069  -3.2891  -3.2710  -3.2702
    -3.2696  -3.2691  -3.2614  -3.2528  -3.2407  -3.2388  -3.2275  -3.2223
    -3.2109  -3.2044  -3.1984  -3.1884  -3.1832  -3.1821  -3.1593  -3.1356
    -3.1215  -3.1173  -3.1073  -3.0917  -3.0684  -3.0670  -3.0637  -3.0318
    -3.0278  -3.0252  -3.0127  -3.0069  -3.0063  -3.0057  -2.9964  -2.9786
    -2.9653  -2.9578  -2.9571  -2.9452  -2.9369  -2.9321  -2.9207  -2.9133
    -2.9109  -2.9015  -2.8907  -2.8806  -2.8766  -2.8685  -2.8643  -2.8478
    -2.8382  -2.8324  -2.8083  -2.7976  -2.7962  -2.7940  -2.7570  -2.7348
    -2.7273  -2.7054  -2.6982  -2.6481  -2.6438  -2.6396  -2.6334  -2.6311
    -2.6276  -2.5668  -2.5600  -2.5093  -2.5039  -2.4948  -2.4919  -2.4835
    -2.4550  -2.3697  -2.3577  -2.3046  -2.2851  -2.1895

          k =-0.5000-0.2887 0.0000 (321564 PWs)   bands (ev):

  -103.1054 -89.0239 -87.2069 -71.4913 -71.4853 -71.4395 -71.3956 -71.3809
   -71.3780 -71.3689 -66.6811 -66.6810 -66.6705 -66.6705 -66.6556 -66.6556
   -66.6556 -66.6556 -66.6512 -66.6511 -66.6450 -66.6450 -66.6449 -66.6449
   -66.6406 -66.6406 -66.6157 -66.6154 -66.6051 -66.6049 -66.5902 -66.5901
   -66.5901 -66.5900 -66.5858 -66.5855 -66.5797 -66.5796 -66.5793 -66.5792
   -66.5751 -66.5750 -66.5749 -66.5521 -66.5480 -66.5360 -66.5340 -66.5278
   -66.5262 -66.5250 -66.5186 -66.5074 -66.5003 -66.4960 -66.4828 -66.4712
   -66.4682 -66.4622 -57.3885 -57.3549 -57.1417 -54.9089 -54.8756 -54.6082
   -53.1885 -53.0787 -52.7201 -40.9823 -40.9823 -40.9822 -40.9822 -40.9557
   -40.9556 -40.9437 -40.9437 -40.9158 -40.9157 -40.9155 -40.9155 -40.8933
   -40.8933 -40.8933 -40.8933 -40.8891 -40.8889 -40.8771 -40.8770 -40.8518
   -40.8469 -40.8454 -40.8383 -40.8352 -40.8351 -40.8346 -40.8268 -40.8268
   -40.8267 -40.8266 -40.8254 -40.8254 -40.8189 -40.8145 -40.8145 -40.7983
   -40.7850 -40.7850 -40.7850 -40.7850 -40.7764 -40.7763 -40.7749 -40.7703
   -40.7701 -40.7644 -40.7643 -40.7642 -40.7642 -40.7641 -40.7641 -40.7589
   -40.7588 -40.7555 -40.7555 -40.7535 -40.7498 -40.7495 -40.7495 -40.7369
   -40.7366 -40.7336 -40.7336 -40.7336 -40.7335 -40.7241 -40.7202 -40.7202
   -40.7201 -40.7200 -40.7143 -40.7116 -40.7113 -40.6994 -40.6994 -40.6993
   -40.6991 -40.6991 -40.6991 -40.6991 -40.6991 -40.6991 -40.6979 -40.6978
   -40.6941 -40.6907 -40.6906 -40.6871 -40.6870 -40.6868 -40.6785 -40.6738
   -40.6717 -40.6679 -40.6678 -40.6674 -40.6673 -40.6670 -40.6669 -40.6660
   -40.6619 -40.6555 -40.6510 -40.6509 -40.6499 -40.6429 -40.6338 -40.6328
   -40.6327 -40.6327 -40.6326 -40.6310 -40.6236 -40.6222 -40.6207 -40.6205
   -40.6205 -40.6204 -40.6191 -40.6152 -40.6021 -40.6017 -40.6013 -40.6011
   -40.5980 -40.5900 -40.5847 -40.5846 -40.5845 -40.5653 -40.5617 -40.5543
   -40.5540 -40.5497 -40.5368 -40.5362 -40.5283 -40.5245 -40.5092 -40.4963
   -40.4729 -40.4625 -40.4599 -20.0341 -19.8851 -19.8707 -19.7806 -19.7144
   -19.6584 -19.4882 -19.4527 -19.4319 -19.3712 -19.2894 -19.2524 -19.0768
   -18.7975 -18.7919 -18.7467 -18.7411 -18.7401 -18.7369 -18.7151 -18.6984
   -18.6737 -18.6363 -18.6161 -18.6125 -18.6059 -18.5826 -18.5537 -18.5523
   -18.5389 -18.4941 -18.4915 -18.4699 -18.4586 -18.4355 -18.4160 -18.4014
   -18.3939 -18.3780 -18.3210 -18.3119 -18.2744 -18.2575 -18.2387 -18.2277
   -18.2185 -18.1880 -18.1638 -18.1577 -18.1279 -18.1276 -18.1273 -18.1272
   -18.1247 -18.1073 -18.1050 -18.0724 -18.0689 -18.0570 -18.0531 -18.0518
   -18.0456 -18.0386 -18.0298 -18.0043 -17.9961 -17.9904 -17.9826 -17.9765
   -17.9689 -17.9473 -17.9441 -17.9418 -17.9326 -17.9248 -17.9163 -17.8846
   -17.8837 -17.8699 -17.8632 -17.8632 -17.8606 -17.8198 -17.8180 -17.8043
   -17.8039 -17.8023 -17.7882 -17.7875 -17.7820 -17.7640 -17.7492 -17.7439
   -17.7411 -17.6911 -17.6869 -12.1160 -11.8666 -11.6897 -11.6768 -11.6379
   -11.5467 -11.4820 -11.4757 -11.4732 -11.4703 -11.4543 -11.4462 -11.4446
   -11.3988 -11.3851 -11.3752 -11.3676 -11.3541 -11.3300 -11.3157 -11.3096
   -11.2883 -11.2866 -11.2660 -11.2592 -11.2563 -11.2563 -11.2125 -11.2114
   -11.2074 -11.1774 -11.1566 -11.1560 -11.1524 -11.1289 -11.0604 -11.0297
   -10.9947 -10.9898 -10.9755 -10.9653 -10.9558 -10.9269 -10.9150 -10.9120
   -10.9036 -10.8925 -10.8718 -10.8678 -10.8455 -10.8396 -10.8324 -10.8299
   -10.8295 -10.8278 -10.8241 -10.8109 -10.7996 -10.7940 -10.7773 -10.7665
   -10.7611 -10.7531 -10.7490 -10.6489 -10.6044 -10.5752 -10.5392 -10.4947
   -10.4861 -10.4035 -10.3676 -10.3242 -10.2970 -10.2683 -10.2313 -10.1326
   -10.1272 -10.1160 -10.1138 -10.0546 -10.0444 -10.0183 -10.0087  -9.9557
    -9.9485  -9.9475  -9.9394  -9.9370  -9.9288  -9.9163  -9.9027  -9.8943
    -9.8923  -9.8812  -9.8616  -9.8108  -9.7990  -9.7957  -9.7758  -9.7602
    -9.7529  -9.7363  -9.7340  -9.7140  -9.7116  -9.7009  -9.6976  -9.6882
    -9.6604  -9.6558  -9.6426  -9.6266  -9.6202  -9.6123  -9.6055  -9.5750
    -9.5564  -9.5360  -9.5310  -9.5244  -9.5145  -9.4770  -9.4722  -9.4690
    -9.4326  -9.3913  -9.3645  -9.3401  -9.3176  -9.2686  -9.2253  -9.2133
    -9.1935  -9.1809  -9.1632  -9.1564  -9.1414  -9.1307  -9.1249  -9.1141
    -9.0974  -9.0871  -9.0685  -9.0452  -9.0334  -9.0272  -9.0186  -9.0136
    -9.0070  -8.9896  -8.9832  -8.9724  -8.9644  -8.9526  -8.9444  -8.9352
    -8.9316  -8.9307  -8.9265  -8.9078  -8.8955  -8.8746  -8.8655  -8.8600
    -8.8580  -8.8547  -8.8491  -8.8393  -8.8391  -8.8357  -8.8302  -8.8243
    -8.8117  -8.8069  -8.7879  -8.7677  -8.7626  -8.7569  -8.7431  -8.7244
    -8.7058  -8.6882  -8.5879  -8.5451  -8.5117  -8.5109  -8.4692  -8.4374
    -8.4278  -8.4096  -8.3904  -8.3204  -8.2709  -8.2061  -8.1928  -8.1928
    -8.1541  -8.1217  -8.1210  -8.1040  -8.0771  -8.0659  -7.9993  -7.9928
    -7.9336  -7.9293  -7.9027  -7.8711  -7.8639  -7.8622  -7.8512  -7.8477
    -7.8462  -7.8461  -7.8454  -7.8397  -7.8357  -7.8026  -7.8007  -7.8000
    -7.7990  -7.7888  -7.7793  -7.7759  -7.7713  -7.7648  -7.7579  -7.7509
    -7.7469  -7.7405  -7.7272  -7.7236  -7.7191  -7.7134  -7.6970  -7.6917
    -7.6888  -7.6840  -7.6646  -7.6608  -7.6608  -7.6554  -7.6421  -7.6361
    -7.6303  -7.6228  -7.6116  -7.6002  -7.5921  -7.5866  -7.5697  -7.5567
    -7.5410  -7.5209  -7.4954  -7.4771  -7.4706  -7.4583  -7.3675  -7.3565
    -7.3040  -7.2710  -7.2412  -7.2399  -7.2280  -7.2253  -7.2159  -7.1651
    -7.1415  -7.1126  -7.1050  -7.0762  -7.0676  -7.0397  -7.0138  -7.0106
    -7.0084  -6.9883  -6.9549  -6.9472  -6.9363  -6.9242  -6.9065  -6.8942
    -6.8927  -6.8608  -6.8591  -6.8315  -6.8199  -6.7627  -6.7499  -6.7275
    -6.6985  -6.6863  -6.6581  -6.6579  -6.6577  -6.6577  -6.6448  -6.6244
    -6.6087  -6.5965  -6.5905  -6.5898  -6.5885  -6.5786  -6.5589  -6.5335
    -6.5198  -6.5002  -6.4780  -6.4509  -6.4276  -6.3695  -6.3269  -6.3266
    -6.3263  -6.3258  -6.2854  -6.2630  -6.2577  -6.2517  -6.2487  -6.2481
    -6.2383  -6.2269  -6.2134  -6.2037  -6.1931  -6.1699  -6.1642  -6.0897
    -6.0122  -5.9775  -5.9775  -5.9035  -5.9015  -5.8617  -5.8286  -5.8056
    -5.7696  -5.7607  -5.6151  -5.5829  -5.4884  -5.4020  -5.2001  -5.0824
    -5.0109  -4.9793  -4.5006  -4.0221  -4.0217  -4.0128  -3.9991  -3.8932
    -3.8932  -3.8767  -3.8622  -3.8292  -3.8289  -3.7993  -3.7831  -3.7824
    -3.7694  -3.7577  -3.7284  -3.6814  -3.6394  -3.6008  -3.5973  -3.5954
    -3.5937  -3.5797  -3.5789  -3.5786  -3.5543  -3.5492  -3.5212  -3.5068
    -3.4979  -3.4937  -3.4799  -3.4779  -3.4735  -3.4686  -3.4618  -3.4600
    -3.4317  -3.4220  -3.3851  -3.3707  -3.3640  -3.3531  -3.3502  -3.3471
    -3.3459  -3.3180  -3.3147  -3.3108  -3.3069  -3.2913  -3.2763  -3.2710
    -3.2701  -3.2688  -3.2685  -3.2445  -3.2384  -3.2315  -3.2292  -3.2219
    -3.2071  -3.2027  -3.1959  -3.1926  -3.1908  -3.1855  -3.1507  -3.1266
    -3.1211  -3.1171  -3.1126  -3.0971  -3.0667  -3.0647  -3.0560  -3.0311
    -3.0278  -3.0255  -3.0102  -3.0071  -3.0067  -3.0064  -3.0055  -2.9755
    -2.9634  -2.9579  -2.9568  -2.9481  -2.9364  -2.9229  -2.9197  -2.9172
    -2.9122  -2.8982  -2.8923  -2.8830  -2.8753  -2.8743  -2.8583  -2.8492
    -2.8290  -2.8234  -2.8159  -2.8032  -2.8024  -2.7966  -2.7863  -2.7378
    -2.7315  -2.7067  -2.7010  -2.6648  -2.6442  -2.6431  -2.6348  -2.6300
    -2.6195  -2.5677  -2.5595  -2.5205  -2.5050  -2.5001  -2.4901  -2.4774
    -2.4638  -2.3742  -2.3556  -2.3143  -2.2828  -2.2410

          k =-0.5000-0.8660 0.0000 (321564 PWs)   bands (ev):

  -103.1054 -89.0239 -87.2069 -71.4913 -71.4853 -71.4395 -71.3956 -71.3809
   -71.3780 -71.3689 -66.6811 -66.6811 -66.6705 -66.6705 -66.6556 -66.6556
   -66.6556 -66.6556 -66.6512 -66.6512 -66.6450 -66.6450 -66.6449 -66.6449
   -66.6406 -66.6406 -66.6157 -66.6154 -66.6051 -66.6049 -66.5902 -66.5902
   -66.5901 -66.5899 -66.5858 -66.5855 -66.5797 -66.5795 -66.5795 -66.5791
   -66.5751 -66.5749 -66.5749 -66.5516 -66.5479 -66.5367 -66.5339 -66.5292
   -66.5260 -66.5237 -66.5182 -66.5074 -66.5004 -66.4960 -66.4830 -66.4710
   -66.4682 -66.4622 -57.3885 -57.3549 -57.1417 -54.9089 -54.8756 -54.6082
   -53.1885 -53.0787 -52.7201 -40.9823 -40.9823 -40.9823 -40.9823 -40.9557
   -40.9556 -40.9437 -40.9437 -40.9158 -40.9157 -40.9156 -40.9154 -40.8933
   -40.8933 -40.8933 -40.8933 -40.8891 -40.8889 -40.8771 -40.8770 -40.8607
   -40.8566 -40.8375 -40.8352 -40.8352 -40.8327 -40.8268 -40.8267 -40.8266
   -40.8266 -40.8254 -40.8254 -40.8230 -40.8176 -40.8145 -40.8145 -40.7963
   -40.7850 -40.7850 -40.7850 -40.7850 -40.7773 -40.7764 -40.7763 -40.7703
   -40.7701 -40.7644 -40.7644 -40.7642 -40.7642 -40.7641 -40.7641 -40.7590
   -40.7588 -40.7560 -40.7555 -40.7555 -40.7496 -40.7495 -40.7480 -40.7423
   -40.7386 -40.7336 -40.7336 -40.7336 -40.7336 -40.7298 -40.7202 -40.7202
   -40.7202 -40.7200 -40.7116 -40.7113 -40.7078 -40.7054 -40.6994 -40.6993
   -40.6993 -40.6991 -40.6991 -40.6991 -40.6991 -40.6990 -40.6980 -40.6978
   -40.6973 -40.6907 -40.6906 -40.6870 -40.6870 -40.6827 -40.6785 -40.6736
   -40.6702 -40.6687 -40.6679 -40.6678 -40.6675 -40.6673 -40.6671 -40.6668
   -40.6604 -40.6532 -40.6509 -40.6509 -40.6505 -40.6444 -40.6361 -40.6328
   -40.6328 -40.6326 -40.6326 -40.6293 -40.6273 -40.6228 -40.6208 -40.6205
   -40.6205 -40.6205 -40.6166 -40.6143 -40.6021 -40.6017 -40.6012 -40.5994
   -40.5940 -40.5889 -40.5847 -40.5845 -40.5833 -40.5604 -40.5550 -40.5543
   -40.5540 -40.5480 -40.5471 -40.5414 -40.5239 -40.5217 -40.5144 -40.4922
   -40.4788 -40.4766 -40.4459 -20.0323 -19.8855 -19.8709 -19.7841 -19.7148
   -19.6622 -19.4822 -19.4522 -19.4304 -19.3682 -19.2890 -19.2503 -19.0820
   -18.8220 -18.7749 -18.7474 -18.7411 -18.7401 -18.7370 -18.7210 -18.6875
   -18.6678 -18.6393 -18.6195 -18.6094 -18.6035 -18.5854 -18.5537 -18.5514
   -18.5408 -18.4946 -18.4924 -18.4724 -18.4594 -18.4370 -18.4119 -18.4019
   -18.3944 -18.3781 -18.3116 -18.3059 -18.2912 -18.2535 -18.2411 -18.2258
   -18.2197 -18.1874 -18.1679 -18.1524 -18.1276 -18.1271 -18.1268 -18.1265
   -18.1257 -18.1066 -18.1056 -18.0720 -18.0689 -18.0572 -18.0517 -18.0515
   -18.0441 -18.0393 -18.0290 -18.0064 -17.9960 -17.9902 -17.9825 -17.9780
   -17.9673 -17.9470 -17.9431 -17.9402 -17.9334 -17.9239 -17.9155 -17.8855
   -17.8831 -17.8714 -17.8641 -17.8640 -17.8604 -17.8215 -17.8193 -17.8054
   -17.8048 -17.8032 -17.7892 -17.7880 -17.7805 -17.7651 -17.7494 -17.7438
   -17.7411 -17.6877 -17.6862 -12.1031 -11.8809 -11.6939 -11.6831 -11.6510
   -11.5352 -11.4801 -11.4746 -11.4718 -11.4698 -11.4567 -11.4482 -11.4399
   -11.4012 -11.3821 -11.3746 -11.3736 -11.3481 -11.3441 -11.3181 -11.3106
   -11.2867 -11.2854 -11.2574 -11.2565 -11.2564 -11.2511 -11.2124 -11.2113
   -11.2052 -11.1737 -11.1581 -11.1553 -11.1524 -11.1300 -11.0528 -11.0234
   -11.0144 -10.9911 -10.9739 -10.9664 -10.9447 -10.9293 -10.9230 -10.9070
   -10.9027 -10.9003 -10.8717 -10.8587 -10.8498 -10.8324 -10.8316 -10.8298
   -10.8290 -10.8248 -10.8235 -10.8122 -10.8088 -10.7946 -10.7722 -10.7658
   -10.7630 -10.7546 -10.7371 -10.6520 -10.5893 -10.5727 -10.5236 -10.4979
   -10.4916 -10.4356 -10.3868 -10.3328 -10.3067 -10.2375 -10.2100 -10.1294
   -10.1253 -10.1172 -10.1118 -10.0571 -10.0419 -10.0190 -10.0156  -9.9617
    -9.9523  -9.9419  -9.9365  -9.9348  -9.9262  -9.9166  -9.9038  -9.9010
    -9.8962  -9.8818  -9.8785  -9.8197  -9.7986  -9.7843  -9.7678  -9.7586
    -9.7558  -9.7367  -9.7262  -9.7159  -9.7084  -9.7009  -9.6963  -9.6854
    -9.6613  -9.6549  -9.6428  -9.6303  -9.6175  -9.6104  -9.6032  -9.5687
    -9.5536  -9.5400  -9.5311  -9.5243  -9.5136  -9.4969  -9.4721  -9.4693
    -9.4426  -9.3946  -9.3779  -9.3340  -9.3180  -9.2714  -9.2135  -9.2112
    -9.1967  -9.1745  -9.1640  -9.1520  -9.1415  -9.1367  -9.1256  -9.1127
    -9.1015  -9.0893  -9.0648  -9.0568  -9.0417  -9.0288  -9.0221  -9.0063
    -8.9976  -8.9888  -8.9806  -8.9690  -8.9645  -8.9507  -8.9425  -8.9353
    -8.9326  -8.9306  -8.9277  -8.9045  -8.8960  -8.8743  -8.8635  -8.8598
    -8.8563  -8.8534  -8.8458  -8.8391  -8.8386  -8.8313  -8.8281  -8.8210
    -8.8183  -8.8012  -8.7963  -8.7722  -8.7635  -8.7605  -8.7446  -8.7278
    -8.7051  -8.6766  -8.5942  -8.5303  -8.5115  -8.5102  -8.4472  -8.4404
    -8.4285  -8.4115  -8.3725  -8.3394  -8.2907  -8.2008  -8.1928  -8.1928
    -8.1650  -8.1218  -8.1210  -8.0982  -8.0853  -8.0499  -8.0209  -7.9804
    -7.9336  -7.9314  -7.8920  -7.8703  -7.8628  -7.8599  -7.8506  -7.8498
    -7.8478  -7.8462  -7.8461  -7.8458  -7.8316  -7.8072  -7.8008  -7.7999
    -7.7993  -7.7979  -7.7777  -7.7761  -7.7695  -7.7638  -7.7571  -7.7508
    -7.7462  -7.7362  -7.7271  -7.7243  -7.7203  -7.7122  -7.7003  -7.6959
    -7.6903  -7.6859  -7.6634  -7.6609  -7.6608  -7.6548  -7.6467  -7.6391
    -7.6243  -7.6176  -7.6077  -7.6007  -7.5928  -7.5880  -7.5700  -7.5570
    -7.5470  -7.5211  -7.5090  -7.4895  -7.4765  -7.4637  -7.3608  -7.3464
    -7.3157  -7.2631  -7.2382  -7.2349  -7.2300  -7.2196  -7.2108  -7.1514
    -7.1378  -7.1195  -7.1085  -7.0723  -7.0635  -7.0277  -7.0133  -7.0103
    -7.0070  -6.9845  -6.9504  -6.9471  -6.9317  -6.9255  -6.9065  -6.8944
    -6.8900  -6.8639  -6.8534  -6.8301  -6.8199  -6.7648  -6.7596  -6.7228
    -6.7048  -6.6890  -6.6587  -6.6578  -6.6576  -6.6575  -6.6567  -6.6234
    -6.6079  -6.6029  -6.5908  -6.5899  -6.5884  -6.5833  -6.5654  -6.5455
    -6.5115  -6.5098  -6.4763  -6.4475  -6.4260  -6.3360  -6.3271  -6.3264
    -6.3260  -6.3250  -6.2996  -6.2642  -6.2590  -6.2522  -6.2494  -6.2471
    -6.2391  -6.2294  -6.2148  -6.1992  -6.1919  -6.1726  -6.1629  -6.1015
    -6.0080  -5.9778  -5.9777  -5.9050  -5.9013  -5.8752  -5.8189  -5.8127
    -5.7595  -5.7539  -5.6096  -5.5765  -5.4988  -5.4031  -5.1971  -5.0757
    -5.0130  -4.9814  -4.5072  -4.0226  -4.0202  -4.0191  -3.9982  -3.8932
    -3.8932  -3.8760  -3.8617  -3.8291  -3.8289  -3.8002  -3.7853  -3.7805
    -3.7747  -3.7589  -3.7216  -3.6757  -3.6372  -3.6013  -3.5974  -3.5947
    -3.5933  -3.5791  -3.5789  -3.5753  -3.5528  -3.5495  -3.5137  -3.5042
    -3.5001  -3.4943  -3.4789  -3.4770  -3.4712  -3.4693  -3.4624  -3.4599
    -3.4275  -3.4135  -3.3937  -3.3734  -3.3606  -3.3552  -3.3500  -3.3465
    -3.3447  -3.3192  -3.3160  -3.3104  -3.3061  -3.2899  -3.2794  -3.2708
    -3.2702  -3.2693  -3.2681  -3.2452  -3.2419  -3.2341  -3.2281  -3.2236
    -3.2084  -3.2038  -3.1967  -3.1899  -3.1861  -3.1820  -3.1591  -3.1355
    -3.1282  -3.1178  -3.1007  -3.0945  -3.0732  -3.0677  -3.0648  -3.0369
    -3.0265  -3.0235  -3.0091  -3.0067  -3.0061  -3.0057  -3.0041  -2.9801
    -2.9625  -2.9578  -2.9565  -2.9386  -2.9329  -2.9247  -2.9218  -2.9182
    -2.9102  -2.9028  -2.8944  -2.8860  -2.8751  -2.8672  -2.8630  -2.8469
    -2.8380  -2.8273  -2.8108  -2.8039  -2.7985  -2.7922  -2.7829  -2.7367
    -2.7291  -2.7064  -2.6990  -2.6543  -2.6444  -2.6422  -2.6346  -2.6324
    -2.6216  -2.5638  -2.5622  -2.5166  -2.5032  -2.4968  -2.4852  -2.4803
    -2.4713  -2.3737  -2.3613  -2.3216  -2.2886  -2.2741

     the Fermi energy is    -4.7343 ev

!    total energy              =  -26543.75321369 Ry
     total all-electron energy =   -522376.349521 Ry
     estimated scf accuracy    <       0.00000087 Ry
     smearing contrib. (-TS)   =      -0.00059683 Ry
     internal energy E=F+TS    =  -26543.75261686 Ry

     The total energy is F=E-TS. E is the sum of the following terms:
     one-electron contribution =  514995.14470757 Ry
     hartree contribution      = -257642.23980314 Ry
     xc contribution           =   -1565.43794371 Ry
     ewald contribution        = -265883.23757181 Ry
     DFT-D3 Dispersion         =      -4.04232481 Ry
     one-center paw contrib.   =  -16443.93968094 Ry

     convergence has been achieved in  24 iterations

     negative rho (up, down):  9.406E-04 0.000E+00

     Forces acting on atoms (cartesian axes, Ry/au):

     atom    1 type  1   force =    -0.00042105    0.00014363   -0.00013606
     atom    2 type  1   force =    -0.00002895    0.00000648    0.00192123
     atom    3 type  1   force =    -0.00010739   -0.00000303    0.00008631
     atom    4 type  2   force =    -0.00000499    0.00001096   -0.00328500
     atom    5 type  2   force =    -0.00006100   -0.00002098    0.00011919
     atom    6 type  2   force =    -0.00015597   -0.00080227    0.00030951
     atom    7 type  2   force =    -0.00005356    0.00001842    0.00151958
     atom    8 type  2   force =    -0.00005700    0.00005005    0.00001355
     atom    9 type  2   force =    -0.00015189    0.00020940   -0.00011401
     atom   10 type  1   force =    -0.00028888    0.00026509   -0.00045449
     atom   11 type  1   force =    -0.00002746    0.00001681    0.00191501
     atom   12 type  1   force =    -0.00008960    0.00001360    0.00007692
     atom   13 type  2   force =    -0.00000339    0.00000945   -0.00328521
     atom   14 type  2   force =    -0.00006284    0.00001831   -0.00002233
     atom   15 type  2   force =    -0.00030929    0.00041635   -0.00018145
     atom   16 type  2   force =    -0.00004375    0.00001976    0.00153304
     atom   17 type  2   force =    -0.00003079    0.00005742   -0.00007274
     atom   18 type  2   force =     0.00005271   -0.00037887   -0.00013032
     atom   19 type  1   force =    -0.00011409    0.00027764    0.00024248
     atom   20 type  1   force =    -0.00000960    0.00001008    0.00192269
     atom   21 type  1   force =     0.00000651    0.00004882    0.00006659
     atom   22 type  2   force =     0.00000085    0.00001278   -0.00328844
     atom   23 type  2   force =    -0.00008554   -0.00003482    0.00006389
     atom   24 type  2   force =     0.00005414    0.00032118    0.00035933
     atom   25 type  2   force =    -0.00004517    0.00000959    0.00151975
     atom   26 type  2   force =     0.00002208    0.00004371    0.00002097
     atom   27 type  2   force =     0.00012061   -0.00019983    0.00026461
     atom   28 type  1   force =    -0.00045512   -0.00055601    0.00032454
     atom   29 type  1   force =    -0.00001751    0.00000295    0.00192509
     atom   30 type  1   force =     0.00000929   -0.00004079    0.00014815
     atom   31 type  2   force =    -0.00000386    0.00001252   -0.00328573
     atom   32 type  2   force =    -0.00005068    0.00001648   -0.00007256
     atom   33 type  2   force =    -0.00015735   -0.00072342   -0.00021564
     atom   34 type  2   force =    -0.00005199    0.00000818    0.00152315
     atom   35 type  2   force =     0.00007116   -0.00002233    0.00003400
     atom   36 type  2   force =    -0.00043070   -0.00031927    0.00084518
     atom   37 type  1   force =     0.00005735    0.00003180   -0.00010954
     atom   38 type  1   force =    -0.00001585    0.00000001    0.00192175
     atom   39 type  1   force =    -0.00002975   -0.00001660    0.00008997
     atom   40 type  2   force =    -0.00000433    0.00000731   -0.00328895
     atom   41 type  2   force =     0.00000041    0.00001470    0.00004135
     atom   42 type  2   force =    -0.00041383   -0.00022075    0.00062507
     atom   43 type  2   force =    -0.00004769    0.00001644    0.00151551
     atom   44 type  2   force =    -0.00000300    0.00002596    0.00001666
     atom   45 type  2   force =    -0.00033568   -0.00023326   -0.00069620
     atom   46 type  1   force =    -0.00018576   -0.00027660   -0.00081438
     atom   47 type  1   force =    -0.00003071    0.00002052    0.00191113
     atom   48 type  1   force =    -0.00003674    0.00000693    0.00002181
     atom   49 type  2   force =    -0.00000769    0.00000887   -0.00329009
     atom   50 type  2   force =    -0.00001363   -0.00004415    0.00003096
     atom   51 type  2   force =     0.00122974    0.00041142   -0.00046724
     atom   52 type  2   force =    -0.00005198    0.00002571    0.00151659
     atom   53 type  2   force =     0.00000129    0.00000017    0.00000550
     atom   54 type  2   force =    -0.00055722    0.00043894   -0.00162206
     atom   55 type  1   force =     0.00005275    0.00036000    0.00027533
     atom   56 type  1   force =    -0.00002795    0.00001662    0.00191461
     atom   57 type  1   force =    -0.00002006   -0.00003109   -0.00000654
     atom   58 type  2   force =    -0.00000563    0.00001231   -0.00328808
     atom   59 type  2   force =     0.00001036   -0.00002561   -0.00000578
     atom   60 type  2   force =    -0.00084683    0.00009679   -0.00019359
     atom   61 type  2   force =    -0.00004189    0.00001066    0.00150786
     atom   62 type  2   force =    -0.00003318   -0.00000107   -0.00007050
     atom   63 type  2   force =    -0.00061142    0.00048071   -0.00015916
     atom   64 type  1   force =     0.00021690    0.00018765    0.00009663
     atom   65 type  1   force =    -0.00001572   -0.00000116    0.00192390
     atom   66 type  1   force =    -0.00003126   -0.00001879    0.00003248
     atom   67 type  2   force =    -0.00000422    0.00000860   -0.00328458
     atom   68 type  2   force =     0.00002994    0.00003238    0.00002801
     atom   69 type  2   force =     0.00036867    0.00055638    0.00076727
     atom   70 type  2   force =    -0.00004098    0.00000575    0.00151548
     atom   71 type  2   force =     0.00001735   -0.00005423   -0.00012903
     atom   72 type  2   force =     0.00031231    0.00038479    0.00031805
     atom   73 type  1   force =     0.00024882   -0.00005535    0.00056941
     atom   74 type  1   force =     0.00000026    0.00000319    0.00192222
     atom   75 type  1   force =     0.00002238   -0.00003065    0.00004991
     atom   76 type  2   force =    -0.00000207    0.00000786   -0.00329046
     atom   77 type  2   force =    -0.00003598    0.00004115   -0.00009823
     atom   78 type  2   force =     0.00061824   -0.00039643    0.00017994
     atom   79 type  2   force =    -0.00003773    0.00001558    0.00152620
     atom   80 type  2   force =     0.00002366    0.00000492   -0.00000732
     atom   81 type  2   force =    -0.00046198   -0.00019077    0.00008475
     atom   82 type  1   force =    -0.00033254   -0.00023135    0.00009838
     atom   83 type  1   force =    -0.00000214    0.00001760    0.00191719
     atom   84 type  1   force =    -0.00006079    0.00005131    0.00002196
     atom   85 type  2   force =    -0.00000313    0.00001062   -0.00329724
     atom   86 type  2   force =    -0.00006631    0.00002054    0.00001352
     atom   87 type  2   force =     0.00054618    0.00045120   -0.00000118
     atom   88 type  2   force =    -0.00004571    0.00002408    0.00152670
     atom   89 type  2   force =    -0.00008756    0.00005091   -0.00009989
     atom   90 type  2   force =    -0.00106951   -0.00029991   -0.00024038
     atom   91 type  1   force =     0.00015418   -0.00028591    0.00050541
     atom   92 type  1   force =    -0.00001987    0.00002495    0.00191565
     atom   93 type  1   force =    -0.00003027    0.00002239    0.00002191
     atom   94 type  2   force =    -0.00000510    0.00001286   -0.00329277
     atom   95 type  2   force =     0.00000993    0.00004387   -0.00000639
     atom   96 type  2   force =    -0.00004149   -0.00035205    0.00014291
     atom   97 type  2   force =    -0.00005471    0.00001790    0.00150709
     atom   98 type  2   force =    -0.00001003    0.00004655   -0.00006256
     atom   99 type  2   force =    -0.00010920   -0.00091876    0.00042720
     atom  100 type  1   force =     0.00017800   -0.00001249    0.00011606
     atom  101 type  1   force =    -0.00001576    0.00001711    0.00192115
     atom  102 type  1   force =     0.00002357    0.00003403    0.00003902
     atom  103 type  2   force =    -0.00000350    0.00001176   -0.00328561
     atom  104 type  2   force =     0.00002312    0.00001689    0.00004994
     atom  105 type  2   force =    -0.00009287    0.00102964   -0.00054548
     atom  106 type  2   force =    -0.00004437    0.00000954    0.00151584
     atom  107 type  2   force =    -0.00003429   -0.00007492   -0.00000673
     atom  108 type  2   force =    -0.00043361    0.00110871    0.00036850
     atom  109 type  1   force =    -0.00015072   -0.00017512   -0.00019842
     atom  110 type  1   force =    -0.00001472    0.00001263    0.00192219
     atom  111 type  1   force =    -0.00002754   -0.00002803    0.00005280
     atom  112 type  2   force =    -0.00000209    0.00001086   -0.00328915
     atom  113 type  2   force =    -0.00000537   -0.00003912    0.00003460
     atom  114 type  2   force =     0.00002013   -0.00044855    0.00009048
     atom  115 type  2   force =    -0.00004489    0.00001695    0.00152907
     atom  116 type  2   force =    -0.00006843    0.00000714    0.00010478
     atom  117 type  2   force =     0.00054352   -0.00032097    0.00063671
     atom  118 type  1   force =    -0.00033837   -0.00004225    0.00016665
     atom  119 type  1   force =    -0.00000132    0.00001712    0.00192036
     atom  120 type  1   force =    -0.00000919    0.00007094    0.00003413
     atom  121 type  2   force =     0.00000052    0.00000920   -0.00329023
     atom  122 type  2   force =    -0.00007870   -0.00000617    0.00000790
     atom  123 type  2   force =     0.00033508   -0.00064511   -0.00024593
     atom  124 type  2   force =    -0.00003660    0.00001516    0.00153787
     atom  125 type  2   force =    -0.00009140   -0.00002587   -0.00001744
     atom  126 type  2   force =     0.00070569   -0.00031557    0.00022432
     atom  127 type  1   force =     0.00037009   -0.00010969    0.00038851
     atom  128 type  1   force =    -0.00000701    0.00001643    0.00192191
     atom  129 type  1   force =     0.00002204    0.00001262    0.00004363
     atom  130 type  2   force =    -0.00000144    0.00001359   -0.00329242
     atom  131 type  2   force =     0.00002363    0.00009893   -0.00001824
     atom  132 type  2   force =     0.00125799   -0.00045663    0.00019369
     atom  133 type  2   force =    -0.00005358    0.00001163    0.00151506
     atom  134 type  2   force =    -0.00000676    0.00003717   -0.00002513
     atom  135 type  2   force =     0.00074307    0.00020324    0.00023364
     atom  136 type  1   force =     0.00023983   -0.00042188    0.00013234
[...]
     atom   72 type  2   force =     0.00002212    0.00002320    0.00021251
     atom   73 type  1   force =    -0.00018454    0.00019541   -0.00005252
     atom   74 type  1   force =    -0.00001772   -0.00000059    0.00189716
     atom   75 type  1   force =     0.00005890   -0.00002493   -0.00014074
     atom   76 type  2   force =     0.00000705   -0.00000241   -0.00328314
     atom   77 type  2   force =     0.00004005    0.00000921   -0.00013925
     atom   78 type  2   force =     0.00018421   -0.00079152    0.00037453
     atom   79 type  2   force =    -0.00007666    0.00000787    0.00151591
     atom   80 type  2   force =     0.00001575   -0.00004364   -0.00008547
     atom   81 type  2   force =    -0.00034962   -0.00027805   -0.00010792
     atom   82 type  1   force =    -0.00036811    0.00020964    0.00003878
     atom   83 type  1   force =    -0.00001818   -0.00000065    0.00189404
     atom   84 type  1   force =     0.00006574   -0.00003102   -0.00006110
     atom   85 type  2   force =     0.00000741   -0.00000203   -0.00328266
     atom   86 type  2   force =     0.00005108   -0.00001331   -0.00009510
     atom   87 type  2   force =     0.00043109    0.00004851    0.00040840
     atom   88 type  2   force =    -0.00007977    0.00000761    0.00150514
     atom   89 type  2   force =     0.00005145   -0.00005411   -0.00010362
     atom   90 type  2   force =    -0.00096108    0.00035729    0.00001522
     atom   91 type  1   force =    -0.00017353    0.00026910   -0.00002127
     atom   92 type  1   force =    -0.00002015   -0.00000471    0.00189468
     atom   93 type  1   force =     0.00003894   -0.00000864   -0.00006435
     atom   94 type  2   force =     0.00000781   -0.00000177   -0.00328352
     atom   95 type  2   force =     0.00009750   -0.00000668    0.00002717
     atom   96 type  2   force =     0.00010120   -0.00043034   -0.00035899
     atom   97 type  2   force =    -0.00008380   -0.00000635    0.00148546
     atom   98 type  2   force =     0.00001208   -0.00004949   -0.00006787
     atom   99 type  2   force =    -0.00006032   -0.00009449    0.00010347
     atom  100 type  1   force =    -0.00027524   -0.00021668    0.00023562
     atom  101 type  1   force =    -0.00001798   -0.00000001    0.00189766
     atom  102 type  1   force =     0.00004066    0.00000890   -0.00014031
     atom  103 type  2   force =     0.00000761   -0.00000199   -0.00328203
     atom  104 type  2   force =     0.00003450   -0.00004782   -0.00009494
     atom  105 type  2   force =    -0.00044169    0.00031045   -0.00034605
     atom  106 type  2   force =    -0.00007329   -0.00000129    0.00151069
     atom  107 type  2   force =     0.00002357   -0.00000511   -0.00011135
     atom  108 type  2   force =    -0.00060517    0.00008187    0.00053730
     atom  109 type  1   force =     0.00022372    0.00009364   -0.00001741
     atom  110 type  1   force =    -0.00002071   -0.00000150    0.00189767
     atom  111 type  1   force =     0.00002504   -0.00003336   -0.00009234
     atom  112 type  2   force =     0.00000760   -0.00000259   -0.00328382
     atom  113 type  2   force =     0.00008148    0.00001830   -0.00004360
     atom  114 type  2   force =    -0.00018887   -0.00015560    0.00049559
     atom  115 type  2   force =    -0.00008493    0.00000601    0.00151776
     atom  116 type  2   force =    -0.00000254   -0.00005858   -0.00004894
     atom  117 type  2   force =     0.00006049    0.00010032   -0.00011881
     atom  118 type  1   force =    -0.00004228   -0.00012926    0.00010506
     atom  119 type  1   force =    -0.00001941   -0.00000243    0.00189617
     atom  120 type  1   force =     0.00005785   -0.00002097   -0.00009638
     atom  121 type  2   force =     0.00000730   -0.00000186   -0.00328325
     atom  122 type  2   force =     0.00008323   -0.00002286   -0.00010826
     atom  123 type  2   force =     0.00015809    0.00021383   -0.00071132
     atom  124 type  2   force =    -0.00007937    0.00000052    0.00152367
     atom  125 type  2   force =     0.00007681   -0.00004155   -0.00011235
     atom  126 type  2   force =     0.00038949   -0.00026800   -0.00018272
     atom  127 type  1   force =    -0.00014053    0.00008960    0.00008636
     atom  128 type  1   force =    -0.00002012   -0.00000606    0.00189972
     atom  129 type  1   force =     0.00005420   -0.00001237   -0.00002320
     atom  130 type  2   force =     0.00000734   -0.00000142   -0.00328307
     atom  131 type  2   force =     0.00004128    0.00000459   -0.00004788
     atom  132 type  2   force =     0.00005211    0.00009374   -0.00035335
     atom  133 type  2   force =    -0.00008714   -0.00001023    0.00149899
     atom  134 type  2   force =     0.00001849   -0.00002752   -0.00006465
     atom  135 type  2   force =    -0.00001039    0.00024194   -0.00009609
     atom  136 type  1   force =    -0.00014028    0.00004813    0.00017986
     atom  137 type  1   force =    -0.00002171    0.00000072    0.00190165
     atom  138 type  1   force =     0.00004108   -0.00002663   -0.00010202
     atom  139 type  2   force =     0.00000770   -0.00000211   -0.00328238
     atom  140 type  2   force =     0.00009904   -0.00004966   -0.00003934
     atom  141 type  2   force =    -0.00009369    0.00059934   -0.00039938
     atom  142 type  2   force =    -0.00008975   -0.00000160    0.00150051
     atom  143 type  2   force =     0.00000823    0.00000242   -0.00005035
     atom  144 type  2   force =     0.00009083    0.00045639    0.00061227
     atom  145 type  3   force =     0.00015364    0.00004925   -0.00077523
     atom  146 type  4   force =     0.00029168   -0.00039277    0.00070229
     atom  147 type  4   force =     0.00003620    0.00026926   -0.00009757

     Total force =     0.003605     Total SCF correction =     0.000393
     SCF correction compared to forces is large: reduce conv_thr to get better values
     Energy error            =      2.5E-05 Ry
     Gradient error          =      9.6E-04 Ry/Bohr

     bfgs converged in  59 scf cycles and  57 bfgs steps
     (criteria: energy <  1.0E-04 Ry, force <  1.0E-03 Ry/Bohr)

     End of BFGS Geometry Optimization

     Final energy             =  -26543.7536866716 Ry

     File ./outdir/pwscf.bfgs deleted, as requested
Begin final coordinates

ATOMIC_POSITIONS (angstrom)
Mo               1.5611906065        2.7118536073        6.0790002357
Mo               1.5769197498        0.9104407117       -6.0872367793    0   0   0
Mo              -0.0149739530        1.8218217670        0.0006666640
S                0.0000044503        0.0000077495       -7.6506323570    0   0   0
S                1.5617494199        0.9119791420       -1.5655170888
S               -0.0078795921        1.8189802095        4.4952992087
S                0.0000053241        0.0000068460       -4.5222282367    0   0   0
S                1.5620533235        0.9103291956        1.5661161497
S               -0.0240240495        1.7965752102        7.6342010704
Mo              -0.0222603095        5.4562190094        6.0776370085
Mo               0.0000011799        3.6417399547       -6.0872367793    0   0   0
Mo              -1.5919865692        4.5529203467        0.0009782051
S               -1.5769141197        2.7313069925       -7.6506323570    0   0   0
S               -0.0151146678        3.6426446827       -1.5645544396
S               -1.5843780334        4.5468064273        4.4961922032
S               -1.5769132459        2.7313060890       -4.5222282367    0   0   0
S               -0.0138690649        3.6431678235        1.5680029653
S               -1.5920502133        4.5392585393        7.6407898426
Mo              -1.5890388305        8.1864080827        6.0597927515
Mo              -1.5769173901        6.3730391977       -6.0872367793    0   0   0
Mo              -3.1688576392        7.2838637648       -0.0018280469
S               -3.1538326896        5.4626062355       -7.6506323570    0   0   0
S               -1.5914964767        6.3726543656       -1.5662981418
S               -3.1646948752        7.2725141288        4.4929240887
S               -3.1538318159        5.4626053320       -4.5222282367    0   0   0
S               -1.5921611874        6.3745379076        1.5657594603
S               -3.1587246492        7.2802323503        7.6330321459
Mo               3.1404863827       -0.0132284569        6.0554044203
Mo              -3.1538359601        9.1043384407       -6.0872367793    0   0   0
Mo              -4.7458872906       10.0152534507       -0.0013367355
S               -4.7307512596        8.1939054785       -7.6506323570    0   0   0
S               -3.1684494316        9.1052973508       -1.5668347090
S               -4.7421370224       10.0027492711        4.4875672397
S               -4.7307503859        8.1939045750       -4.5222282367    0   0   0
S               -3.1688290406        9.1045267887        1.5647413257
S               -4.7387183979       10.0156602847        7.6282923865
Mo               4.7166767929        2.6785014023        6.0735103480
Mo               4.7307503218        0.9104407117       -6.0872367793    0   0   0
Mo               3.1389304332        1.8218314998        0.0001659841
S                3.1538350223        0.0000077495       -7.6506323570    0   0   0
S                4.7164576343        0.9119076951       -1.5650014535
S                3.1348144993        1.8118637444        4.4957615322
S                3.1538358961        0.0000068460       -4.5222282367    0   0   0
S                4.7152313822        0.9104217808        1.5671525568
S                3.1336578732        1.7850567474        7.6393193717
Mo               3.1187482611        5.4557112854        6.1339739825
Mo               3.1538317519        3.6417399547       -6.0872367793    0   0   0
Mo               1.5625008784        4.5528401714        0.0002218788
S                1.5769164523        2.7313069925       -7.6506323570    0   0   0
S                3.1391159774        3.6423324225       -1.5655199346
S                1.5836680118        4.5562622837        4.5479883753
S                1.5769173261        2.7313060890       -4.5222282367    0   0   0
S                3.1394729229        3.6428130164        1.5681937023
S                1.4441088211        4.4774920905        7.7352547820
Mo               1.5493419700        8.2010131920        6.0686337559
Mo               1.5769131819        6.3730391977       -6.0872367793    0   0   0
Mo              -0.0146785566        7.2835128278       -0.0010803286
S               -0.0000021176        5.4626062355       -7.6506323570    0   0   0
S                1.5624561485        6.3730508998       -1.5661646863
S               -0.0113802584        7.2713150371        4.4989752378
S               -0.0000012439        5.4626053320       -4.5222282367    0   0   0
S                1.5621132042        6.3735570329        1.5669963800
S               -0.0199146481        7.2847251305        7.6371166594
Mo               6.3002682396       -0.0089382365        6.0523138578
Mo              -0.0000053881        9.1043384407       -6.0872367793    0   0   0
Mo              -1.5916271509       10.0153696723       -0.0009354394
S               -1.5769206876        8.1939054785       -7.6506323570    0   0   0
S               -0.0140093304        9.1050839749       -1.5657000326
S               -1.5875354384       10.0041804774        4.4873253409
S               -1.5769198139        8.1939045750       -4.5222282367    0   0   0
S               -0.0154554212        9.1037688816        1.5661429696
S               -1.5861998838       10.0060563778        7.6222334354
Mo               7.8778302052        2.7135721498        6.0716702446
Mo               7.8845808939        0.9104407117       -6.0872367793    0   0   0
Mo               6.2926088572        1.8218852317        0.0013847012
S                6.3076655943        0.0000077495       -7.6506323570    0   0   0
S                7.8699367071        0.9113551463       -1.5637433695
S                6.2979605525        1.8166993836        4.4908009142
S                6.3076664681        0.0000068460       -4.5222282367    0   0   0
S                7.8693989602        0.9105238433        1.5677761530
S                6.3082824619        1.7887218442        7.6351987171
Mo               6.3241135981        5.4537205349        6.1279094562
Mo               6.3076623239        3.6417399547       -6.0872367793    0   0   0
Mo               4.7155372370        4.5531362391        0.0000673031
S                4.7307470244        2.7313069925       -7.6506323570    0   0   0
S                6.2927413155        3.6421309330       -1.5645479003
S                4.7126970640        4.5638561667        4.5828494013
S                4.7307478981        2.7313060890       -4.5222282367    0   0   0
S                6.2913803592        3.6436659827        1.5686296755
S                4.7436251446        4.4354689781        7.6801859770
Mo               4.7194945494        8.2084688578        6.0864139653
Mo               4.7307437539        6.3730391977       -6.0872367793    0   0   0
Mo               3.1390331209        7.2834549232       -0.0005183169
S                3.1538284544        5.4626062355       -7.6506323570    0   0   0
S                4.7154741223        6.3732178493       -1.5665066116
S                3.1421067905        7.2544420117        4.5508344802
S                3.1538293281        5.4626053320       -4.5222282367    0   0   0
S                4.7159324784        6.3738201788        1.5671069842
S                3.1212654681        7.3909490628        7.6965621017
Mo               9.4526721492       -0.0068427162        6.0538670828
Mo               3.1538251839        9.1043384407       -6.0872367793    0   0   0
Mo               1.5622341479       10.0149502701        0.0007346405
S                1.5769098844        8.1939054785       -7.6506323570    0   0   0
S                3.1391681096        9.1052575989       -1.5648299457
S                1.5681026530       10.0042802082        4.4871168873
S                1.5769107581        8.1939045750       -4.5222282367    0   0   0
S                3.1389366952        9.1028523686        1.5677643719
S                1.5640551858       10.0236968957        7.6280395266
Mo              -1.5883129521        2.7236272173        6.0623248138
Mo              11.0384114659        0.9104407117       -6.0872367793    0   0   0
Mo               9.4464655180        1.8217026976        0.0017716968
S                9.4614961663        0.0000077495       -7.6506323570    0   0   0
S               11.0230197049        0.9112040148       -1.5640298542
S                9.4502369625        1.8177496965        4.4919713455
S                9.4614970401        0.0000068460       -4.5222282367    0   0   0
S               11.0239535886        0.9107213970        1.5679627753
S                9.4590418136        1.7997426619        7.6313539622
Mo              -3.1538917557        5.4549354264        6.0690596539
Mo               9.4614928959        3.6417399547       -6.0872367793    0   0   0
Mo               7.8690154479        4.5530600871        0.0007647545
S                7.8845775964        2.7313069925       -7.6506323570    0   0   0
S                9.4462883067        3.6421163501       -1.5638823766
S                7.8590197133        4.5524593481        4.5348391572
S                7.8845784701        2.7313060890       -4.5222282367    0   0   0
S                9.4454688665        3.6435445924        1.5686887127
S                7.9811575432        4.4890426653        7.6992406690
Mo              -4.7297749401        8.1953656499        6.0659832588
Mo               7.8845743259        6.3730391977       -6.0872367793    0   0   0
Mo               6.2924378610        7.2835874017       -0.0012982521
S                6.3076590264        5.4626062355       -7.6506323570    0   0   0
S                7.8694514286        6.3727512509       -1.5663775573
S                6.2921966120        7.2559022430        4.5425297266
S                6.3076599001        5.4626053320       -4.5222282367    0   0   0
S                7.8694451709        6.3745915728        1.5663885139
S                6.3126381701        7.3607279339        7.6736155126
Mo              -0.0115863612       -0.0084247549        6.0547495146
Mo               6.3076557559        9.1043384407       -6.0872367793    0   0   0
Mo               4.7158094491       10.0149636109        0.0009954063
S                4.7307404564        8.1939054785       -7.6506323570    0   0   0
S                6.2918662361        9.1052472582       -1.5659556527
S                4.7208824234        9.9970620874        4.4912773324
S                4.7307413301        8.1939045750       -4.5222282367    0   0   0
S                6.2935562545        9.1031621358        1.5665474041
S                4.7204634110       10.0356882117        7.6353361369
Pt               3.1870416311        5.4409428260        8.9684120047
Pd               6.2801282936        5.4258673722        9.0517819253
Pd               4.6511599680        5.9853600178       10.9830814495
End final coordinates



     Writing all to output data dir ./outdir/pwscf.save/ :
     XML data file, charge density, pseudopotentials, collected wavefunctions
 
     init_run     :     96.96s CPU     99.41s WALL (       1 calls)
     electrons    :  66434.73s CPU  67428.27s WALL (      11 calls)
     update_pot   :     13.20s CPU     13.64s WALL (      10 calls)
     forces       :    788.35s CPU    806.59s WALL (      11 calls)
     force_dftd3  :      4.24s CPU      4.45s WALL (      11 calls)

     Called by init_run:
     wfcinit      :     78.58s CPU     79.61s WALL (       1 calls)
     potinit      :      1.15s CPU      1.31s WALL (       1 calls)
     hinit0       :      9.56s CPU      9.76s WALL (       1 calls)

     Called by electrons:
     c_bands      :  58669.83s CPU  59295.90s WALL (     180 calls)
     sum_band     :   6654.00s CPU   6841.10s WALL (     180 calls)
     v_of_rho     :     52.38s CPU     58.94s WALL (     184 calls)
     newd         :    925.63s CPU   1098.92s WALL (     184 calls)
     PAW_pot      :    151.28s CPU    152.57s WALL (     194 calls)
     mix_rho      :     15.00s CPU     17.23s WALL (     180 calls)
     energy_dftd3 :      2.34s CPU      2.36s WALL (      11 calls)

     Called by c_bands:
     init_us_2    :    246.60s CPU    247.76s WALL (    1528 calls)
     init_us_2:cp :    246.58s CPU    247.75s WALL (    1528 calls)
     cegterg      :  57627.00s CPU  58244.19s WALL (     752 calls)

     Called by *egterg:
     cdiaghg      :   3064.13s CPU   3194.64s WALL (   10000 calls)
     h_psi        :  29484.96s CPU  29683.82s WALL (   10091 calls)
     s_psi        :   6227.69s CPU   6258.98s WALL (   10091 calls)
     g_psi        :     67.28s CPU     67.55s WALL (    9335 calls)

     Called by h_psi:
     h_psi:calbec :   6078.01s CPU   6101.69s WALL (   10091 calls)
     vloc_psi     :  17025.14s CPU  17124.13s WALL (   10091 calls)
     add_vuspsi   :   6239.90s CPU   6272.14s WALL (   10091 calls)

     General routines
     calbec       :   8269.72s CPU   8302.82s WALL (   11027 calls)
     fft          :     43.61s CPU     49.48s WALL (    2508 calls)
     ffts         :      2.32s CPU      2.40s WALL (     364 calls)
     fftw         :  12495.91s CPU  12567.63s WALL ( 4383688 calls)
     interpolate  :      4.33s CPU      4.75s WALL (     184 calls)
 
     Parallel routines
 
     PWSCF        :     18h46m CPU     19h 4m WALL

 
   This run was terminated on:   7:34:27  19Apr2024            

=------------------------------------------------------------------------------=
   JOB DONE.
=------------------------------------------------------------------------------=
