
     Program PWSCF v.7.2 starts on 11Nov2023 at 18:57:24 

     This program is part of the open-source Quantum ESPRESSO suite
     for quantum simulation of materials; please cite
         "P. Giannozzi et al., J. Phys.:Condens. Matter 21 395502 (2009);
         "P. Giannozzi et al., J. Phys.:Condens. Matter 29 465901 (2017);
         "P. Giannozzi et al., J. Chem. Phys. 152 154105 (2020);
          URL http://www.quantum-espresso.org", 
     in publications or presentations arising from this work. More details at
     http://www.quantum-espresso.org/quote

     Parallel version (MPI), running on    36 processors

     MPI processes distributed on     1 nodes
     769109 MiB available memory on the printing compute node when the environment starts
 
     Waiting for input...
     Reading input from standard input
Warning: card &CELL ignored
Warning: card / ignored

     Current dimensions of program PWSCF are:
     Max number of different atomic species (ntypx) = 10
     Max number of k-points (npk) =  40000
     Max angular momentum in pseudopotentials (lmaxx) =  4
     file Mo.pbe-spn-kjpaw_psl.1.0.0.UPF: wavefunction(s)  4S 4D renormalized
     file S.pbe-n-kjpaw_psl.1.0.0.UPF: wavefunction(s)  3S 3P renormalized
     file Au.pbe-spfn-kjpaw_psl.1.0.0.UPF: wavefunction(s)  5P 5D 4F renormalized
 
     R & G space division:  proc/nbgrp/npool/nimage =      36
     Subspace diagonalization in iterative solution of the eigenvalue problem:
     one sub-group per band group will be used
     custom distributed-memory algorithm (size of sub-group:  6*  6 procs)

 
     Parallelization info
     --------------------
     sticks:   dense  smooth     PW     G-vecs:    dense   smooth      PW
     Min         585     334     89               198743    85850   11735
     Max         586     335     90               198750    85861   11748
     Sum       21073   12049   3205              7154885  3090769  422587
 
     Using Slab Decomposition
 


     bravais-lattice index     =            0
     lattice parameter (alat)  =      23.8199  a.u.
     unit-cell volume          =   33861.0370 (a.u.)^3
     number of atoms/cell      =          193
     number of atomic types    =            3
     number of electrons       =      1697.00
     number of Kohn-Sham states=         1019
     kinetic-energy cutoff     =      77.0000  Ry
     charge density cutoff     =     539.0000  Ry
     scf convergence threshold =      1.0E-06
     mixing beta               =       0.2000
     number of iterations used =            8  plain     mixing
     energy convergence thresh.=      1.0E-04
     force convergence thresh. =      1.0E-03
     Exchange-correlation= SLA  PW   PBX  PBC
                           (   1   4   3   4   0   0   0)
     nstep                     =         1000


     Effective Screening Medium Method
     =================================
     Boundary Conditions: Vacuum-Slab-Vacuum
     total charge in unit cell        =   0.0000
     grid points for fit at edges     =        4 
 

     celldm(1)=  23.819920  celldm(2)=   0.000000  celldm(3)=   0.000000
     celldm(4)=   0.000000  celldm(5)=   0.000000  celldm(6)=   0.000000

     crystal axes: (cart. coord. in units of alat)
               a(1) = (   1.000000   0.000000   0.000000 )  
               a(2) = (  -0.499999   0.866026   0.000000 )  
               a(3) = (   0.000000   0.000000   2.893000 )  

     reciprocal axes: (cart. coord. in units 2 pi/alat)
               b(1) = (  1.000000  0.577349  0.000000 )  
               b(2) = (  0.000000  1.154700  0.000000 )  
               b(3) = (  0.000000  0.000000  0.345662 )  


     PseudoPot. # 1 for Mo read from file:
     ./pseudo/Mo.pbe-spn-kjpaw_psl.1.0.0.UPF
     MD5 check sum: 317bf72632116215fd98f72de1686f13
     Pseudo is Projector augmented-wave + core cor, Zval = 14.0
     Generated using 'atomic' code by A. Dal Corso  v.7.2
     Shape of augmentation charge: PSQ
     Using radial grid of 1229 points,  6 beta functions with: 
                l(1) =   0
                l(2) =   0
                l(3) =   1
                l(4) =   1
                l(5) =   2
                l(6) =   2
     Q(r) pseudized with 0 coefficients 


     PseudoPot. # 2 for S  read from file:
     ./pseudo/S.pbe-n-kjpaw_psl.1.0.0.UPF
     MD5 check sum: 8b7b5302570d38d5e87fed6a1065abda
     Pseudo is Projector augmented-wave + core cor, Zval =  6.0
     Generated using 'atomic' code by A. Dal Corso  v.7.2
     Shape of augmentation charge: PSQ
     Using radial grid of 1151 points,  6 beta functions with: 
                l(1) =   0
                l(2) =   0
                l(3) =   1
                l(4) =   1
                l(5) =   2
                l(6) =   2
     Q(r) pseudized with 0 coefficients 


     PseudoPot. # 3 for Au read from file:
     ./pseudo/Au.pbe-spfn-kjpaw_psl.1.0.0.UPF
     MD5 check sum: c4676eff00405da86a99eb409921eac8
     Pseudo is Projector augmented-wave + core cor, Zval = 33.0
     Generated using 'atomic' code by A. Dal Corso  v.7.2
     Shape of augmentation charge: PSQ
     Using radial grid of 1279 points,  8 beta functions with: 
                l(1) =   0
                l(2) =   0
                l(3) =   1
                l(4) =   1
                l(5) =   2
                l(6) =   2
                l(7) =   3
                l(8) =   3
     Q(r) pseudized with 0 coefficients 


     atomic species   valence    mass     pseudopotential
        Mo            14.00    95.95000     Mo( 1.00)
        S              6.00    32.06000     S ( 1.00)
        Au            33.00   196.96657     Au( 1.00)

     No symmetry found



   Cartesian axes

     site n.     atom                  positions (alat units)
         1           Mo  tau(   1) = (   0.0000010   0.1443372  -0.7272732  )
         2           Mo  tau(   2) = (   0.1249995   0.0721706  -0.2424038  )
         3           S   tau(   3) = (   0.0000015   0.1443386  -0.3667807  )
         4           S   tau(   4) = (   0.1250010   0.0721682  -0.6030489  )
         5           S   tau(   5) = (   0.1250010   0.0721683  -0.8514963  )
         6           S   tau(   6) = (   0.0000015   0.1443389  -0.1180260  )
         7           Mo  tau(   7) = (   0.0000041   0.1443345   0.2424023  )
         8           Mo  tau(   8) = (   0.1250030   0.0721700   0.7272501  )
         9           S   tau(   9) = (   0.0000038   0.1443392   0.6028599  )
        10           S   tau(  10) = (   0.1250037   0.0721683   0.3667755  )
        11           S   tau(  11) = (   0.1250033   0.0721688   0.1180247  )
        12           S   tau(  12) = (   0.0000038   0.1443391   0.8517304  )
        13           Mo  tau(  13) = (  -0.1249989   0.3608437  -0.7272732  )
        14           Mo  tau(  14) = (   0.0000030   0.2886752  -0.2424042  )
        15           S   tau(  15) = (  -0.1249977   0.3608450  -0.3667802  )
        16           S   tau(  16) = (   0.0000012   0.2886747  -0.6030489  )
        17           S   tau(  17) = (   0.0000012   0.2886748  -0.8514963  )
        18           S   tau(  18) = (  -0.1249977   0.3608454  -0.1180274  )
        19           Mo  tau(  19) = (  -0.1249981   0.3608444   0.2424011  )
        20           Mo  tau(  20) = (   0.0000038   0.2886765   0.7272499  )
        21           S   tau(  21) = (  -0.1249961   0.3608457   0.6028596  )
        22           S   tau(  22) = (   0.0000037   0.2886752   0.3667739  )
        23           S   tau(  23) = (   0.0000035   0.2886747   0.1180263  )
        24           S   tau(  24) = (  -0.1249962   0.3608459   0.8517305  )
        25           Mo  tau(  25) = (  -0.2499987   0.5773502  -0.7272732  )
        26           Mo  tau(  26) = (  -0.1249977   0.5051839  -0.2424055  )
        27           S   tau(  27) = (  -0.2499981   0.5773518  -0.3667809  )
        28           S   tau(  28) = (  -0.1249986   0.5051812  -0.6030489  )
        29           S   tau(  29) = (  -0.1249986   0.5051813  -0.8514963  )
        30           S   tau(  30) = (  -0.2499979   0.5773512  -0.1180266  )
        31           Mo  tau(  31) = (  -0.2499983   0.5773503   0.2424020  )
        32           Mo  tau(  32) = (  -0.1249962   0.5051830   0.7272501  )
        33           S   tau(  33) = (  -0.2499958   0.5773522   0.6028593  )
        34           S   tau(  34) = (  -0.1249963   0.5051821   0.3667746  )
        35           S   tau(  35) = (  -0.1249968   0.5051820   0.1180254  )
        36           S   tau(  36) = (  -0.2499959   0.5773522   0.8517307  )
        37           Mo  tau(  37) = (  -0.3749985   0.7938567  -0.7272732  )
        38           Mo  tau(  38) = (  -0.2500001   0.7216874  -0.2424031  )
        39           S   tau(  39) = (  -0.3749980   0.7938584  -0.3667800  )
        40           S   tau(  40) = (  -0.2499984   0.7216877  -0.6030489  )
        41           S   tau(  41) = (  -0.2499984   0.7216878  -0.8514963  )
        42           S   tau(  42) = (  -0.3749982   0.7938585  -0.1180264  )
        43           Mo  tau(  43) = (  -0.3749976   0.7938584   0.2424002  )
        44           Mo  tau(  44) = (  -0.2499965   0.7216896   0.7272502  )
        45           S   tau(  45) = (  -0.3749954   0.7938586   0.6028596  )
        46           S   tau(  46) = (  -0.2499962   0.7216890   0.3667741  )
        47           S   tau(  47) = (  -0.2499961   0.7216884   0.1180258  )
        48           S   tau(  48) = (  -0.3749955   0.7938585   0.8517305  )
        49           Mo  tau(  49) = (   0.2500010   0.1443372  -0.7272732  )
        50           Mo  tau(  50) = (   0.3750034   0.0721723  -0.2424032  )
        51           S   tau(  51) = (   0.2500017   0.1443391  -0.3667788  )
        52           S   tau(  52) = (   0.3750010   0.0721682  -0.6030489  )
        53           S   tau(  53) = (   0.3750010   0.0721683  -0.8514963  )
        54           S   tau(  54) = (   0.2500016   0.1443391  -0.1180271  )
        55           Mo  tau(  55) = (   0.2500037   0.1443371   0.2424008  )
        56           Mo  tau(  56) = (   0.3750049   0.0721708   0.7272499  )
        57           S   tau(  57) = (   0.2500041   0.1443391   0.6028593  )
        58           S   tau(  58) = (   0.3750026   0.0721682   0.3667763  )
        59           S   tau(  59) = (   0.3750033   0.0721687   0.1180242  )
        60           S   tau(  60) = (   0.2500040   0.1443392   0.8517310  )
        61           Mo  tau(  61) = (   0.1250012   0.3608437  -0.7272732  )
        62           Mo  tau(  62) = (   0.2500029   0.2886782  -0.2424031  )
        63           S   tau(  63) = (   0.1250024   0.3608455  -0.3667794  )
        64           S   tau(  64) = (   0.2500012   0.2886747  -0.6030489  )
        65           S   tau(  65) = (   0.2500012   0.2886748  -0.8514963  )
        66           S   tau(  66) = (   0.1250021   0.3608455  -0.1180270  )
        67           Mo  tau(  67) = (   0.1250055   0.3608449   0.2424003  )
        68           Mo  tau(  68) = (   0.2500045   0.2886775   0.7272501  )
        69           S   tau(  69) = (   0.1250040   0.3608458   0.6028596  )
        70           S   tau(  70) = (   0.2500032   0.2886750   0.3667755  )
        71           S   tau(  71) = (   0.2500033   0.2886748   0.1180238  )
        72           S   tau(  72) = (   0.1250043   0.3608459   0.8517305  )
        73           Mo  tau(  73) = (   0.0000014   0.5773502  -0.7272732  )
        74           Mo  tau(  74) = (   0.1250045   0.5051840  -0.2424036  )
        75           S   tau(  75) = (   0.0000030   0.5773520  -0.3667799  )
        76           S   tau(  76) = (   0.1250014   0.5051812  -0.6030489  )
        77           S   tau(  77) = (   0.1250014   0.5051813  -0.8514963  )
        78           S   tau(  78) = (   0.0000026   0.5773517  -0.1180274  )
        79           Mo  tau(  79) = (   0.0000039   0.5773528   0.2424003  )
        80           Mo  tau(  80) = (   0.1250050   0.5051837   0.7272501  )
        81           S   tau(  81) = (   0.0000041   0.5773523   0.6028593  )
        82           S   tau(  82) = (   0.1250034   0.5051819   0.3667749  )
        83           S   tau(  83) = (   0.1250033   0.5051818   0.1180238  )
        84           S   tau(  84) = (   0.0000042   0.5773523   0.8517309  )
        85           Mo  tau(  85) = (  -0.1249984   0.7938567  -0.7272732  )
        86           Mo  tau(  86) = (   0.0000069   0.7216896  -0.2424039  )
        87           S   tau(  87) = (  -0.1249975   0.7938582  -0.3667782  )
        88           S   tau(  88) = (   0.0000016   0.7216877  -0.6030489  )
        89           S   tau(  89) = (   0.0000016   0.7216878  -0.8514963  )
        90           S   tau(  90) = (  -0.1249973   0.7938582  -0.1180279  )
        91           Mo  tau(  91) = (  -0.1249936   0.7938581   0.2424006  )
        92           Mo  tau(  92) = (   0.0000056   0.7216904   0.7272501  )
        93           S   tau(  93) = (  -0.1249955   0.7938586   0.6028591  )
        94           S   tau(  94) = (   0.0000039   0.7216883   0.3667759  )
        95           S   tau(  95) = (   0.0000039   0.7216885   0.1180233  )
        96           S   tau(  96) = (  -0.1249955   0.7938586   0.8517313  )
        97           Mo  tau(  97) = (   0.5000010   0.1443372  -0.7272732  )
        98           Mo  tau(  98) = (   0.6250001   0.0721662  -0.2424040  )
        99           S   tau(  99) = (   0.5000017   0.1443386  -0.3667801  )
       100           S   tau( 100) = (   0.6250010   0.0721682  -0.6030489  )
       101           S   tau( 101) = (   0.6250010   0.0721683  -0.8514963  )
       102           S   tau( 102) = (   0.5000020   0.1443388  -0.1180261  )
       103           Mo  tau( 103) = (   0.5000005   0.1443344   0.2424031  )
       104           Mo  tau( 104) = (   0.6250028   0.0721696   0.7272500  )
       105           S   tau( 105) = (   0.5000038   0.1443392   0.6028599  )
       106           S   tau( 106) = (   0.6250032   0.0721682   0.3667750  )
       107           S   tau( 107) = (   0.6250029   0.0721690   0.1180259  )
       108           S   tau( 108) = (   0.5000038   0.1443393   0.8517304  )
       109           Mo  tau( 109) = (   0.3750012   0.3608437  -0.7272732  )
       110           Mo  tau( 110) = (   0.4999991   0.2886761  -0.2424038  )
       111           S   tau( 111) = (   0.3750012   0.3608452  -0.3667804  )
       112           S   tau( 112) = (   0.5000012   0.2886747  -0.6030489  )
       113           S   tau( 113) = (   0.5000012   0.2886748  -0.8514963  )
       114           S   tau( 114) = (   0.3750014   0.3608455  -0.1180261  )
       115           Mo  tau( 115) = (   0.3750003   0.3608415   0.2424003  )
       116           Mo  tau( 116) = (   0.5000036   0.2886765   0.7272501  )
       117           S   tau( 117) = (   0.3750041   0.3608456   0.6028595  )
       118           S   tau( 118) = (   0.5000032   0.2886753   0.3667740  )
       119           S   tau( 119) = (   0.5000035   0.2886745   0.1180267  )
       120           S   tau( 120) = (   0.3750041   0.3608457   0.8517303  )
       121           Mo  tau( 121) = (   0.2500014   0.5773502  -0.7272732  )
       122           Mo  tau( 122) = (   0.3749983   0.5051825  -0.2424043  )
       123           S   tau( 123) = (   0.2500017   0.5773519  -0.3667810  )
       124           S   tau( 124) = (   0.3750014   0.5051812  -0.6030489  )
       125           S   tau( 125) = (   0.3750014   0.5051813  -0.8514963  )
       126           S   tau( 126) = (   0.2500018   0.5773519  -0.1180256  )
       127           Mo  tau( 127) = (   0.2500009   0.5773497   0.2423999  )
       128           Mo  tau( 128) = (   0.3750037   0.5051832   0.7272500  )
       129           S   tau( 129) = (   0.2500042   0.5773522   0.6028596  )
       130           S   tau( 130) = (   0.3750035   0.5051817   0.3667733  )
       131           S   tau( 131) = (   0.3750039   0.5051817   0.1180258  )
       132           S   tau( 132) = (   0.2500043   0.5773521   0.8517304  )
       133           Mo  tau( 133) = (   0.1250016   0.7938567  -0.7272732  )
       134           Mo  tau( 134) = (   0.2499995   0.7216883  -0.2424036  )
       135           S   tau( 135) = (   0.1250024   0.7938578  -0.3667813  )
       136           S   tau( 136) = (   0.2500016   0.7216877  -0.6030489  )
       137           S   tau( 137) = (   0.2500016   0.7216878  -0.8514963  )
       138           S   tau( 138) = (   0.1250024   0.7938579  -0.1180253  )
       139           Mo  tau( 139) = (   0.1250007   0.7938566   0.2424003  )
       140           Mo  tau( 140) = (   0.2500037   0.7216894   0.7272501  )
       141           S   tau( 141) = (   0.1250043   0.7938588   0.6028599  )
       142           S   tau( 142) = (   0.2500035   0.7216882   0.3667737  )
       143           S   tau( 143) = (   0.2500038   0.7216886   0.1180257  )
       144           S   tau( 144) = (   0.1250043   0.7938587   0.8517303  )
       145           Mo  tau( 145) = (   0.7500010   0.1443372  -0.7272732  )
       146           Mo  tau( 146) = (   0.8750038   0.0721696  -0.2424038  )
       147           S   tau( 147) = (   0.7500016   0.1443382  -0.3667789  )
       148           S   tau( 148) = (   0.8750010   0.0721682  -0.6030489  )
       149           S   tau( 149) = (   0.8750010   0.0721683  -0.8514963  )
       150           S   tau( 150) = (   0.7500016   0.1443384  -0.1180279  )
       151           Mo  tau( 151) = (   0.7500051   0.1443370   0.2424017  )
       152           Mo  tau( 152) = (   0.8750049   0.0721705   0.7272500  )
       153           S   tau( 153) = (   0.7500039   0.1443393   0.6028592  )
       154           S   tau( 154) = (   0.8750038   0.0721685   0.3667764  )
       155           S   tau( 155) = (   0.8750039   0.0721688   0.1180247  )
       156           S   tau( 156) = (   0.7500041   0.1443394   0.8517311  )
       157           Mo  tau( 157) = (   0.6250012   0.3608437  -0.7272732  )
       158           Mo  tau( 158) = (   0.7500028   0.2886769  -0.2424041  )
       159           S   tau( 159) = (   0.6250015   0.3608451  -0.3667792  )
       160           S   tau( 160) = (   0.7500012   0.2886747  -0.6030489  )
       161           S   tau( 161) = (   0.7500012   0.2886748  -0.8514963  )
       162           S   tau( 162) = (   0.6250016   0.3608454  -0.1180280  )
       163           Mo  tau( 163) = (   0.6250051   0.3608469   0.2424010  )
       164           Mo  tau( 164) = (   0.7500045   0.2886776   0.7272501  )
       165           S   tau( 165) = (   0.6250042   0.3608457   0.6028594  )
       166           S   tau( 166) = (   0.7500035   0.2886754   0.3667754  )
       167           S   tau( 167) = (   0.7500035   0.2886751   0.1180251  )
       168           S   tau( 168) = (   0.6250042   0.3608459   0.8517307  )
       169           Mo  tau( 169) = (   0.5000014   0.5773502  -0.7272732  )
       170           Mo  tau( 170) = (   0.6250029   0.5051841  -0.2424047  )
       171           S   tau( 171) = (   0.5000014   0.5773518  -0.3667794  )
       172           S   tau( 172) = (   0.6250014   0.5051812  -0.6030489  )
       173           S   tau( 173) = (   0.6250014   0.5051813  -0.8514963  )
       174           S   tau( 174) = (   0.5000016   0.5773516  -0.1180277  )
       175           Mo  tau( 175) = (   0.5000072   0.5773526   0.2424011  )
       176           Mo  tau( 176) = (   0.6250047   0.5051838   0.7272501  )
       177           S   tau( 177) = (   0.5000044   0.5773522   0.6028593  )
       178           S   tau( 178) = (   0.6250038   0.5051821   0.3667764  )
       179           S   tau( 179) = (   0.6250040   0.5051821   0.1180241  )
       180           S   tau( 180) = (   0.5000045   0.5773523   0.8517308  )
       181           Mo  tau( 181) = (   0.3750016   0.7938567  -0.7272732  )
       182           Mo  tau( 182) = (   0.5000025   0.7216901  -0.2424039  )
       183           S   tau( 183) = (   0.3750019   0.7938578  -0.3667793  )
       184           S   tau( 184) = (   0.5000016   0.7216877  -0.6030489  )
       185           S   tau( 185) = (   0.5000016   0.7216878  -0.8514963  )
       186           S   tau( 186) = (   0.3750020   0.7938579  -0.1180272  )
       187           Mo  tau( 187) = (   0.3750057   0.7938586   0.2424015  )
       188           Mo  tau( 188) = (   0.5000052   0.7216902   0.7272503  )
       189           S   tau( 189) = (   0.3750045   0.7938588   0.6028592  )
       190           S   tau( 190) = (   0.5000042   0.7216887   0.3667757  )
       191           S   tau( 191) = (   0.5000039   0.7216887   0.1180242  )
       192           S   tau( 192) = (   0.3750047   0.7938587   0.8517308  )
       193           Au  tau( 193) = (   0.1250302   0.5051980   1.0262628  )

     --------------------------------------------
     DFT-D3 Dispersion Correction (3-body terms):
     --------------------------------------------
       Reference C6 values for interpolation: 

         atom   Coordination number   C6
         S          0.000           268.01
         S          0.995           261.99
         S          1.990           251.62
         Mo         0.000          1691.79
         Mo         1.942          1004.01
         Mo        11.056           674.22
         Au         0.000           684.71
         Au         0.985           634.31

       Values used:

         atom   Coordination number  R0_AB[au]  C6      C8
         Mo        10.208            3.547    674.21  77634.20
         Mo        10.221            3.547    674.22  77634.20
         S          3.858            3.128    251.62  12327.25
         S          3.859            3.128    251.62  12327.25
         S          3.758            3.128    251.62  12327.25
         S          3.859            3.128    251.62  12327.25
         Mo        10.221            3.547    674.22  77634.20
         Mo        10.206            3.547    674.22  77634.20
         S          3.856            3.128    251.62  12327.25
         S          3.859            3.128    251.62  12327.25
         S          3.859            3.128    251.62  12327.25
         S          3.755            3.128    251.62  12327.25
         Mo        10.208            3.547    674.21  77634.20
         Mo        10.221            3.547    674.22  77634.20
         S          3.858            3.128    251.62  12327.25
         S          3.859            3.128    251.62  12327.25
         S          3.758            3.128    251.62  12327.25
         S          3.859            3.128    251.62  12327.25
         Mo        10.221            3.547    674.22  77634.20
         Mo        10.209            3.547    674.22  77634.20
         S          3.856            3.128    251.62  12327.25
         S          3.859            3.128    251.62  12327.25
         S          3.859            3.128    251.62  12327.25
         S          3.760            3.128    251.62  12327.25
         Mo        10.208            3.547    674.22  77634.20
         Mo        10.221            3.547    674.22  77634.20
         S          3.858            3.128    251.62  12327.25
         S          3.859            3.128    251.62  12327.25
         S          3.758            3.128    251.62  12327.25
         S          3.859            3.128    251.62  12327.25
         Mo        10.221            3.547    674.22  77634.20
         Mo        10.209            3.547    674.22  77634.20
         S          3.856            3.128    251.62  12327.25
         S          3.859            3.128    251.62  12327.25
         S          3.859            3.128    251.62  12327.25
         S          3.755            3.128    251.62  12327.25
         Mo        10.208            3.547    674.22  77634.20
         Mo        10.221            3.547    674.22  77634.20
         S          3.858            3.128    251.62  12327.25
         S          3.859            3.128    251.62  12327.25
         S          3.758            3.128    251.62  12327.25
         S          3.859            3.128    251.62  12327.25
         Mo        10.221            3.547    674.22  77634.20
         Mo        10.206            3.547    674.22  77634.20
         S          3.856            3.128    251.62  12327.25
         S          3.859            3.128    251.62  12327.25
         S          3.859            3.128    251.62  12327.25
         S          3.755            3.128    251.62  12327.25
         Mo        10.208            3.547    674.21  77634.20
         Mo        10.221            3.547    674.22  77634.20
         S          3.858            3.128    251.62  12327.25
         S          3.859            3.128    251.62  12327.25
         S          3.758            3.128    251.62  12327.25
         S          3.859            3.128    251.62  12327.25
         Mo        10.221            3.547    674.22  77634.20
         Mo        10.206            3.547    674.22  77634.20
         S          3.856            3.128    251.62  12327.25
         S          3.859            3.128    251.62  12327.25
         S          3.859            3.128    251.62  12327.25
         S          3.755            3.128    251.62  12327.25
         Mo        10.208            3.547    674.22  77634.20
         Mo        10.221            3.547    674.22  77634.20
         S          3.858            3.128    251.62  12327.25
         S          3.859            3.128    251.62  12327.25
         S          3.758            3.128    251.62  12327.25
         S          3.859            3.128    251.62  12327.25
         Mo        10.221            3.547    674.22  77634.20
         Mo        10.209            3.547    674.22  77634.20
         S          3.857            3.128    251.62  12327.25
         S          3.859            3.128    251.62  12327.25
         S          3.859            3.128    251.62  12327.25
         S          4.271            3.128    251.62  12327.25
         Mo        10.208            3.547    674.22  77634.20
         Mo        10.221            3.547    674.22  77634.20
         S          3.858            3.128    251.62  12327.25
         S          3.859            3.128    251.62  12327.25
         S          3.758            3.128    251.62  12327.25
         S          3.859            3.128    251.62  12327.25
         Mo        10.221            3.547    674.22  77634.20
         Mo        10.276            3.547    674.22  77634.20
         S          3.857            3.128    251.62  12327.25
         S          3.859            3.128    251.62  12327.25
         S          3.859            3.128    251.62  12327.25
         S          4.271            3.128    251.62  12327.25
         Mo        10.208            3.547    674.22  77634.20
         Mo        10.221            3.547    674.22  77634.20
         S          3.858            3.128    251.62  12327.25
         S          3.859            3.128    251.62  12327.25
         S          3.758            3.128    251.62  12327.25
         S          3.859            3.128    251.62  12327.25
         Mo        10.221            3.547    674.22  77634.20
         Mo        10.209            3.547    674.22  77634.20
         S          3.856            3.128    251.62  12327.25
         S          3.859            3.128    251.62  12327.25
         S          3.859            3.128    251.62  12327.25
         S          3.755            3.128    251.62  12327.25
         Mo        10.208            3.547    674.22  77634.20
         Mo        10.221            3.547    674.22  77634.20
         S          3.858            3.128    251.62  12327.25
         S          3.859            3.128    251.62  12327.25
         S          3.758            3.128    251.62  12327.25
         S          3.859            3.128    251.62  12327.25
         Mo        10.221            3.547    674.22  77634.20
         Mo        10.206            3.547    674.22  77634.20
         S          3.856            3.128    251.62  12327.25
         S          3.859            3.128    251.62  12327.25
         S          3.859            3.128    251.62  12327.25
         S          3.755            3.128    251.62  12327.25
         Mo        10.208            3.547    674.22  77634.20
         Mo        10.221            3.547    674.22  77634.20
         S          3.858            3.128    251.62  12327.25
         S          3.859            3.128    251.62  12327.25
         S          3.758            3.128    251.62  12327.25
         S          3.859            3.128    251.62  12327.25
         Mo        10.221            3.547    674.22  77634.20
         Mo        10.206            3.547    674.22  77634.20
         S          3.856            3.128    251.62  12327.25
         S          3.859            3.128    251.62  12327.25
         S          3.859            3.128    251.62  12327.25
         S          3.760            3.128    251.62  12327.25
         Mo        10.208            3.547    674.22  77634.20
         Mo        10.221            3.547    674.22  77634.20
         S          3.858            3.128    251.62  12327.25
         S          3.859            3.128    251.62  12327.25
         S          3.758            3.128    251.62  12327.25
         S          3.859            3.128    251.62  12327.25
         Mo        10.221            3.547    674.22  77634.20
         Mo        10.209            3.547    674.22  77634.20
         S          3.857            3.128    251.62  12327.25
         S          3.859            3.128    251.62  12327.25
         S          3.859            3.128    251.62  12327.25
         S          4.272            3.128    251.62  12327.25
         Mo        10.208            3.547    674.22  77634.20
         Mo        10.221            3.547    674.22  77634.20
         S          3.858            3.128    251.62  12327.25
         S          3.859            3.128    251.62  12327.25
         S          3.758            3.128    251.62  12327.25
         S          3.859            3.128    251.62  12327.25
         Mo        10.221            3.547    674.22  77634.20
         Mo        10.209            3.547    674.22  77634.20
         S          3.856            3.128    251.62  12327.25
         S          3.859            3.128    251.62  12327.25
         S          3.859            3.128    251.62  12327.25
         S          3.760            3.128    251.62  12327.25
         Mo        10.208            3.547    674.22  77634.20
         Mo        10.221            3.547    674.22  77634.20
         S          3.858            3.128    251.62  12327.25
         S          3.859            3.128    251.62  12327.25
         S          3.758            3.128    251.62  12327.25
         S          3.859            3.128    251.62  12327.25
         Mo        10.221            3.547    674.22  77634.20
         Mo        10.206            3.547    674.22  77634.20
         S          3.856            3.128    251.62  12327.25
         S          3.859            3.128    251.62  12327.25
         S          3.859            3.128    251.62  12327.25
         S          3.755            3.128    251.62  12327.25
         Mo        10.208            3.547    674.21  77634.20
         Mo        10.220            3.547    674.22  77634.20
         S          3.858            3.128    251.62  12327.25
         S          3.859            3.128    251.62  12327.25
         S          3.758            3.128    251.62  12327.25
         S          3.859            3.128    251.62  12327.25
         Mo        10.221            3.547    674.22  77634.20
         Mo        10.206            3.547    674.22  77634.20
         S          3.856            3.128    251.62  12327.25
         S          3.859            3.128    251.62  12327.25
         S          3.859            3.128    251.62  12327.25
         S          3.755            3.128    251.62  12327.25
         Mo        10.208            3.547    674.22  77634.20
         Mo        10.221            3.547    674.22  77634.20
         S          3.858            3.128    251.62  12327.25
         S          3.859            3.128    251.62  12327.25
         S          3.758            3.128    251.62  12327.25
         S          3.859            3.128    251.62  12327.25
         Mo        10.221            3.547    674.22  77634.20
         Mo        10.206            3.547    674.22  77634.20
         S          3.856            3.128    251.62  12327.25
         S          3.859            3.128    251.62  12327.25
         S          3.859            3.128    251.62  12327.25
         S          3.755            3.128    251.62  12327.25
         Mo        10.208            3.547    674.21  77634.20
         Mo        10.221            3.547    674.22  77634.20
         S          3.858            3.128    251.62  12327.25
         S          3.859            3.128    251.62  12327.25
         S          3.758            3.128    251.62  12327.25
         S          3.859            3.128    251.62  12327.25
         Mo        10.221            3.547    674.22  77634.20
         Mo        10.206            3.547    674.22  77634.20
         S          3.856            3.128    251.62  12327.25
         S          3.859            3.128    251.62  12327.25
         S          3.859            3.128    251.62  12327.25
         S          3.755            3.128    251.62  12327.25
         Au         1.669            3.077    634.32  61970.44

         Molecular C6 ( Ry / a.u.^6 ) =  13799704.44


     number of k points=     4  Gaussian smearing, width (Ry)=  0.0100
                       cart. coord. in units 2pi/alat
        k(    1) = (   0.0000000   0.0000000   0.0000000), wk =   0.5000000
        k(    2) = (   0.0000000  -0.5773499   0.0000000), wk =   0.5000000
        k(    3) = (  -0.5000000  -0.2886744   0.0000000), wk =   0.5000000
        k(    4) = (  -0.5000000  -0.8660242   0.0000000), wk =   0.5000000

     Dense  grid:  7154885 G-vectors     FFT dimensions: ( 180, 180, 512)

     Smooth grid:  3090769 G-vectors     FFT dimensions: ( 135, 135, 400)

     Estimated max dynamical RAM per process >       4.29 GB

     Estimated total dynamical RAM >     154.37 GB

     Atomic positions and unit cell read from directory:
     ./outdir/pwscf.save/
     Atomic positions from file used, from input discarded
 

     The initial density is read from file :
     ./outdir/pwscf.save/charge-density


     negative rho (up, down):  8.455E-04 0.000E+00
     Cannot read wfcs: file not found
     Starting wfcs are 1172 randomized atomic wfcs
     Checking if some PAW data can be deallocated... 

     total cpu time spent up to now is      197.6 secs

     Self-consistent Calculation

     iteration #  1     ecut=    77.00 Ry     beta= 0.20
     Davidson diagonalization with overlap
     c_bands:  4 eigenvalues not converged
     c_bands:  6 eigenvalues not converged
     c_bands:  6 eigenvalues not converged
     c_bands:  7 eigenvalues not converged
     ethr =  1.00E-05,  avg # of iterations =115.0

     negative rho (up, down):  7.717E-04 0.000E+00

     total cpu time spent up to now is    11330.6 secs

     total energy              =  -33570.88667135 Ry
     estimated scf accuracy    <       0.06777454 Ry

     iteration #  2     ecut=    77.00 Ry     beta= 0.20
     Davidson diagonalization with overlap
     c_bands:  4 eigenvalues not converged
     c_bands:  4 eigenvalues not converged
     c_bands:  3 eigenvalues not converged
     c_bands:  4 eigenvalues not converged
     ethr =  3.99E-06,  avg # of iterations = 80.0

     negative rho (up, down):  7.676E-04 0.000E+00

     total cpu time spent up to now is    13546.8 secs

     total energy              =  -33570.85211262 Ry
     estimated scf accuracy    <       0.57133455 Ry

     iteration #  3     ecut=    77.00 Ry     beta= 0.20
     Davidson diagonalization with overlap
     c_bands:  2 eigenvalues not converged
     c_bands:  1 eigenvalues not converged
     c_bands:  1 eigenvalues not converged
     ethr =  3.99E-06,  avg # of iterations = 52.0

     negative rho (up, down):  7.645E-04 0.000E+00

     total cpu time spent up to now is    14930.3 secs

     total energy              =  -33570.92667177 Ry
     estimated scf accuracy    <       0.01417916 Ry

     iteration #  4     ecut=    77.00 Ry     beta= 0.20
     Davidson diagonalization with overlap
     c_bands:  1 eigenvalues not converged
     c_bands:  4 eigenvalues not converged
     ethr =  8.36E-07,  avg # of iterations = 17.0

     negative rho (up, down):  7.652E-04 0.000E+00

     total cpu time spent up to now is    15477.6 secs

     total energy              =  -33570.92883277 Ry
     estimated scf accuracy    <       0.00273833 Ry

     iteration #  5     ecut=    77.00 Ry     beta= 0.20
     Davidson diagonalization with overlap
     c_bands:  2 eigenvalues not converged
     c_bands:  1 eigenvalues not converged
     c_bands:  3 eigenvalues not converged
     ethr =  1.61E-07,  avg # of iterations = 44.5

     negative rho (up, down):  7.741E-04 0.000E+00

     total cpu time spent up to now is    17076.8 secs

     total energy              =  -33570.93352255 Ry
     estimated scf accuracy    <       0.00264632 Ry

     iteration #  6     ecut=    77.00 Ry     beta= 0.20
     Davidson diagonalization with overlap
     c_bands:  2 eigenvalues not converged
     ethr =  1.56E-07,  avg # of iterations =  9.5

     negative rho (up, down):  8.000E-04 0.000E+00

     total cpu time spent up to now is    17550.3 secs

     total energy              =  -33570.93316429 Ry
     estimated scf accuracy    <       0.00122790 Ry

     iteration #  7     ecut=    77.00 Ry     beta= 0.20
     Davidson diagonalization with overlap
     c_bands:  2 eigenvalues not converged
     ethr =  7.24E-08,  avg # of iterations = 13.8

     negative rho (up, down):  8.066E-04 0.000E+00

     total cpu time spent up to now is    18066.3 secs

     total energy              =  -33570.93336884 Ry
     estimated scf accuracy    <       0.00015455 Ry

     iteration #  8     ecut=    77.00 Ry     beta= 0.20
     Davidson diagonalization with overlap
     ethr =  9.11E-09,  avg # of iterations = 17.5

     negative rho (up, down):  8.079E-04 0.000E+00

     total cpu time spent up to now is    19678.1 secs

     total energy              =  -33570.93372616 Ry
     estimated scf accuracy    <       0.00021611 Ry

     iteration #  9     ecut=    77.00 Ry     beta= 0.20
     Davidson diagonalization with overlap
     ethr =  9.11E-09,  avg # of iterations =  8.2

     negative rho (up, down):  8.234E-04 0.000E+00

     total cpu time spent up to now is    20143.3 secs

     total energy              =  -33570.93370981 Ry
     estimated scf accuracy    <       0.00006594 Ry

     iteration # 10     ecut=    77.00 Ry     beta= 0.20
     Davidson diagonalization with overlap
     ethr =  3.89E-09,  avg # of iterations = 12.2

     negative rho (up, down):  8.361E-04 0.000E+00

     total cpu time spent up to now is    20801.4 secs

     total energy              =  -33570.93371856 Ry
     estimated scf accuracy    <       0.00003222 Ry

     iteration # 11     ecut=    77.00 Ry     beta= 0.20
     Davidson diagonalization with overlap
     c_bands:  2 eigenvalues not converged
     ethr =  1.90E-09,  avg # of iterations = 17.2

     negative rho (up, down):  8.379E-04 0.000E+00

     total cpu time spent up to now is    21755.7 secs

     total energy              =  -33570.93374751 Ry
     estimated scf accuracy    <       0.00009177 Ry

     iteration # 12     ecut=    77.00 Ry     beta= 0.20
     Davidson diagonalization with overlap
     ethr =  1.90E-09,  avg # of iterations =  3.8

     negative rho (up, down):  8.400E-04 0.000E+00

     total cpu time spent up to now is    22179.8 secs

     total energy              =  -33570.93374104 Ry
     estimated scf accuracy    <       0.00003960 Ry

     iteration # 13     ecut=    77.00 Ry     beta= 0.20
     Davidson diagonalization with overlap
     ethr =  1.90E-09,  avg # of iterations =  2.0

     negative rho (up, down):  8.434E-04 0.000E+00

     total cpu time spent up to now is    22620.3 secs

     total energy              =  -33570.93373954 Ry
     estimated scf accuracy    <       0.00000763 Ry

     iteration # 14     ecut=    77.00 Ry     beta= 0.20
     Davidson diagonalization with overlap
     c_bands:  4 eigenvalues not converged
     ethr =  4.50E-10,  avg # of iterations = 22.8

     negative rho (up, down):  8.429E-04 0.000E+00

     total cpu time spent up to now is    23738.4 secs

     total energy              =  -33570.93374971 Ry
     estimated scf accuracy    <       0.00001375 Ry

     iteration # 15     ecut=    77.00 Ry     beta= 0.20
     Davidson diagonalization with overlap
     c_bands:  3 eigenvalues not converged
     ethr =  4.50E-10,  avg # of iterations =  5.8

     negative rho (up, down):  8.428E-04 0.000E+00

     total cpu time spent up to now is    24173.4 secs

     total energy              =  -33570.93374862 Ry
     estimated scf accuracy    <       0.00000438 Ry

     iteration # 16     ecut=    77.00 Ry     beta= 0.20
     Davidson diagonalization with overlap
     c_bands:  5 eigenvalues not converged
     ethr =  2.58E-10,  avg # of iterations = 13.0

     negative rho (up, down):  8.441E-04 0.000E+00

     total cpu time spent up to now is    24730.3 secs

     total energy              =  -33570.93374895 Ry
     estimated scf accuracy    <       0.00000108 Ry

     iteration # 17     ecut=    77.00 Ry     beta= 0.20
     Davidson diagonalization with overlap
     c_bands:  2 eigenvalues not converged
     ethr =  6.39E-11,  avg # of iterations = 16.0

     negative rho (up, down):  8.458E-04 0.000E+00

     total cpu time spent up to now is    25742.2 secs

     End of self-consistent calculation

          k = 0.0000 0.0000 0.0000 (386245 PWs)   bands (ev):

  -109.0268 -81.7846 -81.7837 -81.7836 -81.7835 -81.7786 -81.7785 -81.7755
   -66.7774 -66.7718 -66.7717 -66.7707 -66.7588 -66.7577 -66.7577 -66.7547
   -66.7547 -66.7509 -66.7507 -66.7507 -66.7505 -66.7505 -66.7504 -66.7504
   -66.7504 -66.7504 -66.7503 -66.7503 -66.7502 -66.7494 -66.7494 -66.7494
   -66.7494 -66.7494 -66.7493 -66.7490 -66.7382 -66.7382 -66.7371 -66.7347
   -66.7347 -66.7328 -66.7328 -66.7318 -66.7296 -66.7296 -66.7293 -66.7292
   -66.7291 -66.7291 -66.7291 -66.7291 -66.7291 -66.7291 -66.7290 -66.7290
   -66.7290 -66.7290 -66.7290 -66.7290 -66.7286 -66.7286 -66.7280 -66.7280
   -66.7280 -66.7280 -66.7280 -66.7279 -66.7279 -66.7279 -66.7279 -66.7061
   -60.4446 -60.3992 -60.3990 -41.1015 -41.1015 -41.1013 -41.0991 -41.0991
   -41.0991 -41.0991 -41.0991 -41.0989 -41.0987 -41.0987 -41.0987 -41.0286
   -41.0283 -41.0261 -41.0261 -41.0239 -41.0239 -41.0238 -41.0238 -41.0238
   -41.0238 -41.0238 -41.0238 -41.0238 -41.0237 -41.0236 -41.0236 -41.0234
   -41.0234 -41.0233 -41.0233 -41.0233 -41.0233 -41.0228 -41.0228 -40.9387
   -40.9314 -40.9313 -40.9309 -40.9028 -40.9023 -40.9023 -40.8990 -40.8990
   -40.8987 -40.8987 -40.8985 -40.8977 -40.8976 -40.8975 -40.8975 -40.8975
   -40.8975 -40.8975 -40.8975 -40.8975 -40.8974 -40.8973 -40.8973 -40.8973
   -40.8969 -40.8969 -40.8969 -40.8969 -40.8969 -40.8969 -40.8969 -40.8969
   -40.8901 -40.8899 -40.8899 -40.8896 -40.8896 -40.8896 -40.8896 -40.8896
   -40.8896 -40.8895 -40.8895 -40.8895 -40.8892 -40.8892 -40.8892 -40.8892
   -40.8892 -40.8892 -40.8882 -40.8673 -40.8670 -40.8659 -40.8659 -40.8626
   -40.8626 -40.8625 -40.8624 -40.8624 -40.8624 -40.8624 -40.8624 -40.8624
   -40.8624 -40.8622 -40.8622 -40.8618 -40.8618 -40.8618 -40.8618 -40.8618
   -40.8618 -40.8611 -40.8611 -40.8579 -40.8579 -40.8578 -40.8569 -40.8569
   -40.8563 -40.8553 -40.8553 -40.8482 -40.8482 -40.8479 -40.8479 -40.8478
   -40.8477 -40.8477 -40.8477 -40.8477 -40.8477 -40.8477 -40.8477 -40.8477
   -40.8476 -40.8476 -40.8476 -40.8473 -40.8472 -40.8472 -40.8472 -40.8472
   -40.8472 -40.8472 -40.8472 -40.8471 -40.8471 -40.8471 -40.8161 -40.7874
   -40.7859 -40.7859 -40.7841 -40.7841 -40.7841 -40.7841 -40.7841 -40.7841
   -40.7834 -40.7834 -40.7834 -40.7414 -40.7405 -40.7405 -40.7374 -40.7373
   -40.7373 -40.7371 -40.7371 -40.7371 -40.7370 -40.7370 -40.7370 -40.7370
   -40.7370 -40.7370 -40.7369 -40.7369 -40.7368 -40.7362 -40.7362 -40.7362
   -40.7362 -40.7362 -40.7362 -40.6910 -40.6910 -40.6894 -40.6894 -40.6893
   -40.6893 -40.6886 -40.6886 -20.2671 -20.2004 -20.1079 -20.0241 -19.4112
   -19.3950 -19.3950 -19.3935 -19.3934 -19.3934 -19.3631 -19.3365 -19.3365
   -19.3308 -19.3306 -19.3306 -19.2761 -19.2530 -19.2530 -19.2448 -19.2446
   -19.2446 -19.1835 -19.1747 -19.1747 -19.1706 -19.1704 -19.1704 -19.0313
   -18.9011 -18.7538 -18.6486 -18.6286 -18.6210 -18.6210 -18.6123 -18.6123
   -18.6122 -18.5400 -18.5220 -18.5219 -18.5055 -18.5055 -18.5052 -18.4187
   -18.4114 -18.4114 -18.3982 -18.3982 -18.3981 -18.3288 -18.3286 -18.3285
   -18.3231 -18.3231 -18.3231 -18.2775 -18.2774 -18.2689 -18.2689 -18.2688
   -18.2688 -18.2579 -18.2578 -18.2398 -18.2385 -18.2380 -18.2380 -18.2272
   -18.2272 -18.2251 -18.2181 -18.2181 -18.2010 -18.1985 -18.1985 -18.1956
   -18.1917 -18.1914 -18.1914 -18.1713 -18.1713 -18.1640 -18.1535 -18.1535
   -18.1472 -18.1428 -18.1428 -18.1424 -18.1270 -18.1270 -18.1245 -18.0837
   -18.0836 -18.0676 -18.0604 -18.0604 -18.0597 -18.0571 -18.0571 -18.0564
   -18.0348 -18.0347 -18.0293 -18.0166 -18.0166 -18.0119 -18.0072 -18.0072
   -18.0070 -18.0031 -18.0031 -18.0018 -17.9877 -17.9877 -17.9870 -17.9725
   -17.9725 -17.9698 -17.9676 -17.9673 -17.9673 -17.9436 -17.9436 -17.9428
   -17.9422 -17.9422 -17.9421 -12.1272 -11.9715 -11.9642 -11.9642 -11.9164
   -11.8839 -11.8839 -11.8755 -11.7917 -11.7778 -11.7778 -11.6974 -11.6900
   -11.6900 -11.5745 -11.4306 -11.3836 -11.3836 -11.3806 -11.3804 -11.3804
   -11.3453 -11.2814 -11.2814 -11.2801 -11.2801 -11.2801 -11.2730 -11.2268
   -11.2191 -11.2191 -11.2098 -11.2098 -11.2097 -11.2081 -11.2041 -11.2041
   -11.1977 -11.1975 -11.1975 -11.1555 -11.1323 -11.1323 -11.1238 -11.1232
   -11.1232 -11.0797 -11.0669 -11.0668 -11.0563 -11.0557 -11.0557 -11.0174
   -11.0066 -11.0066 -10.9964 -10.9964 -10.9952 -10.9893 -10.9893 -10.9889
   -10.9814 -10.9673 -10.9672 -10.9541 -10.9541 -10.9497 -10.9482 -10.9482
   -10.9482 -10.9481 -10.9481 -10.9474 -10.9454 -10.9452 -10.9452 -10.9155
   -10.9155 -10.9102 -10.9102 -10.9099 -10.9086 -10.8824 -10.8824 -10.8810
   -10.8807 -10.8807 -10.8799 -10.8772 -10.8692 -10.8692 -10.7961 -10.7860
   -10.7860 -10.7403 -10.7278 -10.7278 -10.7216 -10.7215 -10.7215 -10.3465
   -10.3420 -10.3418 -10.1613 -10.1609 -10.1535  -9.9872  -9.9868  -9.9866
    -9.9472  -9.9472  -9.9455  -9.9432  -9.9432  -9.9359  -9.9136  -9.9126
    -9.9126  -9.9120  -9.9113  -9.9113  -9.8960  -9.8960  -9.8938  -9.8917
    -9.8908  -9.8908  -9.8438  -9.8420  -9.8417  -9.7744  -9.7744  -9.7740
    -9.7734  -9.7664  -9.7660  -9.7660  -9.7596  -9.7593  -9.7593  -9.7592
    -9.7580  -9.7580  -9.7403  -9.7403  -9.7074  -9.6977  -9.6977  -9.6891
    -9.6891  -9.6889  -9.6881  -9.6871  -9.6871  -9.6621  -9.6619  -9.6619
    -9.6562  -9.6536  -9.6536  -9.6360  -9.6360  -9.5945  -9.5900  -9.5900
    -9.5898  -9.4949  -9.4948  -9.4946  -9.4718  -9.4718  -9.4691  -9.4690
    -9.4682  -9.4554  -9.4498  -9.4497  -9.4481  -9.3778  -9.3668  -9.3668
    -9.3634  -9.3634  -9.3618  -9.3274  -9.3251  -9.3251  -9.3247  -9.3246
    -9.3233  -9.2769  -9.2647  -9.2647  -9.2444  -9.2437  -9.2437  -9.1352
    -9.1351  -9.1321  -9.1176  -9.1175  -9.1171  -9.1113  -9.0894  -9.0894
    -9.0846  -9.0700  -9.0700  -9.0684  -9.0658  -9.0658  -9.0619  -9.0619
    -9.0600  -9.0171  -8.9954  -8.9954  -8.9851  -8.9767  -8.9767  -8.9680
    -8.9680  -8.9674  -8.9670  -8.9666  -8.9666  -8.8839  -8.8839  -8.8781
    -8.8781  -8.8743  -8.8730  -8.8023  -8.8023  -8.7948  -8.7948  -8.7918
    -8.7887  -8.7375  -8.7375  -8.7349  -8.7349  -8.7341  -8.7329  -8.6620
    -8.5149  -8.5148  -8.5134  -8.5134  -8.5074  -8.5073  -8.5015  -8.5015
    -8.4606  -8.4604  -8.4264  -8.4262  -8.4262  -8.4256  -8.4218  -8.4217
    -8.4084  -8.4079  -8.4078  -8.4056  -8.3948  -8.3948  -8.3845  -8.3841
    -8.3841  -8.3812  -8.3677  -8.3677  -8.3641  -8.3640  -8.3640  -8.3626
    -8.2494  -8.2489  -8.2048  -8.0197  -8.0044  -8.0043  -7.9647  -7.9165
    -7.9165  -7.8938  -7.8309  -7.8260  -7.8260  -7.7840  -7.7827  -7.7826
    -7.7695  -7.7693  -7.7693  -7.7478  -7.7416  -7.7416  -7.6903  -7.6900
    -7.6899  -7.6861  -7.6861  -7.6851  -7.6851  -7.6848  -7.6844  -7.6730
    -7.6729  -7.6689  -7.6689  -7.6662  -7.6633  -7.6563  -7.6492  -7.6492
    -7.6475  -7.6475  -7.6439  -7.6405  -7.6284  -7.6284  -7.6278  -7.6278
    -7.6262  -7.6244  -7.6047  -7.6046  -7.5790  -7.5562  -7.5546  -7.5545
    -7.5530  -7.5530  -7.5479  -7.5479  -7.5467  -7.5391  -7.4766  -7.4693
    -7.4693  -7.4611  -7.4609  -7.4432  -7.4377  -7.4365  -7.4365  -7.4278
    -7.4278  -7.4176  -7.4005  -7.4005  -7.3889  -7.3889  -7.3786  -7.3786
    -7.3722  -7.3722  -7.3589  -7.3589  -7.3110  -7.2579  -7.2579  -7.2151
    -7.2038  -7.2037  -7.1583  -7.0504  -7.0503  -7.0012  -6.9828  -6.9828
    -6.9745  -6.9433  -6.9433  -6.9396  -6.9072  -6.9071  -6.8918  -6.8828
    -6.8505  -6.8504  -6.8140  -6.7942  -6.7942  -6.7598  -6.7572  -6.7572
    -6.7531  -6.7491  -6.7491  -6.7413  -6.7202  -6.7202  -6.6843  -6.6831
    -6.6830  -6.6720  -6.6701  -6.6701  -6.6573  -6.6555  -6.6554  -6.6526
    -6.6521  -6.6521  -6.6459  -6.6448  -6.6448  -6.6442  -6.6439  -6.6439
    -6.6364  -6.6329  -6.6329  -6.6091  -6.5905  -6.5905  -6.5701  -6.5570
    -6.5570  -6.5514  -6.4951  -6.4949  -6.4835  -6.4834  -6.4831  -6.4831
    -6.4726  -6.4725  -6.4532  -6.4530  -6.4517  -6.4517  -6.4351  -6.4350
    -6.4195  -6.4189  -6.4169  -6.4169  -6.4002  -6.4001  -6.3949  -6.3945
    -6.3934  -6.3934  -6.3427  -6.3176  -6.3169  -5.8458  -5.5082  -5.3134
    -5.0003  -4.0000  -3.9999  -3.9949  -3.9949  -3.9943  -3.9774  -3.9708
    -3.9707  -3.9693  -3.9681  -3.9681  -3.9589  -3.8454  -3.8454  -3.8300
    -3.8300  -3.8284  -3.8257  -3.8246  -3.8246  -3.8234  -3.8222  -3.8222
    -3.7566  -3.6485  -3.6485  -3.6414  -3.6388  -3.6388  -3.6332  -3.6213
    -3.6213  -3.6213  -3.6198  -3.6198  -3.6191  -3.6060  -3.6059  -3.5987
    -3.5987  -3.5971  -3.5908  -3.5904  -3.5903  -3.5800  -3.5786  -3.5786
    -3.5670  -3.5652  -3.5652  -3.5636  -3.5633  -3.5633  -3.5618  -3.5617
    -3.5601  -3.5506  -3.5504  -3.5504  -3.5150  -3.4934  -3.4927  -3.4927
    -3.4894  -3.4894  -3.4876  -3.4876  -3.4872  -3.4847  -3.4841  -3.4841
    -3.4685  -3.4318  -3.4317  -3.4317  -3.4305  -3.4305  -3.4296  -3.3610
    -3.3610  -3.3545  -3.3545  -3.3539  -3.2766  -3.2084  -3.2084  -3.2064
    -3.2057  -3.2055  -3.2047  -3.1893  -3.1893  -3.1864  -3.1246  -3.1245
    -3.1210  -3.1210  -3.1202  -3.1202  -3.1146  -3.1146  -3.1108  -3.1107
    -3.1100  -3.1069  -3.1069  -3.0985  -3.0985  -3.0952  -3.0952  -3.0938
    -3.0922  -3.0921  -3.0797  -3.0797  -3.0781  -3.0780  -3.0780  -3.0778
    -3.0777  -3.0777  -3.0490  -3.0245  -3.0245  -3.0169  -2.9974  -2.9974
    -2.9694  -2.9693  -2.9676  -2.9540  -2.9540  -2.9540  -2.9540  -2.9534
    -2.9534  -2.9511  -2.9503  -2.9503  -2.9479  -2.9407  -2.9407  -2.8887
    -2.8885  -2.8874  -2.8862  -2.8857  -2.8849  -2.8847  -2.8384  -2.8283
    -2.8282  -2.7866  -2.7866  -2.7707  -2.7705  -2.7671  -2.7658  -2.7620
    -2.7596  -2.6907  -2.6897  -2.6866  -2.6837  -2.6821  -2.6690  -2.5907
    -2.5887  -2.5817  -2.5809

          k = 0.0000-0.5773 0.0000 (386352 PWs)   bands (ev):

  -109.0269 -81.7846 -81.7837 -81.7836 -81.7835 -81.7786 -81.7785 -81.7755
   -66.7730 -66.7696 -66.7658 -66.7655 -66.7655 -66.7655 -66.7645 -66.7644
   -66.7608 -66.7585 -66.7550 -66.7549 -66.7549 -66.7549 -66.7538 -66.7538
   -66.7464 -66.7462 -66.7450 -66.7449 -66.7411 -66.7400 -66.7399 -66.7398
   -66.7398 -66.7398 -66.7398 -66.7398 -66.7398 -66.7387 -66.7387 -66.7387
   -66.7387 -66.7382 -66.7368 -66.7356 -66.7354 -66.7353 -66.7353 -66.7352
   -66.7342 -66.7342 -66.7333 -66.7319 -66.7294 -66.7292 -66.7292 -66.7291
   -66.7290 -66.7290 -66.7290 -66.7290 -66.7287 -66.7280 -66.7280 -66.7279
   -66.7279 -66.7247 -66.7247 -66.7246 -66.7246 -66.7235 -66.7235 -66.7061
   -60.4446 -60.3992 -60.3990 -41.0738 -41.0718 -41.0678 -41.0677 -41.0676
   -41.0675 -41.0675 -41.0675 -41.0675 -41.0675 -41.0671 -41.0671 -41.0671
   -41.0671 -41.0671 -41.0655 -41.0455 -41.0425 -41.0408 -41.0407 -41.0407
   -41.0405 -41.0403 -41.0402 -41.0310 -41.0286 -41.0286 -41.0286 -41.0285
   -41.0282 -41.0282 -41.0280 -40.9806 -40.9803 -40.9795 -40.9789 -40.9779
   -40.9779 -40.9779 -40.9779 -40.9779 -40.9779 -40.9779 -40.9778 -40.9774
   -40.9774 -40.9774 -40.9774 -40.9282 -40.9251 -40.9194 -40.9192 -40.9191
   -40.9191 -40.9188 -40.9187 -40.9124 -40.9114 -40.9097 -40.9096 -40.9096
   -40.9096 -40.9090 -40.9090 -40.9076 -40.9039 -40.8984 -40.8984 -40.8983
   -40.8983 -40.8979 -40.8979 -40.8782 -40.8782 -40.8780 -40.8734 -40.8691
   -40.8689 -40.8688 -40.8687 -40.8687 -40.8687 -40.8687 -40.8687 -40.8687
   -40.8682 -40.8682 -40.8682 -40.8682 -40.8656 -40.8602 -40.8600 -40.8599
   -40.8599 -40.8595 -40.8595 -40.8581 -40.8564 -40.8563 -40.8509 -40.8507
   -40.8499 -40.8484 -40.8482 -40.8482 -40.8482 -40.8481 -40.8480 -40.8479
   -40.8478 -40.8476 -40.8476 -40.8476 -40.8476 -40.8475 -40.8475 -40.8474
   -40.8472 -40.8472 -40.8471 -40.8471 -40.8391 -40.8391 -40.8390 -40.8390
   -40.8385 -40.8385 -40.8230 -40.8209 -40.8194 -40.8174 -40.8173 -40.8172
   -40.8172 -40.8172 -40.8172 -40.8171 -40.8170 -40.8166 -40.8166 -40.8165
   -40.8165 -40.8160 -40.8156 -40.7855 -40.7854 -40.7842 -40.7837 -40.7825
   -40.7825 -40.7825 -40.7825 -40.7825 -40.7825 -40.7825 -40.7824 -40.7818
   -40.7818 -40.7818 -40.7818 -40.7751 -40.7705 -40.7703 -40.7703 -40.7701
   -40.7696 -40.7696 -40.7690 -40.7556 -40.7521 -40.7511 -40.7510 -40.7510
   -40.7509 -40.7503 -40.7503 -40.7365 -40.7340 -40.7340 -40.7340 -40.7340
   -40.7336 -40.7333 -40.7333 -40.7083 -40.7035 -40.7034 -40.7034 -40.7032
   -40.7026 -40.7026 -40.7023 -20.0318 -20.0277 -19.9712 -19.9584 -19.8806
   -19.8655 -19.7929 -19.7863 -19.5931 -19.5908 -19.5347 -19.5273 -19.4491
   -19.4396 -19.3660 -19.3615 -18.9368 -18.9152 -18.8798 -18.8770 -18.8770
   -18.8747 -18.8478 -18.8308 -18.8299 -18.8222 -18.8048 -18.7872 -18.7598
   -18.7592 -18.7585 -18.7483 -18.7130 -18.7083 -18.6903 -18.6889 -18.6873
   -18.6820 -18.6566 -18.6486 -18.6249 -18.6231 -18.6019 -18.5968 -18.5868
   -18.5789 -18.5510 -18.5487 -18.5281 -18.5171 -18.4821 -18.4794 -18.4647
   -18.4567 -18.3941 -18.3937 -18.3731 -18.3722 -18.3699 -18.3629 -18.3013
   -18.2990 -18.2925 -18.2781 -18.2590 -18.2519 -18.2507 -18.2479 -18.2478
   -18.2477 -18.2343 -18.2258 -18.2200 -18.2198 -18.2099 -18.2081 -18.2065
   -18.1982 -18.1896 -18.1864 -18.1839 -18.1787 -18.1773 -18.1772 -18.1499
   -18.1475 -18.1463 -18.1443 -18.1407 -18.1377 -18.1327 -18.1323 -18.1260
   -18.1205 -18.0819 -18.0799 -18.0790 -18.0681 -18.0603 -18.0600 -18.0314
   -18.0253 -18.0174 -18.0170 -17.9911 -17.9885 -17.9848 -17.9841 -17.9663
   -17.9662 -17.9651 -17.9647 -17.9641 -17.9639 -17.9559 -17.9547 -17.9410
   -17.9378 -17.9224 -17.9154 -17.9043 -17.8991 -17.8865 -17.8834 -17.8730
   -17.8720 -17.8659 -17.8658 -11.8795 -11.8576 -11.7355 -11.6631 -11.6583
   -11.6581 -11.6550 -11.6301 -11.6254 -11.6165 -11.5991 -11.5917 -11.5772
   -11.5768 -11.5569 -11.5368 -11.5140 -11.4931 -11.4762 -11.4757 -11.4658
   -11.4589 -11.4460 -11.4223 -11.4121 -11.4120 -11.4082 -11.4047 -11.4006
   -11.4003 -11.3773 -11.3752 -11.3565 -11.3320 -11.3295 -11.3255 -11.3242
   -11.3116 -11.3114 -11.3105 -11.3064 -11.2854 -11.2849 -11.2829 -11.2547
   -11.2489 -11.2106 -11.1996 -11.1981 -11.1951 -11.1158 -11.0840 -11.0805
   -11.0556 -11.0527 -11.0477 -11.0306 -11.0168 -11.0048 -10.9787 -10.9732
   -10.9638 -10.9621 -10.9583 -10.9582 -10.9575 -10.9563 -10.9519 -10.9446
   -10.9444 -10.9396 -10.9369 -10.9365 -10.9352 -10.9351 -10.9349 -10.9347
   -10.9347 -10.9155 -10.9124 -10.9058 -10.9027 -10.8879 -10.8870 -10.8855
   -10.8841 -10.6850 -10.6768 -10.6736 -10.6666 -10.6248 -10.6156 -10.5349
   -10.5169 -10.4099 -10.3834 -10.2941 -10.2863 -10.2815 -10.2807 -10.2501
   -10.2385 -10.2355 -10.2271 -10.2226 -10.2181 -10.2000 -10.1940 -10.1886
   -10.1654 -10.1532 -10.1523 -10.1488 -10.1477 -10.1121 -10.1095 -10.0768
   -10.0649 -10.0622 -10.0556 -10.0448 -10.0423 -10.0421 -10.0410 -10.0206
    -9.9988  -9.9737  -9.9485  -9.9466  -9.9378  -9.9212  -9.9180  -9.8999
    -9.8998  -9.8836  -9.8770  -9.8556  -9.8543  -9.8171  -9.8123  -9.8109
    -9.7994  -9.7862  -9.7732  -9.7552  -9.7442  -9.7277  -9.7113  -9.6919
    -9.6819  -9.6817  -9.6805  -9.6800  -9.6799  -9.6531  -9.6519  -9.6306
    -9.6292  -9.6142  -9.6088  -9.6045  -9.6037  -9.5947  -9.5929  -9.5732
    -9.5705  -9.5693  -9.5620  -9.5006  -9.4886  -9.3969  -9.3929  -9.3817
    -9.3723  -9.3488  -9.3464  -9.3304  -9.3202  -9.3132  -9.3049  -9.3019
    -9.2998  -9.2549  -9.2519  -9.2450  -9.2089  -9.2063  -9.1974  -9.1876
    -9.1791  -9.1747  -9.1729  -9.1651  -9.1629  -9.1574  -9.1542  -9.1038
    -9.0936  -9.0906  -9.0885  -9.0782  -9.0735  -9.0724  -9.0700  -9.0346
    -9.0308  -9.0307  -9.0296  -9.0205  -9.0167  -9.0160  -9.0106  -9.0104
    -9.0088  -9.0071  -9.0062  -8.9932  -8.9892  -8.9852  -8.9838  -8.9772
    -8.9693  -8.9641  -8.9566  -8.9473  -8.9441  -8.9308  -8.9290  -8.9282
    -8.9277  -8.9276  -8.9227  -8.9030  -8.8962  -8.8773  -8.8748  -8.8670
    -8.8653  -8.8426  -8.8357  -8.7953  -8.7870  -8.7472  -8.7184  -8.6683
    -8.6588  -8.6392  -8.6266  -8.5756  -8.5626  -8.4973  -8.4908  -8.4159
    -8.4071  -8.3889  -8.3754  -8.2743  -8.2739  -8.2674  -8.2654  -8.2582
    -8.2544  -8.2505  -8.2416  -8.2121  -8.2062  -8.1182  -8.1175  -8.0732
    -8.0695  -8.0236  -7.9925  -7.9858  -7.9858  -7.9809  -7.9675  -7.9588
    -7.9579  -7.9573  -7.9455  -7.9447  -7.9376  -7.9375  -7.9361  -7.9340
    -7.9302  -7.9299  -7.9274  -7.9224  -7.9204  -7.9186  -7.9154  -7.9135
    -7.9128  -7.9124  -7.9091  -7.9079  -7.9035  -7.9023  -7.8955  -7.8916
    -7.8877  -7.8813  -7.8648  -7.8619  -7.8608  -7.8550  -7.8416  -7.8404
    -7.8401  -7.8393  -7.8370  -7.8365  -7.8336  -7.8132  -7.8113  -7.8089
    -7.8085  -7.7941  -7.7888  -7.7609  -7.7588  -7.7547  -7.7462  -7.7454
    -7.7413  -7.7411  -7.7406  -7.7330  -7.7260  -7.7233  -7.7096  -7.7080
    -7.7080  -7.7025  -7.6901  -7.6855  -7.6835  -7.6083  -7.6072  -7.6002
    -7.5974  -7.5876  -7.5634  -7.5054  -7.4258  -7.4217  -7.3918  -7.3832
    -7.3208  -7.3152  -7.3134  -7.3122  -7.2881  -7.2679  -7.2585  -7.2571
    -7.2468  -7.2449  -7.2283  -7.1943  -7.1785  -7.1758  -7.1627  -7.1605
    -7.1580  -7.1350  -7.1303  -7.1265  -7.1053  -7.0850  -7.0662  -7.0506
    -7.0433  -7.0344  -7.0327  -7.0092  -7.0044  -6.9976  -6.9912  -6.9763
    -6.9670  -6.9630  -6.9201  -6.9055  -6.8978  -6.8414  -6.8289  -6.8188
    -6.7920  -6.7755  -6.7654  -6.7605  -6.7554  -6.7537  -6.7504  -6.7480
    -6.7405  -6.7374  -6.7331  -6.7326  -6.7296  -6.7272  -6.7251  -6.7250
    -6.7246  -6.7239  -6.6727  -6.6666  -6.6551  -6.6183  -6.5712  -6.5535
    -6.5368  -6.4972  -6.4731  -6.4725  -6.4646  -6.4605  -6.4324  -6.4319
    -6.4269  -6.4255  -6.4219  -6.4215  -6.4179  -6.4174  -6.4049  -6.3942
    -6.3787  -6.3779  -6.3642  -6.3584  -6.3507  -6.3445  -6.3443  -6.3399
    -6.2980  -6.2906  -6.1415  -6.1399  -6.0912  -6.0877  -6.0318  -6.0291
    -6.0016  -5.9890  -5.9866  -5.9831  -5.8220  -5.8177  -5.7377  -5.7371
    -4.9844  -4.2339  -4.2328  -4.2313  -4.2209  -4.0835  -4.0758  -4.0579
    -4.0547  -4.0511  -4.0269  -3.9880  -3.9871  -3.9733  -3.9716  -3.9564
    -3.9552  -3.9437  -3.9433  -3.9386  -3.9132  -3.8249  -3.8206  -3.8168
    -3.7978  -3.7518  -3.7465  -3.7457  -3.7457  -3.7453  -3.7210  -3.6990
    -3.6985  -3.6700  -3.6681  -3.6670  -3.6648  -3.6632  -3.6609  -3.6280
    -3.6264  -3.6250  -3.6201  -3.6161  -3.6146  -3.6135  -3.6057  -3.5937
    -3.5932  -3.5729  -3.5670  -3.5660  -3.5648  -3.5624  -3.5431  -3.5008
    -3.4935  -3.4932  -3.4916  -3.4913  -3.4904  -3.4871  -3.4839  -3.4579
    -3.4514  -3.4456  -3.4340  -3.4317  -3.4287  -3.4276  -3.4273  -3.4270
    -3.4226  -3.4056  -3.3902  -3.3853  -3.3845  -3.3836  -3.3802  -3.3719
    -3.3634  -3.3553  -3.3548  -3.3507  -3.3361  -3.3275  -3.3209  -3.3189
    -3.3153  -3.3141  -3.3134  -3.3127  -3.3067  -3.3067  -3.2441  -3.2439
    -3.2403  -3.2128  -3.2109  -3.2071  -3.2050  -3.2013  -3.1710  -3.1694
    -3.1686  -3.1681  -3.1664  -3.1664  -3.1638  -3.1597  -3.1575  -3.1559
    -3.1547  -3.1465  -3.1376  -3.1366  -3.1312  -3.1222  -3.1162  -3.1155
    -3.1152  -3.1057  -3.1012  -3.0995  -3.0975  -3.0966  -3.0914  -3.0911
    -3.0875  -3.0819  -3.0762  -3.0760  -3.0500  -3.0409  -3.0337  -3.0333
    -3.0235  -3.0221  -3.0211  -3.0080  -3.0072  -2.9373  -2.9327  -2.9324
    -2.9309  -2.8629  -2.8579  -2.8558  -2.8427  -2.7560  -2.7536  -2.7167
    -2.7132  -2.7109  -2.7082  -2.6782  -2.6758  -2.6720  -2.6695  -2.6676
    -2.6617  -2.6551  -2.6052  -2.5797  -2.5420  -2.5401  -2.5371  -2.5268
    -2.5243  -2.5013  -2.4826

          k =-0.5000-0.2887 0.0000 (386352 PWs)   bands (ev):

  -109.0269 -81.7846 -81.7837 -81.7836 -81.7835 -81.7786 -81.7785 -81.7755
   -66.7730 -66.7696 -66.7658 -66.7655 -66.7655 -66.7655 -66.7645 -66.7644
   -66.7608 -66.7585 -66.7550 -66.7549 -66.7549 -66.7549 -66.7538 -66.7538
   -66.7464 -66.7462 -66.7450 -66.7449 -66.7411 -66.7400 -66.7399 -66.7398
   -66.7398 -66.7398 -66.7398 -66.7398 -66.7398 -66.7387 -66.7387 -66.7387
   -66.7387 -66.7382 -66.7368 -66.7356 -66.7354 -66.7353 -66.7353 -66.7353
   -66.7342 -66.7342 -66.7333 -66.7319 -66.7294 -66.7292 -66.7292 -66.7291
   -66.7291 -66.7290 -66.7290 -66.7290 -66.7288 -66.7280 -66.7280 -66.7279
   -66.7279 -66.7247 -66.7247 -66.7246 -66.7246 -66.7235 -66.7235 -66.7061
   -60.4446 -60.3992 -60.3990 -41.0738 -41.0718 -41.0678 -41.0676 -41.0676
   -41.0675 -41.0675 -41.0675 -41.0675 -41.0675 -41.0671 -41.0671 -41.0671
   -41.0671 -41.0671 -41.0656 -41.0455 -41.0426 -41.0408 -41.0407 -41.0407
   -41.0405 -41.0403 -41.0402 -41.0310 -41.0286 -41.0286 -41.0286 -41.0285
   -41.0282 -41.0282 -41.0280 -40.9806 -40.9803 -40.9795 -40.9789 -40.9779
   -40.9779 -40.9779 -40.9779 -40.9779 -40.9779 -40.9779 -40.9778 -40.9774
   -40.9774 -40.9774 -40.9774 -40.9282 -40.9251 -40.9194 -40.9192 -40.9191
   -40.9191 -40.9188 -40.9187 -40.9124 -40.9114 -40.9097 -40.9096 -40.9096
   -40.9096 -40.9090 -40.9090 -40.9076 -40.9039 -40.8984 -40.8984 -40.8983
   -40.8983 -40.8979 -40.8979 -40.8782 -40.8782 -40.8780 -40.8734 -40.8691
   -40.8689 -40.8688 -40.8687 -40.8687 -40.8687 -40.8687 -40.8687 -40.8687
   -40.8682 -40.8682 -40.8682 -40.8682 -40.8656 -40.8602 -40.8600 -40.8599
   -40.8599 -40.8595 -40.8595 -40.8580 -40.8564 -40.8563 -40.8509 -40.8507
   -40.8499 -40.8484 -40.8482 -40.8482 -40.8482 -40.8481 -40.8480 -40.8478
   -40.8478 -40.8476 -40.8476 -40.8476 -40.8476 -40.8475 -40.8475 -40.8474
   -40.8472 -40.8472 -40.8471 -40.8471 -40.8391 -40.8391 -40.8390 -40.8390
   -40.8385 -40.8385 -40.8230 -40.8209 -40.8194 -40.8174 -40.8173 -40.8172
   -40.8172 -40.8172 -40.8172 -40.8172 -40.8170 -40.8166 -40.8166 -40.8165
   -40.8165 -40.8160 -40.8156 -40.7855 -40.7854 -40.7842 -40.7837 -40.7825
   -40.7825 -40.7825 -40.7825 -40.7825 -40.7825 -40.7825 -40.7824 -40.7818
   -40.7818 -40.7818 -40.7818 -40.7751 -40.7705 -40.7703 -40.7703 -40.7702
   -40.7696 -40.7696 -40.7690 -40.7556 -40.7521 -40.7511 -40.7510 -40.7510
   -40.7509 -40.7503 -40.7503 -40.7365 -40.7340 -40.7340 -40.7340 -40.7340
   -40.7336 -40.7333 -40.7333 -40.7083 -40.7035 -40.7034 -40.7034 -40.7032
   -40.7026 -40.7026 -40.7023 -20.0318 -20.0277 -19.9712 -19.9584 -19.8806
   -19.8655 -19.7929 -19.7863 -19.5931 -19.5909 -19.5347 -19.5273 -19.4491
   -19.4395 -19.3659 -19.3615 -18.9368 -18.9152 -18.8797 -18.8771 -18.8770
   -18.8748 -18.8478 -18.8308 -18.8298 -18.8222 -18.8048 -18.7872 -18.7598
   -18.7593 -18.7584 -18.7483 -18.7130 -18.7083 -18.6902 -18.6890 -18.6873
   -18.6820 -18.6566 -18.6486 -18.6249 -18.6231 -18.6019 -18.5968 -18.5868
   -18.5789 -18.5510 -18.5487 -18.5281 -18.5171 -18.4821 -18.4794 -18.4647
   -18.4567 -18.3941 -18.3937 -18.3731 -18.3723 -18.3698 -18.3629 -18.3012
   -18.2990 -18.2925 -18.2781 -18.2590 -18.2519 -18.2507 -18.2479 -18.2478
   -18.2477 -18.2343 -18.2258 -18.2200 -18.2198 -18.2099 -18.2081 -18.2065
   -18.1982 -18.1896 -18.1863 -18.1839 -18.1787 -18.1773 -18.1772 -18.1499
   -18.1476 -18.1463 -18.1444 -18.1407 -18.1378 -18.1327 -18.1323 -18.1260
   -18.1205 -18.0819 -18.0799 -18.0790 -18.0682 -18.0603 -18.0600 -18.0314
   -18.0253 -18.0174 -18.0170 -17.9911 -17.9885 -17.9848 -17.9841 -17.9663
   -17.9662 -17.9651 -17.9647 -17.9641 -17.9639 -17.9559 -17.9547 -17.9410
   -17.9378 -17.9224 -17.9154 -17.9043 -17.8991 -17.8864 -17.8834 -17.8730
   -17.8720 -17.8659 -17.8658 -11.8795 -11.8576 -11.7355 -11.6631 -11.6583
   -11.6581 -11.6550 -11.6301 -11.6254 -11.6165 -11.5991 -11.5918 -11.5772
   -11.5768 -11.5569 -11.5368 -11.5140 -11.4931 -11.4762 -11.4757 -11.4658
   -11.4589 -11.4461 -11.4223 -11.4121 -11.4120 -11.4082 -11.4047 -11.4006
   -11.4003 -11.3773 -11.3753 -11.3565 -11.3319 -11.3295 -11.3255 -11.3242
   -11.3116 -11.3114 -11.3105 -11.3064 -11.2854 -11.2849 -11.2829 -11.2547
   -11.2489 -11.2106 -11.1996 -11.1982 -11.1951 -11.1159 -11.0840 -11.0805
   -11.0556 -11.0527 -11.0477 -11.0306 -11.0168 -11.0048 -10.9787 -10.9732
   -10.9638 -10.9621 -10.9583 -10.9582 -10.9576 -10.9563 -10.9519 -10.9446
   -10.9444 -10.9396 -10.9369 -10.9365 -10.9352 -10.9351 -10.9349 -10.9347
   -10.9347 -10.9154 -10.9124 -10.9058 -10.9027 -10.8879 -10.8870 -10.8855
   -10.8841 -10.6850 -10.6768 -10.6736 -10.6666 -10.6248 -10.6156 -10.5349
   -10.5169 -10.4099 -10.3835 -10.2941 -10.2863 -10.2815 -10.2807 -10.2501
   -10.2384 -10.2357 -10.2271 -10.2226 -10.2181 -10.2000 -10.1940 -10.1886
   -10.1654 -10.1532 -10.1523 -10.1488 -10.1477 -10.1119 -10.1097 -10.0767
   -10.0649 -10.0622 -10.0556 -10.0448 -10.0423 -10.0421 -10.0410 -10.0206
    -9.9988  -9.9737  -9.9484  -9.9467  -9.9379  -9.9212  -9.9180  -9.8998
    -9.8998  -9.8836  -9.8771  -9.8556  -9.8543  -9.8171  -9.8123  -9.8109
    -9.7994  -9.7862  -9.7732  -9.7552  -9.7442  -9.7277  -9.7113  -9.6919
    -9.6819  -9.6817  -9.6805  -9.6800  -9.6799  -9.6531  -9.6519  -9.6306
    -9.6292  -9.6142  -9.6088  -9.6045  -9.6036  -9.5947  -9.5929  -9.5732
    -9.5705  -9.5693  -9.5620  -9.5006  -9.4886  -9.3969  -9.3929  -9.3817
    -9.3723  -9.3488  -9.3464  -9.3304  -9.3202  -9.3132  -9.3049  -9.3019
    -9.2998  -9.2549  -9.2518  -9.2450  -9.2089  -9.2063  -9.1974  -9.1877
    -9.1791  -9.1747  -9.1729  -9.1650  -9.1629  -9.1574  -9.1542  -9.1038
    -9.0936  -9.0907  -9.0884  -9.0782  -9.0735  -9.0724  -9.0700  -9.0346
    -9.0308  -9.0307  -9.0296  -9.0205  -9.0167  -9.0160  -9.0106  -9.0104
    -9.0088  -9.0071  -9.0062  -8.9932  -8.9892  -8.9852  -8.9838  -8.9771
    -8.9693  -8.9641  -8.9566  -8.9473  -8.9441  -8.9307  -8.9289  -8.9282
    -8.9277  -8.9276  -8.9227  -8.9030  -8.8962  -8.8773  -8.8748  -8.8670
    -8.8653  -8.8427  -8.8357  -8.7953  -8.7870  -8.7472  -8.7184  -8.6684
    -8.6588  -8.6392  -8.6266  -8.5756  -8.5626  -8.4974  -8.4908  -8.4160
    -8.4072  -8.3889  -8.3750  -8.2743  -8.2739  -8.2674  -8.2654  -8.2582
    -8.2544  -8.2505  -8.2416  -8.2121  -8.2062  -8.1182  -8.1175  -8.0732
    -8.0695  -8.0237  -7.9925  -7.9858  -7.9858  -7.9809  -7.9675  -7.9587
    -7.9579  -7.9573  -7.9454  -7.9447  -7.9377  -7.9375  -7.9361  -7.9340
    -7.9302  -7.9299  -7.9274  -7.9224  -7.9204  -7.9186  -7.9153  -7.9135
    -7.9127  -7.9124  -7.9091  -7.9079  -7.9035  -7.9023  -7.8955  -7.8916
    -7.8878  -7.8813  -7.8648  -7.8619  -7.8608  -7.8550  -7.8416  -7.8404
    -7.8401  -7.8393  -7.8370  -7.8365  -7.8336  -7.8132  -7.8113  -7.8089
    -7.8085  -7.7941  -7.7888  -7.7609  -7.7588  -7.7547  -7.7462  -7.7454
    -7.7413  -7.7411  -7.7406  -7.7330  -7.7260  -7.7233  -7.7096  -7.7080
    -7.7080  -7.7025  -7.6901  -7.6855  -7.6835  -7.6082  -7.6072  -7.6002
    -7.5975  -7.5876  -7.5635  -7.5052  -7.4259  -7.4219  -7.3917  -7.3831
    -7.3208  -7.3152  -7.3134  -7.3122  -7.2881  -7.2679  -7.2585  -7.2571
    -7.2468  -7.2449  -7.2283  -7.1943  -7.1785  -7.1757  -7.1627  -7.1606
    -7.1580  -7.1350  -7.1303  -7.1265  -7.1053  -7.0850  -7.0662  -7.0506
    -7.0433  -7.0344  -7.0327  -7.0092  -7.0044  -6.9976  -6.9912  -6.9763
    -6.9670  -6.9630  -6.9201  -6.9055  -6.8978  -6.8413  -6.8290  -6.8189
    -6.7920  -6.7755  -6.7654  -6.7605  -6.7554  -6.7537  -6.7504  -6.7480
    -6.7405  -6.7374  -6.7331  -6.7326  -6.7296  -6.7272  -6.7250  -6.7250
    -6.7246  -6.7239  -6.6727  -6.6666  -6.6550  -6.6183  -6.5712  -6.5534
    -6.5368  -6.4973  -6.4730  -6.4725  -6.4646  -6.4606  -6.4324  -6.4320
    -6.4269  -6.4255  -6.4219  -6.4215  -6.4179  -6.4174  -6.4049  -6.3942
    -6.3787  -6.3779  -6.3642  -6.3583  -6.3508  -6.3446  -6.3443  -6.3399
    -6.2982  -6.2904  -6.1415  -6.1399  -6.0912  -6.0877  -6.0318  -6.0291
    -6.0016  -5.9890  -5.9867  -5.9831  -5.8220  -5.8177  -5.7377  -5.7371
    -4.9845  -4.2339  -4.2328  -4.2313  -4.2209  -4.0835  -4.0758  -4.0579
    -4.0547  -4.0511  -4.0269  -3.9880  -3.9871  -3.9733  -3.9716  -3.9564
    -3.9552  -3.9437  -3.9433  -3.9387  -3.9132  -3.8249  -3.8206  -3.8168
    -3.7978  -3.7518  -3.7464  -3.7458  -3.7457  -3.7453  -3.7210  -3.6990
    -3.6985  -3.6700  -3.6680  -3.6670  -3.6648  -3.6632  -3.6609  -3.6280
    -3.6264  -3.6250  -3.6201  -3.6161  -3.6146  -3.6135  -3.6057  -3.5937
    -3.5932  -3.5729  -3.5670  -3.5660  -3.5648  -3.5624  -3.5431  -3.5009
    -3.4935  -3.4931  -3.4916  -3.4913  -3.4905  -3.4871  -3.4839  -3.4579
    -3.4514  -3.4456  -3.4340  -3.4317  -3.4287  -3.4276  -3.4273  -3.4270
    -3.4226  -3.4056  -3.3902  -3.3853  -3.3845  -3.3836  -3.3802  -3.3719
    -3.3635  -3.3553  -3.3547  -3.3507  -3.3361  -3.3275  -3.3209  -3.3189
    -3.3153  -3.3141  -3.3134  -3.3127  -3.3067  -3.3067  -3.2441  -3.2439
    -3.2403  -3.2128  -3.2109  -3.2071  -3.2050  -3.2012  -3.1710  -3.1694
    -3.1687  -3.1681  -3.1664  -3.1663  -3.1639  -3.1597  -3.1575  -3.1559
    -3.1547  -3.1465  -3.1376  -3.1366  -3.1312  -3.1223  -3.1162  -3.1156
    -3.1153  -3.1057  -3.1012  -3.0995  -3.0975  -3.0966  -3.0914  -3.0911
    -3.0875  -3.0817  -3.0762  -3.0759  -3.0500  -3.0408  -3.0338  -3.0332
    -3.0235  -3.0220  -3.0209  -3.0078  -3.0072  -2.9375  -2.9326  -2.9317
    -2.9310  -2.8630  -2.8579  -2.8557  -2.8431  -2.7583  -2.7505  -2.7218
    -2.7134  -2.7093  -2.7055  -2.6887  -2.6740  -2.6720  -2.6705  -2.6695
    -2.6676  -2.6620  -2.5805  -2.5441  -2.5421  -2.5401  -2.5372  -2.5269
    -2.5257  -2.4852  -2.4823

          k =-0.5000-0.8660 0.0000 (386352 PWs)   bands (ev):

  -109.0269 -81.7846 -81.7837 -81.7836 -81.7835 -81.7786 -81.7785 -81.7755
   -66.7730 -66.7696 -66.7658 -66.7655 -66.7655 -66.7654 -66.7645 -66.7644
   -66.7608 -66.7585 -66.7550 -66.7549 -66.7549 -66.7549 -66.7538 -66.7538
   -66.7464 -66.7462 -66.7450 -66.7449 -66.7411 -66.7400 -66.7399 -66.7398
   -66.7398 -66.7398 -66.7398 -66.7398 -66.7398 -66.7387 -66.7387 -66.7387
   -66.7387 -66.7382 -66.7368 -66.7356 -66.7355 -66.7353 -66.7353 -66.7352
   -66.7342 -66.7342 -66.7333 -66.7319 -66.7294 -66.7292 -66.7292 -66.7291
   -66.7291 -66.7291 -66.7290 -66.7290 -66.7287 -66.7280 -66.7280 -66.7279
   -66.7279 -66.7247 -66.7247 -66.7246 -66.7246 -66.7235 -66.7235 -66.7061
   -60.4446 -60.3992 -60.3990 -41.0738 -41.0718 -41.0678 -41.0677 -41.0676
   -41.0675 -41.0675 -41.0675 -41.0675 -41.0675 -41.0671 -41.0671 -41.0671
   -41.0671 -41.0671 -41.0655 -41.0455 -41.0425 -41.0408 -41.0407 -41.0407
   -41.0405 -41.0402 -41.0402 -41.0310 -41.0286 -41.0286 -41.0286 -41.0285
   -41.0282 -41.0282 -41.0280 -40.9806 -40.9803 -40.9795 -40.9789 -40.9779
   -40.9779 -40.9779 -40.9779 -40.9779 -40.9779 -40.9779 -40.9778 -40.9774
   -40.9774 -40.9774 -40.9774 -40.9282 -40.9251 -40.9194 -40.9192 -40.9192
   -40.9191 -40.9187 -40.9187 -40.9124 -40.9114 -40.9097 -40.9097 -40.9096
   -40.9096 -40.9090 -40.9090 -40.9076 -40.9039 -40.8984 -40.8984 -40.8983
   -40.8983 -40.8979 -40.8979 -40.8782 -40.8782 -40.8780 -40.8734 -40.8691
   -40.8689 -40.8688 -40.8687 -40.8687 -40.8687 -40.8687 -40.8687 -40.8687
   -40.8682 -40.8682 -40.8682 -40.8682 -40.8656 -40.8602 -40.8600 -40.8599
   -40.8599 -40.8595 -40.8595 -40.8581 -40.8564 -40.8563 -40.8509 -40.8507
   -40.8499 -40.8484 -40.8482 -40.8482 -40.8482 -40.8481 -40.8480 -40.8479
   -40.8478 -40.8477 -40.8476 -40.8476 -40.8476 -40.8475 -40.8475 -40.8474
   -40.8472 -40.8472 -40.8471 -40.8471 -40.8391 -40.8391 -40.8390 -40.8390
   -40.8385 -40.8385 -40.8230 -40.8209 -40.8194 -40.8174 -40.8173 -40.8172
   -40.8172 -40.8172 -40.8172 -40.8171 -40.8170 -40.8166 -40.8166 -40.8165
   -40.8165 -40.8160 -40.8156 -40.7855 -40.7854 -40.7842 -40.7837 -40.7825
   -40.7825 -40.7825 -40.7825 -40.7825 -40.7825 -40.7825 -40.7824 -40.7818
   -40.7818 -40.7818 -40.7818 -40.7751 -40.7705 -40.7703 -40.7703 -40.7701
   -40.7696 -40.7696 -40.7690 -40.7556 -40.7521 -40.7511 -40.7510 -40.7510
   -40.7509 -40.7503 -40.7503 -40.7365 -40.7340 -40.7340 -40.7340 -40.7340
   -40.7336 -40.7333 -40.7333 -40.7083 -40.7035 -40.7034 -40.7033 -40.7032
   -40.7026 -40.7026 -40.7023 -20.0318 -20.0277 -19.9712 -19.9584 -19.8806
   -19.8655 -19.7929 -19.7863 -19.5931 -19.5909 -19.5347 -19.5273 -19.4491
   -19.4396 -19.3659 -19.3615 -18.9368 -18.9152 -18.8798 -18.8770 -18.8770
   -18.8747 -18.8478 -18.8308 -18.8299 -18.8222 -18.8048 -18.7872 -18.7598
   -18.7592 -18.7585 -18.7483 -18.7130 -18.7084 -18.6903 -18.6889 -18.6873
   -18.6820 -18.6566 -18.6486 -18.6249 -18.6231 -18.6019 -18.5968 -18.5868
   -18.5789 -18.5510 -18.5487 -18.5281 -18.5171 -18.4821 -18.4794 -18.4647
   -18.4567 -18.3941 -18.3937 -18.3732 -18.3722 -18.3699 -18.3629 -18.3014
   -18.2989 -18.2925 -18.2781 -18.2590 -18.2519 -18.2507 -18.2479 -18.2478
   -18.2477 -18.2343 -18.2257 -18.2200 -18.2198 -18.2099 -18.2081 -18.2065
   -18.1982 -18.1896 -18.1864 -18.1839 -18.1787 -18.1773 -18.1772 -18.1499
   -18.1475 -18.1463 -18.1443 -18.1407 -18.1377 -18.1327 -18.1323 -18.1260
   -18.1205 -18.0819 -18.0799 -18.0791 -18.0681 -18.0603 -18.0600 -18.0314
   -18.0253 -18.0174 -18.0170 -17.9911 -17.9885 -17.9848 -17.9841 -17.9663
   -17.9662 -17.9651 -17.9647 -17.9641 -17.9639 -17.9559 -17.9547 -17.9410
   -17.9378 -17.9224 -17.9154 -17.9043 -17.8991 -17.8864 -17.8834 -17.8730
   -17.8720 -17.8659 -17.8658 -11.8795 -11.8576 -11.7356 -11.6631 -11.6583
   -11.6581 -11.6550 -11.6301 -11.6254 -11.6165 -11.5991 -11.5917 -11.5772
   -11.5768 -11.5568 -11.5368 -11.5140 -11.4931 -11.4762 -11.4757 -11.4658
   -11.4589 -11.4460 -11.4223 -11.4121 -11.4120 -11.4082 -11.4047 -11.4006
   -11.4003 -11.3773 -11.3753 -11.3565 -11.3320 -11.3295 -11.3255 -11.3242
   -11.3116 -11.3114 -11.3105 -11.3064 -11.2854 -11.2849 -11.2829 -11.2547
   -11.2490 -11.2106 -11.1996 -11.1981 -11.1951 -11.1158 -11.0840 -11.0806
   -11.0556 -11.0527 -11.0477 -11.0306 -11.0168 -11.0048 -10.9787 -10.9732
   -10.9638 -10.9621 -10.9583 -10.9582 -10.9575 -10.9563 -10.9519 -10.9446
   -10.9444 -10.9396 -10.9369 -10.9365 -10.9352 -10.9351 -10.9349 -10.9347
   -10.9347 -10.9155 -10.9123 -10.9057 -10.9027 -10.8879 -10.8870 -10.8855
   -10.8841 -10.6850 -10.6768 -10.6736 -10.6667 -10.6248 -10.6156 -10.5349
   -10.5169 -10.4099 -10.3834 -10.2941 -10.2863 -10.2815 -10.2807 -10.2501
   -10.2386 -10.2353 -10.2271 -10.2225 -10.2182 -10.2001 -10.1940 -10.1886
   -10.1653 -10.1532 -10.1523 -10.1488 -10.1477 -10.1123 -10.1094 -10.0768
   -10.0649 -10.0622 -10.0556 -10.0448 -10.0423 -10.0421 -10.0410 -10.0206
    -9.9988  -9.9737  -9.9485  -9.9466  -9.9378  -9.9212  -9.9180  -9.8999
    -9.8998  -9.8836  -9.8770  -9.8556  -9.8543  -9.8171  -9.8124  -9.8109
    -9.7994  -9.7862  -9.7732  -9.7552  -9.7442  -9.7278  -9.7112  -9.6919
    -9.6819  -9.6817  -9.6805  -9.6800  -9.6799  -9.6531  -9.6519  -9.6306
    -9.6292  -9.6142  -9.6088  -9.6045  -9.6036  -9.5947  -9.5929  -9.5732
    -9.5705  -9.5693  -9.5620  -9.5006  -9.4886  -9.3970  -9.3929  -9.3817
    -9.3723  -9.3487  -9.3464  -9.3304  -9.3202  -9.3131  -9.3049  -9.3019
    -9.2998  -9.2549  -9.2519  -9.2450  -9.2088  -9.2063  -9.1974  -9.1876
    -9.1791  -9.1747  -9.1729  -9.1651  -9.1629  -9.1574  -9.1542  -9.1038
    -9.0936  -9.0906  -9.0885  -9.0782  -9.0735  -9.0724  -9.0700  -9.0346
    -9.0308  -9.0307  -9.0296  -9.0205  -9.0167  -9.0160  -9.0106  -9.0104
    -9.0088  -9.0071  -9.0062  -8.9931  -8.9892  -8.9852  -8.9838  -8.9772
    -8.9693  -8.9641  -8.9566  -8.9474  -8.9441  -8.9308  -8.9290  -8.9282
    -8.9277  -8.9276  -8.9227  -8.9030  -8.8962  -8.8773  -8.8749  -8.8670
    -8.8653  -8.8426  -8.8358  -8.7953  -8.7870  -8.7472  -8.7184  -8.6682
    -8.6588  -8.6391  -8.6266  -8.5755  -8.5626  -8.4973  -8.4908  -8.4158
    -8.4069  -8.3889  -8.3757  -8.2743  -8.2740  -8.2674  -8.2654  -8.2582
    -8.2544  -8.2505  -8.2416  -8.2121  -8.2062  -8.1182  -8.1175  -8.0732
    -8.0695  -8.0235  -7.9925  -7.9858  -7.9858  -7.9809  -7.9675  -7.9588
    -7.9579  -7.9573  -7.9455  -7.9447  -7.9376  -7.9375  -7.9361  -7.9340
    -7.9302  -7.9299  -7.9274  -7.9224  -7.9204  -7.9186  -7.9153  -7.9135
    -7.9128  -7.9124  -7.9091  -7.9079  -7.9035  -7.9023  -7.8955  -7.8916
    -7.8877  -7.8813  -7.8648  -7.8619  -7.8608  -7.8550  -7.8416  -7.8404
    -7.8401  -7.8393  -7.8370  -7.8365  -7.8336  -7.8132  -7.8113  -7.8089
    -7.8085  -7.7941  -7.7888  -7.7609  -7.7588  -7.7547  -7.7462  -7.7454
    -7.7413  -7.7411  -7.7406  -7.7330  -7.7260  -7.7233  -7.7096  -7.7080
    -7.7080  -7.7025  -7.6901  -7.6855  -7.6835  -7.6083  -7.6072  -7.6002
    -7.5974  -7.5877  -7.5634  -7.5054  -7.4258  -7.4216  -7.3918  -7.3833
    -7.3208  -7.3152  -7.3134  -7.3122  -7.2881  -7.2679  -7.2585  -7.2571
    -7.2468  -7.2449  -7.2283  -7.1943  -7.1785  -7.1757  -7.1627  -7.1605
    -7.1580  -7.1350  -7.1303  -7.1265  -7.1053  -7.0850  -7.0662  -7.0506
    -7.0433  -7.0344  -7.0327  -7.0092  -7.0044  -6.9976  -6.9912  -6.9763
    -6.9670  -6.9630  -6.9201  -6.9055  -6.8977  -6.8414  -6.8289  -6.8188
    -6.7920  -6.7755  -6.7654  -6.7605  -6.7554  -6.7537  -6.7504  -6.7480
    -6.7405  -6.7375  -6.7331  -6.7326  -6.7296  -6.7272  -6.7250  -6.7250
    -6.7246  -6.7239  -6.6727  -6.6667  -6.6551  -6.6183  -6.5711  -6.5535
    -6.5368  -6.4972  -6.4731  -6.4724  -6.4647  -6.4605  -6.4324  -6.4320
    -6.4269  -6.4255  -6.4219  -6.4215  -6.4179  -6.4174  -6.4050  -6.3942
    -6.3787  -6.3779  -6.3642  -6.3584  -6.3507  -6.3445  -6.3443  -6.3399
    -6.2978  -6.2908  -6.1415  -6.1399  -6.0912  -6.0877  -6.0318  -6.0291
    -6.0016  -5.9890  -5.9867  -5.9831  -5.8220  -5.8177  -5.7376  -5.7371
    -4.9844  -4.2339  -4.2328  -4.2313  -4.2209  -4.0835  -4.0758  -4.0579
    -4.0547  -4.0511  -4.0269  -3.9880  -3.9871  -3.9733  -3.9716  -3.9564
    -3.9552  -3.9437  -3.9433  -3.9386  -3.9131  -3.8249  -3.8206  -3.8168
    -3.7978  -3.7518  -3.7465  -3.7457  -3.7457  -3.7453  -3.7210  -3.6990
    -3.6985  -3.6700  -3.6681  -3.6670  -3.6649  -3.6632  -3.6609  -3.6280
    -3.6264  -3.6250  -3.6201  -3.6161  -3.6146  -3.6135  -3.6057  -3.5937
    -3.5932  -3.5729  -3.5670  -3.5660  -3.5648  -3.5624  -3.5431  -3.5008
    -3.4935  -3.4932  -3.4916  -3.4913  -3.4904  -3.4871  -3.4839  -3.4579
    -3.4514  -3.4456  -3.4340  -3.4317  -3.4287  -3.4276  -3.4273  -3.4270
    -3.4226  -3.4056  -3.3902  -3.3853  -3.3845  -3.3836  -3.3802  -3.3719
    -3.3635  -3.3553  -3.3547  -3.3507  -3.3361  -3.3275  -3.3209  -3.3189
    -3.3153  -3.3141  -3.3134  -3.3127  -3.3067  -3.3067  -3.2441  -3.2439
    -3.2403  -3.2128  -3.2109  -3.2071  -3.2050  -3.2012  -3.1710  -3.1694
    -3.1686  -3.1681  -3.1664  -3.1664  -3.1639  -3.1597  -3.1575  -3.1559
[...]
     atom  160 type  2   force =    -0.00000001   -0.00000001    0.00017134
     atom  161 type  2   force =     0.00000004    0.00000003    0.00441499
     atom  162 type  2   force =    -0.00000004   -0.00000000    0.00009065
     atom  163 type  1   force =    -0.00000001   -0.00000071   -0.00001650
     atom  164 type  1   force =     0.00006847    0.00003953   -0.00246831
     atom  165 type  2   force =    -0.00000003   -0.00000409   -0.00016257
     atom  166 type  2   force =     0.00000073    0.00000042    0.00002904
     atom  167 type  2   force =     0.00000000   -0.00000001   -0.00009211
     atom  168 type  2   force =    -0.00000011    0.00001638   -0.00440043
     atom  169 type  1   force =    -0.00000002   -0.00000003    0.00255968
     atom  170 type  1   force =    -0.00000005    0.00000004    0.00000389
     atom  171 type  2   force =    -0.00000006   -0.00000001   -0.00003425
     atom  172 type  2   force =    -0.00000000    0.00000000    0.00017135
     atom  173 type  2   force =    -0.00000000   -0.00000002    0.00441505
     atom  174 type  2   force =    -0.00000004   -0.00000001    0.00009074
     atom  175 type  1   force =    -0.00000198   -0.00000152   -0.00001643
     atom  176 type  1   force =    -0.00000013   -0.00000326   -0.00249742
     atom  177 type  2   force =     0.00000115   -0.00000164   -0.00015404
     atom  178 type  2   force =     0.00000001   -0.00000121    0.00002838
     atom  179 type  2   force =    -0.00000002    0.00000022   -0.00009234
     atom  180 type  2   force =    -0.00026549   -0.00005257   -0.00429653
     atom  181 type  1   force =    -0.00000004   -0.00000001    0.00255968
     atom  182 type  1   force =    -0.00000004    0.00000001    0.00000390
     atom  183 type  2   force =    -0.00000004   -0.00000004   -0.00003425
     atom  184 type  2   force =    -0.00000002   -0.00000001    0.00017138
     atom  185 type  2   force =    -0.00000005   -0.00000003    0.00441502
     atom  186 type  2   force =    -0.00000003   -0.00000001    0.00009073
     atom  187 type  1   force =    -0.00000230   -0.00000095   -0.00001643
     atom  188 type  1   force =    -0.00007337   -0.00004237   -0.00246983
     atom  189 type  2   force =    -0.00000084    0.00000183   -0.00015405
     atom  190 type  2   force =    -0.00000305   -0.00000176    0.00002840
     atom  191 type  2   force =    -0.00000002   -0.00000000   -0.00009258
     atom  192 type  2   force =    -0.00017814   -0.00020359   -0.00429660
     atom  193 type  3   force =     0.00000041    0.00000004   -0.00654401

     Total force =     0.001663     Total SCF correction =     0.004699
     SCF correction compared to forces is large: reduce conv_thr to get better values
     Energy error            =      2.6E-06 Ry
     Gradient error          =      7.4E-04 Ry/Bohr

     bfgs converged in  60 scf cycles and  50 bfgs steps
     (criteria: energy <  1.0E-04 Ry, force <  1.0E-03 Ry/Bohr)

     End of BFGS Geometry Optimization

     Final energy             =  -33570.9337489502 Ry

     File ./outdir/pwscf.bfgs deleted, as requested
Begin final coordinates

ATOMIC_POSITIONS (angstrom)
Mo            0.0000119917        1.8193638619       -9.1672481230    0   0   0
Mo            1.5756136568        0.9097075315       -3.0554901653    0   0   0
S             0.0000188998        1.8193822938       -4.6232556019    0   0   0
S             1.5756321638        0.9096773839       -7.6014065489    0   0   0
S             1.5756326175        0.9096785128      -10.7330757790    0   0   0
S             0.0000189190        1.8193860094       -1.4877129945    0   0   0
Mo            0.0000387198        1.8193196932        3.0610211842
Mo            1.5756652189        0.9104008533        9.1832865489
S            -0.0007157506        1.8196376282        7.6146216464
S             1.5756518762        0.9096749783        4.6290741331
S             1.5756566024        0.9097103047        1.4932474342
S             0.0000210243        1.8178669997       10.7525164222
Mo           -1.5756053507        4.5484193819       -9.1672481230    0   0   0
Mo            0.0000378379        3.6387394919       -3.0554952701    0   0   0
S            -1.5755913433        4.5484363582       -4.6232494962    0   0   0
S             0.0000148214        3.6387329039       -7.6014065489    0   0   0
S             0.0000152751        3.6387340328      -10.7330757790    0   0   0
S            -1.5755906502        4.5484413613       -1.4877305502    0   0   0
Mo           -1.5756055664        4.5484320858        3.0612658170
Mo           -0.0004769477        3.6384455079        9.1816955623
S            -1.5769697412        4.5476193557        7.6132430321
S            -0.0000226639        3.6385884528        4.6292110601
S             0.0000314149        3.6388396949        1.4934259787
S            -1.5782501663        4.5468780713       10.7512196073
Mo           -3.1512226931        7.2774749019       -9.1672481230    0   0   0
Mo           -1.5755910988        6.3678216792       -3.0555115988    0   0   0
S            -3.1512162438        7.2774954350       -4.6232578178    0   0   0
S            -1.5756025210        6.3677884239       -7.6014065489    0   0   0
S            -1.5756020673        6.3677895528      -10.7330757790    0   0   0
S            -3.1512127704        7.2774877076       -1.4877200710    0   0   0
Mo           -3.1512559634        7.2775345321        3.0610211129
Mo           -1.5760867354        6.3674976837        9.1817048350
S            -3.1513309208        7.2767118946        7.6146448289
S            -1.5757499645        6.3678407066        4.6292087813
S            -1.5755136349        6.3677644791        1.4934268444
S            -3.1525079358        7.2782185581       10.7525392763
Mo           -4.7268400355       10.0065304219       -9.1672481230    0   0   0
Mo           -3.1512405618        9.0968403586       -3.0554816746    0   0   0
S            -4.7268341792       10.0065523623       -4.6232463762    0   0   0
S            -3.1512198634        9.0968439439       -7.6014065489    0   0   0
S            -3.1512194097        9.0968450728      -10.7330757790    0   0   0
S            -4.7268370797       10.0065537885       -1.4877176751    0   0   0
Mo           -4.7268239198       10.0065481795        3.0610629540
Mo           -3.1505720564        9.0965057623        9.1833089598
S            -4.7267978085       10.0065480958        7.6157408443
S            -3.1512202765        9.0968756527        4.6290764911
S            -3.1511913249        9.0968629876        1.4932488356
S            -4.7268277022       10.0065482738       10.7524105555
Mo            3.1512517547        1.8193638619       -9.1672481230    0   0   0
Mo            4.7269020221        0.9097289540       -3.0554823951    0   0   0
S             3.1512612351        1.8193882564       -4.6232320683    0   0   0
S             4.7268719268        0.9096773839       -7.6014065489    0   0   0
S             4.7268723805        0.9096785128      -10.7330757790    0   0   0
S             3.1512592485        1.8193890201       -1.4877261251    0   0   0
Mo            3.1512575502        1.8193201786        3.0610242991
Mo            4.7273335368        0.9099340670        9.1827702317
S             3.1520504557        1.8196374742        7.6146342002
S             4.7268902739        0.9096990715        4.6290157964
S             4.7268727650        0.9096923127        1.4931735410
S             3.1513160097        1.8178638076       10.7525194468
Mo            1.5756344123        4.5484193819       -9.1672481230    0   0   0
Mo            3.1512756394        3.6387769522       -3.0554814834    0   0   0
S             1.5756504879        4.5484423799       -4.6232390542    0   0   0
S             3.1512545844        3.6387329039       -7.6014065489    0   0   0
S             3.1512550381        3.6387340328      -10.7330757790    0   0   0
S             1.5756466253        4.5484431864       -1.4877251801    0   0   0
Mo            1.5756504901        4.5485602635        3.0612087854
Mo            3.1518055438        3.6384528974        9.1816936478
S             1.5756618610        4.5430823046        7.6081949394
S             3.1513225083        3.6385887625        4.6292125931
S             3.1512738861        3.6388364110        1.4934166975
S             1.5756582166        4.5555185362       10.7535850943
Mo            0.0000170699        7.2774749019       -9.1672481230    0   0   0
Mo            1.5756764447        6.3678236689       -3.0554877708    0   0   0
S             0.0000381981        7.2774979204       -4.6232454413    0   0   0
S             1.5756372420        6.3677884239       -7.6014065489    0   0   0
S             1.5756376957        6.3677895528      -10.7330757790    0   0   0
S             0.0000328088        7.2774946042       -1.4877307940    0   0   0
Mo            0.0001377690        7.2774350046        3.0612042049
Mo            1.5756534837        6.3678046386        9.1647790249
S            -0.0045935168        7.2801675213        7.6081940715
S             1.5756485129        6.3678083602        4.6288086646
S             1.5756592434        6.3678087890        1.4931157133
S             0.0061793343        7.2739408675       10.7536062256
Mo           -1.5756002725       10.0065304219       -9.1672481230    0   0   0
Mo            0.0000873425        9.0968676911       -3.0554912329    0   0   0
S            -1.5755883952       10.0065504530       -4.6232240150    0   0   0
S             0.0000198996        9.0968439439       -7.6014065489    0   0   0
S             0.0000203533        9.0968450728      -10.7330757790    0   0   0
S            -1.5755859047       10.0065492576       -1.4877362381    0   0   0
Mo           -1.5756435206       10.0065750623        3.0610256744
Mo            0.0000589488        9.0974508889        9.1817146379
S            -1.5749566873       10.0070529704        7.6146494813
S            -0.0000740892        9.0969909112        4.6292092717
S             0.0001099305        9.0968275800        1.4934187467
S            -1.5768574933       10.0073283595       10.7525430535
Mo            6.3024915177        1.8193638619       -9.1672481230    0   0   0
Mo            7.8781001445        0.9096521684       -3.0554919963    0   0   0
S             6.3025008696        1.8193826232       -4.6232480596    0   0   0
S             7.8781116898        0.9096773839       -7.6014065489    0   0   0
S             7.8781121435        0.9096785128      -10.7330757790    0   0   0
S             6.3025042007        1.8193849068       -1.4877147524    0   0   0
Mo            6.3024861244        1.8193740284        3.0610190219
Mo            7.8781336618        0.9114774607        9.1811119339
S             6.3023362939        1.8192485978        7.6136966044
S             7.8781303223        0.9098552374        4.6290218952
S             7.8781182368        0.9095771363        1.4932629660
S             6.3029288416        1.8196287752       10.7516121540
Mo            4.7268741753        4.5484193819       -9.1672481230    0   0   0
Mo            6.3024679138        3.6387501714       -3.0554895197    0   0   0
S             4.7268748770        4.5484386753       -4.6232519432    0   0   0
S             6.3024943474        3.6387329039       -7.6014065489    0   0   0
S             6.3024948011        3.6387340328      -10.7330757790    0   0   0
S             4.7268770533        4.5484432419       -1.4877137856    0   0   0
Mo            4.7268983178        4.5484294070        3.0612718702
Mo            6.3040746365        3.6378486239        9.1810869934
S             4.7282922429        4.5476417567        7.6132301108
S             6.3026443377        3.6386741751        4.6290276581
S             6.3024038322        3.6388104848        1.4932652367
S             4.7296135134        4.5468677587       10.7511886426
Mo            3.1512568329        7.2774749019       -9.1672481230    0   0   0
Mo            4.7268384135        6.3678043337       -3.0554959052    0   0   0
S             3.1512606125        7.2774972547       -4.6232589675    0   0   0
S             4.7268770050        6.3677884239       -7.6014065489    0   0   0
S             4.7268774587        6.3677895528      -10.7330757790    0   0   0
S             3.1512629079        7.2774963749       -1.4877081835    0   0   0
Mo            3.1511659014        7.2774334479        3.0612045164
Mo            4.7274276744        6.3675008586        9.1817048400
S             3.1559185566        7.2801645537        7.6082073785
S             4.7270629242        6.3678422831        4.6292065475
S             4.7268219218        6.3677599205        1.4934209377
S             3.1451309089        7.2739312521       10.7536091395
Mo            1.5756394905       10.0065304219       -9.1672481230    0   0   0
Mo            3.1512330605        9.0968514907       -3.0554878870    0   0   0
S             1.5756499830       10.0065443759       -4.6232632674    0   0   0
S             3.1512596626        9.0968439439       -7.6014065489    0   0   0
S             3.1512601163        9.0968450728      -10.7330757790    0   0   0
S             1.5756503041       10.0065459699       -1.4877044377    0   0   0
Mo            1.5756494961       10.0065632542        3.0612690608
Mo            3.1512951492        9.0974571150        9.1817138223
S             1.5756861227       10.0081443113        7.6132467800
S             3.1513889156        9.0969906856        4.6292087080
S             3.1512008760        9.0968226793        1.4934228733
S             1.5756774147       10.0096544370       10.7512169908
Mo            9.4537312807        1.8193638619       -9.1672481230    0   0   0
Mo           11.0293863460        0.9096952246       -3.0554894007    0   0   0
S             9.4537395970        1.8193770750       -4.6232328036    0   0   0
S            11.0293514528        0.9096773839       -7.6014065489    0   0   0
S            11.0293519066        0.9096785128      -10.7330757790    0   0   0
S             9.4537393632        1.8193794783       -1.4877366147    0   0   0
Mo            9.4537625151        1.8193743301        3.0610077540
Mo           11.0289520711        0.9099421513        9.1827741438
S             9.4539388416        1.8192820413        7.6137289218
S            11.0293595921        0.9097014634        4.6290022397
S            11.0293894830        0.9096850374        1.4931678592
S             9.4533454260        1.8196140005       10.7516191334
Mo            7.8781139383        4.5484193819       -9.1672481230    0   0   0
Mo            9.4537539161        3.6387607911       -3.0554933032    0   0   0
S             7.8781175448        4.5484378232       -4.6232366318    0   0   0
S             9.4537341104        3.6387329039       -7.6014065489    0   0   0
S             9.4537345641        3.6387340328      -10.7330757790    0   0   0
S             7.8781194018        4.5484411585       -1.4877377057    0   0   0
Mo            7.8781277036        4.5484578298        3.0610145382
Mo            9.4522233423        3.6378625107        9.1811247748
S             7.8781669798        4.5486496934        7.6137124663
S             9.4536092354        3.6386688077        4.6290204528
S             9.4538511729        3.6388182788        1.4932575311
S             7.8781308733        4.5479529522       10.7516154340
Mo            6.3024965959        7.2774749019       -9.1672481230    0   0   0
Mo            7.8781361655        6.3678242352       -3.0555014130    0   0   0
S             6.3024973331        7.2774953556       -4.6232392528    0   0   0
S             7.8781167680        6.3677884239       -7.6014065489    0   0   0
S             7.8781172217        6.3677895528      -10.7330757790    0   0   0
S             6.3024989866        7.2774929744       -1.4877349119    0   0   0
Mo            6.3025632252        7.2775345782        3.0610174541
Mo            7.8781571480        6.3673107097        9.1827752888
S             6.3026871077        7.2766838583        7.6146382482
S             7.8781328870        6.3678005830        4.6290050003
S             7.8781320738        6.3678330769        1.4931703360
S             6.3038685431        7.2782299274       10.7525211043
Mo            4.7268792535       10.0065304219       -9.1672481230    0   0   0
Mo            6.3025111524        9.0968738021       -3.0554915260    0   0   0
S             4.7268840634       10.0065452125       -4.6232380477    0   0   0
S             6.3024994256        9.0968439439       -7.6014065489    0   0   0
S             6.3024998793        9.0968450728      -10.7330757790    0   0   0
S             4.7268847312       10.0065459141       -1.4877283294    0   0   0
Mo            4.7269568048       10.0065717436        3.0610200965
Mo            6.3019163962        9.0965048678        9.1832764151
S             4.7262915342       10.0070741576        7.6146271598
S             6.3025316833        9.0968702786        4.6290720036
S             6.3025074076        9.0968568852        1.4932373292
S             4.7282271711       10.0073328422       10.7525215382
Au            1.5773946695        6.3679339975       12.7694006622
End final coordinates



     Writing all to output data dir ./outdir/pwscf.save/
 
     init_run     :    192.32s CPU    197.09s WALL (       1 calls)
     electrons    :  25348.98s CPU  25545.31s WALL (       1 calls)
     forces       :    130.75s CPU    134.42s WALL (       1 calls)
     force_dftd3  :      0.77s CPU      0.81s WALL (       1 calls)

     Called by init_run:
     wfcinit      :    165.68s CPU    167.76s WALL (       1 calls)
     potinit      :      1.52s CPU      2.10s WALL (       1 calls)
     hinit0       :     16.12s CPU     16.14s WALL (       1 calls)

     Called by electrons:
     c_bands      :  24077.44s CPU  24196.18s WALL (      17 calls)
     sum_band     :   1159.46s CPU   1200.47s WALL (      17 calls)
     v_of_rho     :      8.98s CPU      9.18s WALL (      18 calls)
     newd         :     86.20s CPU    124.18s WALL (      18 calls)
     PAW_pot      :     14.24s CPU     14.23s WALL (      18 calls)
     mix_rho      :      2.76s CPU      2.75s WALL (      17 calls)
     energy_dftd3 :      0.36s CPU      0.36s WALL (       1 calls)

     Called by c_bands:
     init_us_2    :     42.06s CPU     42.29s WALL (     144 calls)
     init_us_2:cp :     42.06s CPU     42.29s WALL (     144 calls)
     cegterg      :  23931.65s CPU  24047.78s WALL (     112 calls)

     Called by *egterg:
     cdiaghg      :   1349.19s CPU   1353.64s WALL (    1894 calls)
     h_psi        :  12464.03s CPU  12502.27s WALL (    1917 calls)
     s_psi        :   2610.39s CPU   2620.87s WALL (    1917 calls)
     g_psi        :     26.80s CPU     26.82s WALL (    1801 calls)

     Called by h_psi:
     h_psi:calbec :   2555.38s CPU   2555.89s WALL (    1917 calls)
     vloc_psi     :   7248.97s CPU   7261.21s WALL (    1917 calls)
     add_vuspsi   :   2625.54s CPU   2636.32s WALL (    1917 calls)

     General routines
     calbec       :   2979.79s CPU   2980.38s WALL (    2001 calls)
     fft          :      8.62s CPU      8.77s WALL (     243 calls)
     ffts         :      0.45s CPU      0.45s WALL (      35 calls)
     fftw         :   5386.09s CPU   5395.90s WALL ( 1039274 calls)
     interpolate  :      0.94s CPU      0.95s WALL (      18 calls)
 
     Parallel routines
 
     PWSCF        :      7h 8m CPU      7h12m WALL

 
   This run was terminated on:   2: 9:38  12Nov2023            

=------------------------------------------------------------------------------=
   JOB DONE.
=------------------------------------------------------------------------------=
Application 11391566 resources: utime ~925953s, stime ~7574s, Rss ~3551832, inblocks ~0, outblocks ~50060336
