
     Program PWSCF v.7.3 starts on 16Mar2024 at  4: 7:47 

     This program is part of the open-source Quantum ESPRESSO suite
     for quantum simulation of materials; please cite
         "P. Giannozzi et al., J. Phys.:Condens. Matter 21 395502 (2009);
         "P. Giannozzi et al., J. Phys.:Condens. Matter 29 465901 (2017);
         "P. Giannozzi et al., J. Chem. Phys. 152 154105 (2020);
          URL http://www.quantum-espresso.org", 
     in publications or presentations arising from this work. More details at
     http://www.quantum-espresso.org/quote

     Parallel version (MPI & OpenMP), running on      36 processor cores
     Number of MPI processes:                36
     Threads/MPI process:                     1

     MPI processes distributed on     1 nodes
     543320 MiB available memory on the printing compute node when the environment starts
 
     Waiting for input...
     Reading input from standard input
Warning: card &CELL ignored
Warning: card / ignored

     Current dimensions of program PWSCF are:
     Max number of different atomic species (ntypx) = 10
     Max number of k-points (npk) =  40000
     Max angular momentum in pseudopotentials (lmaxx) =  4
     file Mo.pbe-spn-kjpaw_psl.1.0.0.UPF: wavefunction(s)  4S 4D renormalized
     file S.pbe-n-kjpaw_psl.1.0.0.UPF: wavefunction(s)  3S 3P renormalized
     file Pd.pbe-spn-kjpaw_psl.1.0.0.UPF: wavefunction(s)  4S 5S 4D renormalized
     file Pt.pbe-spfn-kjpaw_psl.1.0.0.UPF: wavefunction(s)  5P 4F renormalized
 
     R & G space division:  proc/nbgrp/npool/nimage =      36
     Subspace diagonalization in iterative solution of the eigenvalue problem:
     one sub-group per band group will be used
     scalapack distributed-memory algorithm (size of sub-group:  6*  6 procs)

 
     Parallelization info
     --------------------
     sticks:   dense  smooth     PW     G-vecs:    dense   smooth      PW
     Min         585     334     89               198743    85850   11735
     Max         586     335     90               198750    85861   11748
     Sum       21073   12049   3205              7154885  3090769  422587
 
     Using Slab Decomposition
 


     bravais-lattice index     =            0
     lattice parameter (alat)  =      23.8199  a.u.
     unit-cell volume          =   33861.0370 (a.u.)^3
     number of atoms/cell      =          194
     number of atomic types    =            4
     number of electrons       =      1714.00
     number of Kohn-Sham states=         1028
     kinetic-energy cutoff     =      77.0000  Ry
     charge density cutoff     =     539.0000  Ry
     scf convergence threshold =      1.0E-06
     mixing beta               =       0.2000
     number of iterations used =            8  plain     mixing
     energy convergence thresh.=      1.0E-04
     force convergence thresh. =      1.0E-03
     Exchange-correlation= SLA  PW   PBX  PBC
                           (   1   4   3   4   0   0   0)
     nstep                     =         1000


     Effective Screening Medium Method
     =================================
     Boundary Conditions: Vacuum-Slab-Vacuum
     total charge in unit cell        =   0.0000
     grid points for fit at edges     =        4 
 

     celldm(1)=  23.819920  celldm(2)=   0.000000  celldm(3)=   0.000000
     celldm(4)=   0.000000  celldm(5)=   0.000000  celldm(6)=   0.000000

     crystal axes: (cart. coord. in units of alat)
               a(1) = (   1.000000   0.000000   0.000000 )  
               a(2) = (  -0.499999   0.866026   0.000000 )  
               a(3) = (   0.000000   0.000000   2.893000 )  

     reciprocal axes: (cart. coord. in units 2 pi/alat)
               b(1) = (  1.000000  0.577349  0.000000 )  
               b(2) = (  0.000000  1.154700  0.000000 )  
               b(3) = (  0.000000  0.000000  0.345662 )  


     PseudoPot. # 1 for Mo read from file:
     ./pseudo/Mo.pbe-spn-kjpaw_psl.1.0.0.UPF
     MD5 check sum: 317bf72632116215fd98f72de1686f13
     Pseudo is Projector augmented-wave + core cor, Zval = 14.0
     Generated using 'atomic' code by A. Dal Corso  v.7.2
     Shape of augmentation charge: PSQ
     Using radial grid of 1229 points,  6 beta functions with: 
                l(1) =   0
                l(2) =   0
                l(3) =   1
                l(4) =   1
                l(5) =   2
                l(6) =   2
     Q(r) pseudized with 0 coefficients 


     PseudoPot. # 2 for S  read from file:
     ./pseudo/S.pbe-n-kjpaw_psl.1.0.0.UPF
     MD5 check sum: 8b7b5302570d38d5e87fed6a1065abda
     Pseudo is Projector augmented-wave + core cor, Zval =  6.0
     Generated using 'atomic' code by A. Dal Corso  v.7.2
     Shape of augmentation charge: PSQ
     Using radial grid of 1151 points,  6 beta functions with: 
                l(1) =   0
                l(2) =   0
                l(3) =   1
                l(4) =   1
                l(5) =   2
                l(6) =   2
     Q(r) pseudized with 0 coefficients 


     PseudoPot. # 3 for Pd read from file:
     ./pseudo/Pd.pbe-spn-kjpaw_psl.1.0.0.UPF
     MD5 check sum: a60571a671f2502b8a6a4569d20a6edb
     Pseudo is Projector augmented-wave + core cor, Zval = 18.0
     Generated using 'atomic' code by A. Dal Corso  v.7.2
     Shape of augmentation charge: PSQ
     Using radial grid of 1235 points,  6 beta functions with: 
                l(1) =   0
                l(2) =   0
                l(3) =   1
                l(4) =   1
                l(5) =   2
                l(6) =   2
     Q(r) pseudized with 0 coefficients 


     PseudoPot. # 4 for Pt read from file:
     ./pseudo/Pt.pbe-spfn-kjpaw_psl.1.0.0.UPF
     MD5 check sum: 620096ebf4e6ebacc94de60fd67efcb5
     Pseudo is Projector augmented-wave + core cor, Zval = 32.0
     Generated using 'atomic' code by A. Dal Corso  v.7.2
     Shape of augmentation charge: PSQ
     Using radial grid of 1277 points,  8 beta functions with: 
                l(1) =   0
                l(2) =   0
                l(3) =   1
                l(4) =   1
                l(5) =   2
                l(6) =   2
                l(7) =   3
                l(8) =   3
     Q(r) pseudized with 0 coefficients 


     atomic species   valence    mass     pseudopotential
     Mo               14.00    95.95000     Mo( 1.00)
     S                 6.00    32.06000     S ( 1.00)
     Pd               18.00   106.42000     Pd( 1.00)
     Pt               32.00   195.08400     Pt( 1.00)

     No symmetry found



   Cartesian axes

     site n.     atom                  positions (alat units)
         1        Mo     tau(   1) = (   0.0000010   0.1443372  -0.7272732  )
         2        Mo     tau(   2) = (   0.1249995   0.0721706  -0.2424038  )
         3        S      tau(   3) = (   0.0000015   0.1443386  -0.3667807  )
         4        S      tau(   4) = (   0.1250010   0.0721682  -0.6030489  )
         5        S      tau(   5) = (   0.1250010   0.0721683  -0.8514963  )
         6        S      tau(   6) = (   0.0000015   0.1443389  -0.1180260  )
         7        Mo     tau(   7) = (   0.0000007   0.1443589   0.2424205  )
         8        Mo     tau(   8) = (   0.1250041   0.0720322   0.7266168  )
         9        S      tau(   9) = (   0.0000742   0.1444871   0.6020949  )
        10        S      tau(  10) = (   0.1250024   0.0721701   0.3667478  )
        11        S      tau(  11) = (   0.1250035   0.0721876   0.1180348  )
        12        S      tau(  12) = (  -0.0004118   0.1430864   0.8514340  )
        13        Mo     tau(  13) = (  -0.1249989   0.3608437  -0.7272732  )
        14        Mo     tau(  14) = (   0.0000030   0.2886752  -0.2424042  )
        15        S      tau(  15) = (  -0.1249977   0.3608450  -0.3667802  )
        16        S      tau(  16) = (   0.0000012   0.2886747  -0.6030489  )
        17        S      tau(  17) = (   0.0000012   0.2886748  -0.8514963  )
        18        S      tau(  18) = (  -0.1249977   0.3608454  -0.1180274  )
        19        Mo     tau(  19) = (  -0.1249729   0.3608584   0.2424608  )
        20        Mo     tau(  20) = (  -0.0007193   0.2876626   0.7275440  )
        21        S      tau(  21) = (  -0.1251115   0.3607789   0.6027257  )
        22        S      tau(  22) = (   0.0000621   0.2887099   0.3668377  )
        23        S      tau(  23) = (  -0.0000096   0.2886902   0.1180527  )
        24        S      tau(  24) = (  -0.1254673   0.3605734   0.8517408  )
        25        Mo     tau(  25) = (  -0.2499987   0.5773502  -0.7272732  )
        26        Mo     tau(  26) = (  -0.1249977   0.5051839  -0.2424055  )
        27        S      tau(  27) = (  -0.2499981   0.5773518  -0.3667809  )
        28        S      tau(  28) = (  -0.1249986   0.5051812  -0.6030489  )
        29        S      tau(  29) = (  -0.1249986   0.5051813  -0.8514963  )
        30        S      tau(  30) = (  -0.2499979   0.5773512  -0.1180266  )
        31        Mo     tau(  31) = (  -0.2499795   0.5773389   0.2424205  )
        32        Mo     tau(  32) = (  -0.1262356   0.5050639   0.7275441  )
        33        S      tau(  33) = (  -0.2498323   0.5773390   0.6020948  )
        34        S      tau(  34) = (  -0.1249376   0.5052159   0.3668377  )
        35        S      tau(  35) = (  -0.1249905   0.5051638   0.1180531  )
        36        S      tau(  36) = (  -0.2512883   0.5776183   0.8514340  )
        37        Mo     tau(  37) = (  -0.3749985   0.7938567  -0.7272732  )
        38        Mo     tau(  38) = (  -0.2500001   0.7216874  -0.2424031  )
        39        S      tau(  39) = (  -0.3749980   0.7938584  -0.3667800  )
        40        S      tau(  40) = (  -0.2499984   0.7216877  -0.6030489  )
        41        S      tau(  41) = (  -0.2499984   0.7216878  -0.8514963  )
        42        S      tau(  42) = (  -0.3749982   0.7938585  -0.1180264  )
        43        Mo     tau(  43) = (  -0.3749962   0.7938568   0.2423838  )
        44        Mo     tau(  44) = (  -0.2501148   0.7217588   0.7266170  )
        45        S      tau(  45) = (  -0.3749945   0.7938590   0.6021274  )
        46        S      tau(  46) = (  -0.2499958   0.7216877   0.3667488  )
        47        S      tau(  47) = (  -0.2499810   0.7216794   0.1180323  )
        48        S      tau(  48) = (  -0.3749953   0.7938585   0.8511588  )
        49        Mo     tau(  49) = (   0.2500010   0.1443372  -0.7272732  )
        50        Mo     tau(  50) = (   0.3750034   0.0721723  -0.2424032  )
        51        S      tau(  51) = (   0.2500017   0.1443391  -0.3667788  )
        52        S      tau(  52) = (   0.3750010   0.0721682  -0.6030489  )
        53        S      tau(  53) = (   0.3750010   0.0721683  -0.8514963  )
        54        S      tau(  54) = (   0.2500016   0.1443391  -0.1180271  )
        55        Mo     tau(  55) = (   0.2500054   0.1443594   0.2424211  )
        56        Mo     tau(  56) = (   0.3749279   0.0721263   0.7263991  )
        57        S      tau(  57) = (   0.2499344   0.1444864   0.6020948  )
        58        S      tau(  58) = (   0.3750316   0.0721860   0.3667597  )
        59        S      tau(  59) = (   0.3749924   0.0721644   0.1180346  )
        60        S      tau(  60) = (   0.2504199   0.1430865   0.8514340  )
        61        Mo     tau(  61) = (   0.1250012   0.3608437  -0.7272732  )
        62        Mo     tau(  62) = (   0.2500029   0.2886782  -0.2424031  )
        63        S      tau(  63) = (   0.1250024   0.3608455  -0.3667794  )
        64        S      tau(  64) = (   0.2500012   0.2886747  -0.6030489  )
        65        S      tau(  65) = (   0.2500012   0.2886748  -0.8514963  )
        66        S      tau(  66) = (   0.1250021   0.3608455  -0.1180270  )
        67        Mo     tau(  67) = (   0.1250038   0.3608653   0.2423963  )
        68        Mo     tau(  68) = (   0.2507284   0.2876625   0.7275438  )
        69        S      tau(  69) = (   0.1250046   0.3627170   0.6061948  )
        70        S      tau(  70) = (   0.2499461   0.2887116   0.3668373  )
        71        S      tau(  71) = (   0.2500171   0.2886900   0.1180543  )
        72        S      tau(  72) = (   0.1250046   0.3519103   0.8557806  )
        73        Mo     tau(  73) = (   0.0000014   0.5773502  -0.7272732  )
        74        Mo     tau(  74) = (   0.1250045   0.5051840  -0.2424036  )
        75        S      tau(  75) = (   0.0000030   0.5773520  -0.3667799  )
        76        S      tau(  76) = (   0.1250014   0.5051812  -0.6030489  )
        77        S      tau(  77) = (   0.1250014   0.5051813  -0.8514963  )
        78        S      tau(  78) = (   0.0000026   0.5773517  -0.1180274  )
        79        Mo     tau(  79) = (   0.0000222   0.5773400   0.2423964  )
        80        Mo     tau(  80) = (   0.1250047   0.5051836   0.7321380  )
        81        S      tau(  81) = (   0.0016251   0.5764170   0.6061946  )
        82        S      tau(  82) = (   0.1250047   0.5051815   0.3667777  )
        83        S      tau(  83) = (   0.1250048   0.5051819   0.1179962  )
        84        S      tau(  84) = (  -0.0077335   0.5818202   0.8557807  )
        85        Mo     tau(  85) = (  -0.1249984   0.7938567  -0.7272732  )
        86        Mo     tau(  86) = (   0.0000069   0.7216896  -0.2424039  )
        87        S      tau(  87) = (  -0.1249975   0.7938582  -0.3667782  )
        88        S      tau(  88) = (   0.0000016   0.7216877  -0.6030489  )
        89        S      tau(  89) = (   0.0000016   0.7216878  -0.8514963  )
        90        S      tau(  90) = (  -0.1249973   0.7938582  -0.1180279  )
        91        Mo     tau(  91) = (  -0.1249774   0.7938494   0.2424207  )
        92        Mo     tau(  92) = (  -0.0005116   0.7228241   0.7275438  )
        93        S      tau(  93) = (  -0.1249026   0.7937246   0.6020948  )
        94        S      tau(  94) = (   0.0000043   0.7216209   0.3668361  )
        95        S      tau(  95) = (   0.0000226   0.7216928   0.1180549  )
        96        S      tau(  96) = (  -0.1258721   0.7948451   0.8514341  )
        97        Mo     tau(  97) = (   0.5000010   0.1443372  -0.7272732  )
        98        Mo     tau(  98) = (   0.6250001   0.0721662  -0.2424040  )
        99        S      tau(  99) = (   0.5000017   0.1443386  -0.3667801  )
       100        S      tau( 100) = (   0.6250010   0.0721682  -0.6030489  )
       101        S      tau( 101) = (   0.6250010   0.0721683  -0.8514963  )
       102        S      tau( 102) = (   0.5000020   0.1443388  -0.1180261  )
       103        Mo     tau( 103) = (   0.5000075   0.1443411   0.2423793  )
       104        Mo     tau( 104) = (   0.6250042   0.0723339   0.7270464  )
       105        S      tau( 105) = (   0.5002366   0.1444733   0.6023595  )
       106        S      tau( 106) = (   0.6250029   0.0721787   0.3667562  )
       107        S      tau( 107) = (   0.6250040   0.0721260   0.1180315  )
       108        S      tau( 108) = (   0.4998752   0.1442648   0.8512770  )
       109        Mo     tau( 109) = (   0.3750012   0.3608437  -0.7272732  )
       110        Mo     tau( 110) = (   0.4999991   0.2886761  -0.2424038  )
       111        S      tau( 111) = (   0.3750012   0.3608452  -0.3667804  )
       112        S      tau( 112) = (   0.5000012   0.2886747  -0.6030489  )
       113        S      tau( 113) = (   0.5000012   0.2886748  -0.8514963  )
       114        S      tau( 114) = (   0.3750014   0.3608455  -0.1180261  )
       115        Mo     tau( 115) = (   0.3749795   0.3608597   0.2424601  )
       116        Mo     tau( 116) = (   0.5001461   0.2885951   0.7270464  )
       117        S      tau( 117) = (   0.3751205   0.3607791   0.6027254  )
       118        S      tau( 118) = (   0.5000105   0.2886721   0.3667569  )
       119        S      tau( 119) = (   0.4999655   0.2886989   0.1180297  )
       120        S      tau( 120) = (   0.3754765   0.3605739   0.8517402  )
       121        Mo     tau( 121) = (   0.2500014   0.5773502  -0.7272732  )
       122        Mo     tau( 122) = (   0.3749983   0.5051825  -0.2424043  )
       123        S      tau( 123) = (   0.2500017   0.5773519  -0.3667810  )
       124        S      tau( 124) = (   0.3750014   0.5051812  -0.6030489  )
       125        S      tau( 125) = (   0.3750014   0.5051813  -0.8514963  )
       126        S      tau( 126) = (   0.2500018   0.5773519  -0.1180256  )
       127        Mo     tau( 127) = (   0.2499863   0.5773402   0.2423965  )
       128        Mo     tau( 128) = (   0.3762454   0.5050642   0.7275433  )
       129        S      tau( 129) = (   0.2483844   0.5764169   0.6061944  )
       130        S      tau( 130) = (   0.3749442   0.5052158   0.3668400  )
       131        S      tau( 131) = (   0.3749972   0.5051650   0.1180510  )
       132        S      tau( 132) = (   0.2577438   0.5818204   0.8557797  )
       133        Mo     tau( 133) = (   0.1250016   0.7938567  -0.7272732  )
       134        Mo     tau( 134) = (   0.2499995   0.7216883  -0.2424036  )
       135        S      tau( 135) = (   0.1250024   0.7938578  -0.3667813  )
       136        S      tau( 136) = (   0.2500016   0.7216877  -0.6030489  )
       137        S      tau( 137) = (   0.2500016   0.7216878  -0.8514963  )
       138        S      tau( 138) = (   0.1250024   0.7938579  -0.1180253  )
       139        Mo     tau( 139) = (   0.1250047   0.7938294   0.2424606  )
       140        Mo     tau( 140) = (   0.2505220   0.7228241   0.7275433  )
       141        S      tau( 141) = (   0.1250053   0.7939926   0.6027252  )
       142        S      tau( 142) = (   0.2500048   0.7216200   0.3668387  )
       143        S      tau( 143) = (   0.2499864   0.7216915   0.1180524  )
       144        S      tau( 144) = (   0.1250054   0.7944033   0.8517402  )
       145        Mo     tau( 145) = (   0.7500010   0.1443372  -0.7272732  )
       146        Mo     tau( 146) = (   0.8750038   0.0721696  -0.2424038  )
       147        S      tau( 147) = (   0.7500016   0.1443382  -0.3667789  )
       148        S      tau( 148) = (   0.8750010   0.0721682  -0.6030489  )
       149        S      tau( 149) = (   0.8750010   0.0721683  -0.8514963  )
       150        S      tau( 150) = (   0.7500016   0.1443384  -0.1180279  )
       151        Mo     tau( 151) = (   0.7499986   0.1443409   0.2423802  )
       152        Mo     tau( 152) = (   0.8750804   0.0721266   0.7263988  )
       153        S      tau( 153) = (   0.7497713   0.1444738   0.6023592  )
       154        S      tau( 154) = (   0.8749758   0.0721848   0.3667595  )
       155        S      tau( 155) = (   0.8750127   0.0721632   0.1180342  )
       156        S      tau( 156) = (   0.7501331   0.1442647   0.8512770  )
       157        Mo     tau( 157) = (   0.6250012   0.3608437  -0.7272732  )
       158        Mo     tau( 158) = (   0.7500028   0.2886769  -0.2424041  )
       159        S      tau( 159) = (   0.6250015   0.3608451  -0.3667792  )
       160        S      tau( 160) = (   0.7500012   0.2886747  -0.6030489  )
       161        S      tau( 161) = (   0.7500012   0.2886748  -0.8514963  )
       162        S      tau( 162) = (   0.6250016   0.3608454  -0.1180280  )
       163        Mo     tau( 163) = (   0.6250032   0.3608391   0.2423797  )
       164        Mo     tau( 164) = (   0.7498627   0.2885951   0.7270467  )
       165        S      tau( 165) = (   0.6250046   0.3605769   0.6023590  )
       166        S      tau( 166) = (   0.7499943   0.2886711   0.3667569  )
       167        S      tau( 167) = (   0.7500399   0.2886970   0.1180318  )
       168        S      tau( 168) = (   0.6250043   0.3609947   0.8512770  )
       169        Mo     tau( 169) = (   0.5000014   0.5773502  -0.7272732  )
       170        Mo     tau( 170) = (   0.6250029   0.5051841  -0.2424047  )
       171        S      tau( 171) = (   0.5000014   0.5773518  -0.3667794  )
       172        S      tau( 172) = (   0.6250014   0.5051812  -0.6030489  )
       173        S      tau( 173) = (   0.6250014   0.5051813  -0.8514963  )
       174        S      tau( 174) = (   0.5000016   0.5773516  -0.1180277  )
       175        Mo     tau( 175) = (   0.4999855   0.5773383   0.2424207  )
       176        Mo     tau( 176) = (   0.6250049   0.5052713   0.7263986  )
       177        S      tau( 177) = (   0.4998428   0.5773389   0.6020941  )
       178        S      tau( 178) = (   0.6250030   0.5051500   0.3667588  )
       179        S      tau( 179) = (   0.6250025   0.5051935   0.1180351  )
       180        S      tau( 180) = (   0.5012979   0.5776190   0.8514332  )
       181        Mo     tau( 181) = (   0.3750016   0.7938567  -0.7272732  )
       182        Mo     tau( 182) = (   0.5000025   0.7216901  -0.2424039  )
       183        S      tau( 183) = (   0.3750019   0.7938578  -0.3667793  )
       184        S      tau( 184) = (   0.5000016   0.7216877  -0.6030489  )
       185        S      tau( 185) = (   0.5000016   0.7216878  -0.8514963  )
       186        S      tau( 186) = (   0.3750020   0.7938579  -0.1180272  )
       187        Mo     tau( 187) = (   0.3749848   0.7938487   0.2424206  )
       188        Mo     tau( 188) = (   0.5001249   0.7217591   0.7266160  )
       189        S      tau( 189) = (   0.3749125   0.7937251   0.6020942  )
       190        S      tau( 190) = (   0.5000021   0.7216868   0.3667472  )
       191        S      tau( 191) = (   0.4999874   0.7216780   0.1180346  )
       192        S      tau( 192) = (   0.3758826   0.7948451   0.8514332  )
       193        Pd     tau( 193) = (   0.1250063   0.5051842   0.9601361  )
       194        Pt     tau( 194) = (   0.3749318   0.0721145   0.9704117  )

     --------------------------------------------
     DFT-D3 Dispersion Correction (3-body terms):
     --------------------------------------------
       Reference C6 values for interpolation: 

         atom   Coordination number   C6
         S          0.000           268.01
         S          0.995           261.99
         S          1.990           251.62
         Mo         0.000          1691.79
         Mo         1.942          1004.01
         Mo        11.056           674.22
         Pd         0.000          1217.01
         Pd         1.863           573.90
         Pd         5.710           531.75
         Pt         0.000           782.29
         Pt         1.919           692.72
         Pt         6.667           673.75

       Values used:

         atom   Coordination number  R0_AB[au]  C6      C8
         Mo        10.208            3.547    674.22  77634.20
         Mo        10.221            3.547    674.22  77634.20
         S          3.858            3.128    251.62  12327.25
         S          3.859            3.128    251.62  12327.25
         S          3.758            3.128    251.62  12327.25
         S          3.859            3.128    251.62  12327.25
         Mo        10.220            3.547    674.22  77634.20
         Mo        10.244            3.547    674.22  77634.20
         S          3.847            3.128    251.62  12327.25
         S          3.861            3.128    251.62  12327.25
         S          3.859            3.128    251.62  12327.25
         S          3.806            3.128    251.62  12327.25
         Mo        10.208            3.547    674.22  77634.20
         Mo        10.221            3.547    674.22  77634.20
         S          3.858            3.128    251.62  12327.25
         S          3.859            3.128    251.62  12327.25
         S          3.758            3.128    251.62  12327.25
         S          3.859            3.128    251.62  12327.25
         Mo        10.221            3.547    674.22  77634.20
         Mo        10.191            3.547    674.22  77634.20
         S          3.855            3.128    251.62  12327.25
         S          3.856            3.128    251.62  12327.25
         S          3.859            3.128    251.62  12327.25
         S          3.756            3.128    251.62  12327.25
         Mo        10.208            3.547    674.22  77634.20
         Mo        10.221            3.547    674.22  77634.20
         S          3.858            3.128    251.62  12327.25
         S          3.859            3.128    251.62  12327.25
         S          3.758            3.128    251.62  12327.25
         S          3.859            3.128    251.62  12327.25
         Mo        10.220            3.547    674.22  77634.20
         Mo        10.191            3.547    674.22  77634.20
         S          3.847            3.128    251.62  12327.25
         S          3.856            3.128    251.62  12327.25
         S          3.859            3.128    251.62  12327.25
         S          3.806            3.128    251.62  12327.25
         Mo        10.208            3.547    674.22  77634.20
         Mo        10.221            3.547    674.22  77634.20
         S          3.858            3.128    251.62  12327.25
         S          3.859            3.128    251.62  12327.25
         S          3.758            3.128    251.62  12327.25
         S          3.859            3.128    251.62  12327.25
         Mo        10.219            3.547    674.22  77634.20
         Mo        10.244            3.547    674.22  77634.20
         S          3.856            3.128    251.62  12327.25
         S          3.861            3.128    251.62  12327.25
         S          3.859            3.128    251.62  12327.25
         S          3.794            3.128    251.62  12327.25
         Mo        10.208            3.547    674.22  77634.20
         Mo        10.221            3.547    674.22  77634.20
         S          3.858            3.128    251.62  12327.25
         S          3.859            3.128    251.62  12327.25
         S          3.758            3.128    251.62  12327.25
         S          3.859            3.128    251.62  12327.25
         Mo        10.220            3.547    674.21  77634.20
         Mo        10.835            3.547    674.22  77634.20
         S          3.848            3.128    251.62  12327.25
         S          3.860            3.128    251.62  12327.25
         S          3.859            3.128    251.62  12327.25
         S          4.774            3.128    251.62  12327.25
         Mo        10.208            3.547    674.22  77634.20
         Mo        10.221            3.547    674.22  77634.20
         S          3.858            3.128    251.62  12327.25
         S          3.859            3.128    251.62  12327.25
         S          3.758            3.128    251.62  12327.25
         S          3.859            3.128    251.62  12327.25
         Mo        10.222            3.547    674.22  77634.20
         Mo        10.202            3.547    674.22  77634.20
         S          3.865            3.128    251.62  12327.25
         S          3.856            3.128    251.62  12327.25
         S          3.859            3.128    251.62  12327.25
         S          4.654            3.128    251.62  12327.25
         Mo        10.208            3.547    674.22  77634.20
         Mo        10.221            3.547    674.22  77634.20
         S          3.858            3.128    251.62  12327.25
         S          3.859            3.128    251.62  12327.25
         S          3.758            3.128    251.62  12327.25
         S          3.859            3.128    251.62  12327.25
         Mo        10.222            3.547    674.22  77634.20
         Mo        10.821            3.547    674.22  77634.20
         S          3.865            3.128    251.62  12327.25
         S          3.853            3.128    251.62  12327.25
         S          3.859            3.128    251.62  12327.25
         S          4.654            3.128    251.62  12327.25
         Mo        10.208            3.547    674.22  77634.20
         Mo        10.221            3.547    674.22  77634.20
         S          3.858            3.128    251.62  12327.25
         S          3.859            3.128    251.62  12327.25
         S          3.758            3.128    251.62  12327.25
         S          3.859            3.128    251.62  12327.25
         Mo        10.220            3.547    674.22  77634.20
         Mo        10.202            3.547    674.22  77634.20
         S          3.848            3.128    251.62  12327.25
         S          3.856            3.128    251.62  12327.25
         S          3.859            3.128    251.62  12327.25
         S          4.774            3.128    251.62  12327.25
         Mo        10.208            3.547    674.22  77634.20
         Mo        10.221            3.547    674.22  77634.20
         S          3.858            3.128    251.62  12327.25
         S          3.859            3.128    251.62  12327.25
         S          3.758            3.128    251.62  12327.25
         S          3.859            3.128    251.62  12327.25
         Mo        10.220            3.547    674.22  77634.20
         Mo        10.240            3.547    674.22  77634.20
         S          3.863            3.128    251.62  12327.25
         S          3.860            3.128    251.62  12327.25
         S          3.859            3.128    251.62  12327.25
         S          4.731            3.128    251.62  12327.25
         Mo        10.208            3.547    674.21  77634.20
         Mo        10.221            3.547    674.22  77634.20
         S          3.858            3.128    251.62  12327.25
         S          3.859            3.128    251.62  12327.25
         S          3.758            3.128    251.62  12327.25
         S          3.859            3.128    251.62  12327.25
         Mo        10.221            3.547    674.22  77634.20
         Mo        10.240            3.547    674.22  77634.20
         S          3.855            3.128    251.62  12327.25
         S          3.860            3.128    251.62  12327.25
         S          3.859            3.128    251.62  12327.25
         S          3.769            3.128    251.62  12327.25
         Mo        10.208            3.547    674.22  77634.20
         Mo        10.221            3.547    674.22  77634.20
         S          3.858            3.128    251.62  12327.25
         S          3.859            3.128    251.62  12327.25
         S          3.758            3.128    251.62  12327.25
         S          3.859            3.128    251.62  12327.25
         Mo        10.222            3.547    674.22  77634.20
         Mo        10.191            3.547    674.22  77634.20
         S          3.865            3.128    251.62  12327.25
         S          3.856            3.128    251.62  12327.25
         S          3.859            3.128    251.62  12327.25
         S          4.653            3.128    251.62  12327.25
         Mo        10.208            3.547    674.22  77634.20
         Mo        10.221            3.547    674.22  77634.20
         S          3.858            3.128    251.62  12327.25
         S          3.859            3.128    251.62  12327.25
         S          3.758            3.128    251.62  12327.25
         S          3.859            3.128    251.62  12327.25
         Mo        10.221            3.547    674.22  77634.20
         Mo        10.191            3.547    674.22  77634.20
         S          3.855            3.128    251.62  12327.25
         S          3.856            3.128    251.62  12327.25
         S          3.859            3.128    251.62  12327.25
         S          3.769            3.128    251.62  12327.25
         Mo        10.208            3.547    674.22  77634.20
         Mo        10.221            3.547    674.22  77634.20
         S          3.858            3.128    251.62  12327.25
         S          3.859            3.128    251.62  12327.25
         S          3.758            3.128    251.62  12327.25
         S          3.859            3.128    251.62  12327.25
         Mo        10.220            3.547    674.22  77634.20
         Mo        10.244            3.547    674.22  77634.20
         S          3.862            3.128    251.62  12327.25
         S          3.860            3.128    251.62  12327.25
         S          3.859            3.128    251.62  12327.25
         S          3.766            3.128    251.62  12327.25
         Mo        10.208            3.547    674.22  77634.20
         Mo        10.220            3.547    674.22  77634.20
         S          3.858            3.128    251.62  12327.25
         S          3.859            3.128    251.62  12327.25
         S          3.758            3.128    251.62  12327.25
         S          3.859            3.128    251.62  12327.25
         Mo        10.220            3.547    674.22  77634.20
         Mo        10.230            3.547    674.22  77634.20
         S          3.862            3.128    251.62  12327.25
         S          3.860            3.128    251.62  12327.25
         S          3.859            3.128    251.62  12327.25
         S          3.766            3.128    251.62  12327.25
         Mo        10.208            3.547    674.22  77634.20
         Mo        10.221            3.547    674.22  77634.20
         S          3.858            3.128    251.62  12327.25
         S          3.859            3.128    251.62  12327.25
         S          3.758            3.128    251.62  12327.25
         S          3.859            3.128    251.62  12327.25
         Mo        10.220            3.547    674.22  77634.20
         Mo        10.244            3.547    674.22  77634.20
         S          3.847            3.128    251.62  12327.25
         S          3.860            3.128    251.62  12327.25
         S          3.859            3.128    251.62  12327.25
         S          3.805            3.128    251.62  12327.25
         Mo        10.208            3.547    674.22  77634.20
         Mo        10.221            3.547    674.22  77634.20
         S          3.858            3.128    251.62  12327.25
         S          3.859            3.128    251.62  12327.25
         S          3.758            3.128    251.62  12327.25
         S          3.859            3.128    251.62  12327.25
         Mo        10.220            3.547    674.22  77634.20
         Mo        10.234            3.547    674.22  77634.20
         S          3.847            3.128    251.62  12327.25
         S          3.861            3.128    251.62  12327.25
         S          3.859            3.128    251.62  12327.25
         S          3.805            3.128    251.62  12327.25
         Pd         3.767            3.168    558.55  51175.93
         Pt         3.615            3.168    692.72  72035.25

         Molecular C6 ( Ry / a.u.^6 ) =  13983856.87


     number of k points=     4  Gaussian smearing, width (Ry)=  0.0100
                       cart. coord. in units 2pi/alat
        k(    1) = (   0.0000000   0.0000000   0.0000000), wk =   0.5000000
        k(    2) = (   0.0000000  -0.5773499   0.0000000), wk =   0.5000000
        k(    3) = (  -0.5000000  -0.2886744   0.0000000), wk =   0.5000000
        k(    4) = (  -0.5000000  -0.8660242   0.0000000), wk =   0.5000000

     Dense  grid:  7154885 G-vectors     FFT dimensions: ( 180, 180, 512)

     Smooth grid:  3090769 G-vectors     FFT dimensions: ( 135, 135, 400)

     Estimated max dynamical RAM per process >       4.31 GB

     Estimated total dynamical RAM >     155.10 GB

     Initial potential from superposition of free atoms

     starting charge    1713.9389, renormalised to    1714.0000

     negative rho (up, down):  8.698E-04 0.000E+00
     Starting wfcs are 1179 randomized atomic wfcs
     Checking if some PAW data can be deallocated... 

     total cpu time spent up to now is      181.4 secs

     Self-consistent Calculation

     iteration #  1     ecut=    77.00 Ry     beta= 0.20
     Davidson diagonalization with overlap
     ethr =  1.00E-02,  avg # of iterations =  2.0

     Threshold (ethr) on eigenvalues was too large:
     Diagonalizing with lowered threshold

     Davidson diagonalization with overlap
     ethr =  1.64E-04,  avg # of iterations = 17.2

     negative rho (up, down):  2.355E-04 0.000E+00

     total cpu time spent up to now is     2249.0 secs

     total energy              =  -33980.23499655 Ry
     estimated scf accuracy    <       6.49792113 Ry

     iteration #  2     ecut=    77.00 Ry     beta= 0.20
     Davidson diagonalization with overlap
     ethr =  3.79E-04,  avg # of iterations =  2.0

     negative rho (up, down):  2.436E-05 0.000E+00

     total cpu time spent up to now is     2659.7 secs

     total energy              =  -33978.87675296 Ry
     estimated scf accuracy    <       3.40434271 Ry

     iteration #  3     ecut=    77.00 Ry     beta= 0.20
     Davidson diagonalization with overlap
     ethr =  1.99E-04,  avg # of iterations = 13.0

     negative rho (up, down):  1.598E-05 0.000E+00

     total cpu time spent up to now is     3194.9 secs

     total energy              =  -33979.27935835 Ry
     estimated scf accuracy    <       0.85414287 Ry

     iteration #  4     ecut=    77.00 Ry     beta= 0.20
     Davidson diagonalization with overlap
     c_bands:  2 eigenvalues not converged
     c_bands:  1 eigenvalues not converged
     c_bands:  4 eigenvalues not converged
     c_bands:  1 eigenvalues not converged
     ethr =  4.98E-05,  avg # of iterations = 20.0

     negative rho (up, down):  1.861E-05 0.000E+00

     total cpu time spent up to now is     4434.0 secs

     total energy              =  -33980.07809953 Ry
     estimated scf accuracy    <       0.37943617 Ry

     iteration #  5     ecut=    77.00 Ry     beta= 0.20
     Davidson diagonalization with overlap
     ethr =  2.21E-05,  avg # of iterations = 14.5

     negative rho (up, down):  4.479E-05 0.000E+00

     total cpu time spent up to now is     5103.8 secs

     total energy              =  -33980.16608902 Ry
     estimated scf accuracy    <       0.21310915 Ry

     iteration #  6     ecut=    77.00 Ry     beta= 0.20
     Davidson diagonalization with overlap
     ethr =  1.24E-05,  avg # of iterations = 11.2

     negative rho (up, down):  2.451E-04 0.000E+00

     total cpu time spent up to now is     5601.7 secs

     total energy              =  -33980.15255978 Ry
     estimated scf accuracy    <       0.12553889 Ry

     iteration #  7     ecut=    77.00 Ry     beta= 0.20
     Davidson diagonalization with overlap
     c_bands:  1 eigenvalues not converged
     c_bands:  2 eigenvalues not converged
     c_bands:  1 eigenvalues not converged
     ethr =  7.32E-06,  avg # of iterations = 18.5

     negative rho (up, down):  5.643E-04 0.000E+00

     total cpu time spent up to now is     6435.9 secs

     total energy              =  -33980.22710738 Ry
     estimated scf accuracy    <       0.07298896 Ry

     iteration #  8     ecut=    77.00 Ry     beta= 0.20
     Davidson diagonalization with overlap
     c_bands:  3 eigenvalues not converged
     ethr =  4.26E-06,  avg # of iterations = 28.8

     negative rho (up, down):  4.446E-04 0.000E+00

     total cpu time spent up to now is     7343.2 secs

     total energy              =  -33980.22626144 Ry
     estimated scf accuracy    <       0.04031648 Ry

     iteration #  9     ecut=    77.00 Ry     beta= 0.20
     Davidson diagonalization with overlap
     c_bands:  5 eigenvalues not converged
     c_bands:  5 eigenvalues not converged
     c_bands:  3 eigenvalues not converged
     c_bands:  3 eigenvalues not converged
     ethr =  2.35E-06,  avg # of iterations = 55.0

     negative rho (up, down):  4.271E-04 0.000E+00

     total cpu time spent up to now is     8806.9 secs

     total energy              =  -33980.24514130 Ry
     estimated scf accuracy    <       0.00313732 Ry

     iteration # 10     ecut=    77.00 Ry     beta= 0.20
     Davidson diagonalization with overlap
     c_bands:  3 eigenvalues not converged
     c_bands:  5 eigenvalues not converged
     c_bands:  4 eigenvalues not converged
     ethr =  1.83E-07,  avg # of iterations = 20.5

     negative rho (up, down):  4.924E-04 0.000E+00

     total cpu time spent up to now is    10684.3 secs

     total energy              =  -33980.25330250 Ry
     estimated scf accuracy    <       0.00475579 Ry

     iteration # 11     ecut=    77.00 Ry     beta= 0.20
     Davidson diagonalization with overlap
     c_bands:  3 eigenvalues not converged
     c_bands:  3 eigenvalues not converged
     c_bands:  2 eigenvalues not converged
     ethr =  1.83E-07,  avg # of iterations = 31.5

     negative rho (up, down):  7.789E-04 0.000E+00

     total cpu time spent up to now is    11502.5 secs

     total energy              =  -33980.25410993 Ry
     estimated scf accuracy    <       0.00162409 Ry

     iteration # 12     ecut=    77.00 Ry     beta= 0.20
     Davidson diagonalization with overlap
     c_bands:  2 eigenvalues not converged
     c_bands:  1 eigenvalues not converged
     ethr =  9.48E-08,  avg # of iterations = 19.5

     negative rho (up, down):  7.505E-04 0.000E+00

     total cpu time spent up to now is    12964.6 secs

     total energy              =  -33980.25125716 Ry
     estimated scf accuracy    <       0.01849005 Ry

     iteration # 13     ecut=    77.00 Ry     beta= 0.20
     Davidson diagonalization with overlap
     ethr =  9.48E-08,  avg # of iterations = 15.0

     negative rho (up, down):  7.536E-04 0.000E+00

     total cpu time spent up to now is    13963.8 secs

     total energy              =  -33980.25355836 Ry
     estimated scf accuracy    <       0.00108470 Ry

     iteration # 14     ecut=    77.00 Ry     beta= 0.20
     Davidson diagonalization with overlap
     ethr =  6.33E-08,  avg # of iterations =  8.5

     negative rho (up, down):  7.971E-04 0.000E+00

     total cpu time spent up to now is    14602.8 secs

     total energy              =  -33980.25408398 Ry
     estimated scf accuracy    <       0.00010483 Ry

     iteration # 15     ecut=    77.00 Ry     beta= 0.20
     Davidson diagonalization with overlap
     c_bands:  1 eigenvalues not converged
     ethr =  6.12E-09,  avg # of iterations = 19.5

     negative rho (up, down):  8.355E-04 0.000E+00

     total cpu time spent up to now is    15870.2 secs

     total energy              =  -33980.25428290 Ry
     estimated scf accuracy    <       0.00004746 Ry

     iteration # 16     ecut=    77.00 Ry     beta= 0.20
     Davidson diagonalization with overlap
     ethr =  2.77E-09,  avg # of iterations =  9.0

     negative rho (up, down):  8.591E-04 0.000E+00

     total cpu time spent up to now is    16512.0 secs

     total energy              =  -33980.25429261 Ry
     estimated scf accuracy    <       0.00001718 Ry

     iteration # 17     ecut=    77.00 Ry     beta= 0.20
     Davidson diagonalization with overlap
     c_bands:  1 eigenvalues not converged
     c_bands:  4 eigenvalues not converged
     ethr =  1.00E-09,  avg # of iterations = 17.2

     negative rho (up, down):  8.660E-04 0.000E+00

     total cpu time spent up to now is    17360.5 secs

     total energy              =  -33980.25429958 Ry
     estimated scf accuracy    <       0.00000879 Ry

     iteration # 18     ecut=    77.00 Ry     beta= 0.20
     Davidson diagonalization with overlap
     ethr =  5.13E-10,  avg # of iterations =  9.0

     negative rho (up, down):  8.696E-04 0.000E+00

     total cpu time spent up to now is    18023.9 secs

     total energy              =  -33980.25429790 Ry
     estimated scf accuracy    <       0.00000870 Ry

     iteration # 19     ecut=    77.00 Ry     beta= 0.20
     Davidson diagonalization with overlap
     ethr =  5.07E-10,  avg # of iterations =  4.5

     negative rho (up, down):  8.730E-04 0.000E+00

     total cpu time spent up to now is    18446.6 secs

     total energy              =  -33980.25429511 Ry
     estimated scf accuracy    <       0.00000307 Ry

     iteration # 20     ecut=    77.00 Ry     beta= 0.20
     Davidson diagonalization with overlap
     c_bands:  2 eigenvalues not converged
     ethr =  1.79E-10,  avg # of iterations = 15.8

     negative rho (up, down):  8.785E-04 0.000E+00

     total cpu time spent up to now is    19550.9 secs

     End of self-consistent calculation

          k = 0.0000 0.0000 0.0000 (386245 PWs)   bands (ev):

  -102.2445 -88.6786 -70.5579 -70.5567 -70.5540 -70.5525 -70.5276 -70.5269
   -70.5112 -66.5816 -66.5814 -66.5802 -66.5745 -66.5675 -66.5604 -66.5603
   -66.5603 -66.5603 -66.5603 -66.5603 -66.5602 -66.5602 -66.5602 -66.5600
   -66.5599 -66.5598 -66.5589 -66.5589 -66.5589 -66.5589 -66.5589 -66.5589
   -66.5578 -66.5556 -66.5417 -66.5395 -66.5392 -66.5391 -66.5390 -66.5389
   -66.5389 -66.5389 -66.5389 -66.5389 -66.5389 -66.5388 -66.5388 -66.5388
   -66.5388 -66.5387 -66.5386 -66.5385 -66.5384 -66.5383 -66.5375 -66.5375
   -66.5375 -66.5375 -66.5375 -66.5375 -66.5375 -66.5374 -66.5374 -66.5362
   -66.5318 -66.5275 -66.5219 -66.5202 -66.5193 -66.5123 -66.5121 -66.4951
   -66.4938 -56.5034 -56.4757 -56.4743 -54.4999 -54.4726 -54.4697 -40.9089
   -40.9089 -40.9088 -40.9088 -40.9088 -40.9086 -40.9082 -40.9082 -40.9081
   -40.8938 -40.8897 -40.8851 -40.8336 -40.8336 -40.8336 -40.8336 -40.8335
   -40.8335 -40.8335 -40.8335 -40.8335 -40.8333 -40.8332 -40.8332 -40.8328
   -40.8328 -40.8328 -40.8328 -40.8328 -40.8328 -40.8217 -40.8159 -40.8104
   -40.8080 -40.8077 -40.8060 -40.7568 -40.7412 -40.7410 -40.7405 -40.7329
   -40.7132 -40.7073 -40.7072 -40.7072 -40.7072 -40.7072 -40.7072 -40.7072
   -40.7072 -40.7072 -40.7069 -40.7069 -40.7068 -40.7063 -40.7063 -40.7063
   -40.7063 -40.7063 -40.7063 -40.7007 -40.6996 -40.6995 -40.6995 -40.6995
   -40.6995 -40.6995 -40.6994 -40.6994 -40.6994 -40.6992 -40.6991 -40.6991
   -40.6988 -40.6988 -40.6987 -40.6987 -40.6987 -40.6987 -40.6986 -40.6950
   -40.6926 -40.6905 -40.6884 -40.6848 -40.6839 -40.6807 -40.6722 -40.6722
   -40.6722 -40.6722 -40.6722 -40.6722 -40.6722 -40.6722 -40.6722 -40.6721
   -40.6719 -40.6719 -40.6718 -40.6712 -40.6712 -40.6712 -40.6712 -40.6712
   -40.6712 -40.6668 -40.6640 -40.6619 -40.6578 -40.6577 -40.6576 -40.6576
   -40.6576 -40.6575 -40.6575 -40.6575 -40.6575 -40.6574 -40.6574 -40.6574
   -40.6574 -40.6574 -40.6574 -40.6572 -40.6572 -40.6570 -40.6569 -40.6568
   -40.6568 -40.6567 -40.6567 -40.6567 -40.6567 -40.6567 -40.6566 -40.6566
   -40.6545 -40.6540 -40.6527 -40.6515 -40.6502 -40.6483 -40.6456 -40.6410
   -40.6359 -40.6350 -40.6342 -40.5939 -40.5938 -40.5938 -40.5938 -40.5938
   -40.5935 -40.5928 -40.5928 -40.5928 -40.5779 -40.5699 -40.5697 -40.5468
   -40.5468 -40.5467 -40.5467 -40.5467 -40.5467 -40.5467 -40.5467 -40.5467
   -40.5465 -40.5463 -40.5463 -40.5457 -40.5457 -40.5457 -40.5457 -40.5457
   -40.5456 -40.5324 -40.5260 -40.5249 -40.5221 -40.5188 -40.5130 -40.4991
   -40.4991 -40.4990 -40.4990 -40.4980 -40.4980 -40.4757 -40.4707 -20.1078
   -20.0460 -19.9455 -19.8431 -19.4060 -19.2624 -19.2400 -19.2126 -19.2094
   -19.2041 -19.1930 -19.1866 -19.1816 -19.1627 -19.1566 -19.1404 -19.1044
   -19.0960 -19.0919 -19.0797 -19.0747 -19.0555 -19.0006 -18.9965 -18.9951
   -18.9911 -18.9892 -18.9808 -18.8647 -18.7471 -18.5904 -18.5330 -18.5180
   -18.5172 -18.4645 -18.4600 -18.4331 -18.4269 -18.3980 -18.3867 -18.3780
   -18.3664 -18.3603 -18.3439 -18.3169 -18.2739 -18.2464 -18.2417 -18.2414
   -18.2280 -18.2062 -18.1894 -18.1553 -18.1452 -18.1415 -18.1382 -18.1304
   -18.1288 -18.1153 -18.0957 -18.0800 -18.0783 -18.0774 -18.0766 -18.0754
   -18.0717 -18.0514 -18.0449 -18.0422 -18.0415 -18.0356 -18.0351 -18.0339
   -18.0323 -18.0292 -18.0165 -18.0069 -18.0062 -18.0048 -17.9985 -17.9913
   -17.9901 -17.9811 -17.9776 -17.9717 -17.9639 -17.9614 -17.9585 -17.9529
   -17.9469 -17.9430 -17.9403 -17.9098 -17.9092 -17.9014 -17.8915 -17.8841
   -17.8752 -17.8742 -17.8731 -17.8696 -17.8523 -17.8522 -17.8415 -17.8406
   -17.8326 -17.8284 -17.8241 -17.8234 -17.8183 -17.8161 -17.8135 -17.8099
   -17.7982 -17.7980 -17.7951 -17.7887 -17.7839 -17.7820 -17.7793 -17.7779
   -17.7740 -17.7546 -17.7535 -17.7529 -17.7519 -17.7514 -17.7496 -12.0958
   -11.9240 -11.8191 -11.8068 -11.7651 -11.7379 -11.7320 -11.7176 -11.6371
   -11.6186 -11.6148 -11.5403 -11.5092 -11.5077 -11.4966 -11.3686 -11.3116
   -11.2260 -11.2043 -11.1986 -11.1963 -11.1945 -11.1782 -11.1757 -11.1084
   -11.0961 -11.0914 -11.0898 -11.0888 -11.0840 -11.0754 -11.0717 -11.0412
   -11.0393 -11.0313 -11.0283 -11.0223 -11.0204 -11.0155 -11.0105 -10.9936
   -10.9924 -10.9923 -10.9584 -10.9557 -10.9407 -10.9185 -10.9147 -10.9052
   -10.8932 -10.8911 -10.8871 -10.8732 -10.8557 -10.8541 -10.8465 -10.8433
   -10.8299 -10.8196 -10.8095 -10.8069 -10.8055 -10.8024 -10.7967 -10.7941
   -10.7876 -10.7875 -10.7828 -10.7778 -10.7765 -10.7682 -10.7655 -10.7649
   -10.7640 -10.7619 -10.7546 -10.7341 -10.7340 -10.7328 -10.7308 -10.7271
   -10.7217 -10.7194 -10.7156 -10.7096 -10.6946 -10.6942 -10.6942 -10.6914
   -10.6914 -10.6903 -10.6162 -10.6162 -10.6149 -10.5722 -10.5506 -10.5487
   -10.5458 -10.5386 -10.5325 -10.3587 -10.3211 -10.2174 -10.1957 -10.1747
   -10.0810 -10.0711  -9.9852  -9.8731  -9.8631  -9.8563  -9.8093  -9.7822
    -9.7748  -9.7600  -9.7535  -9.7518  -9.7452  -9.7329  -9.7281  -9.7274
    -9.7264  -9.7226  -9.7189  -9.7109  -9.7083  -9.7073  -9.7066  -9.6910
    -9.6888  -9.6784  -9.6739  -9.6535  -9.6279  -9.5907  -9.5867  -9.5842
    -9.5831  -9.5820  -9.5758  -9.5752  -9.5749  -9.5744  -9.5723  -9.5723
    -9.5678  -9.5481  -9.5467  -9.5416  -9.5255  -9.4992  -9.4989  -9.4985
    -9.4984  -9.4980  -9.4978  -9.4857  -9.4815  -9.4810  -9.4737  -9.4673
    -9.4607  -9.4593  -9.4459  -9.4108  -9.4014  -9.3476  -9.3388  -9.3229
    -9.3111  -9.3032  -9.2922  -9.2901  -9.2886  -9.2833  -9.2796  -9.2704
    -9.2608  -9.2176  -9.2075  -9.1980  -9.1897  -9.1872  -9.1759  -9.1502
    -9.1431  -9.1407  -9.1383  -9.1371  -9.1349  -9.1232  -9.1122  -9.1056
    -9.0983  -9.0792  -9.0726  -9.0654  -9.0417  -9.0154  -8.9710  -8.9531
    -8.9399  -8.9383  -8.9381  -8.9339  -8.9221  -8.9134  -8.9067  -8.9038
    -8.9025  -8.8827  -8.8745  -8.8743  -8.8701  -8.8690  -8.8586  -8.8443
    -8.8409  -8.8384  -8.8212  -8.7784  -8.7783  -8.7782  -8.7779  -8.7776
    -8.7772  -8.7097  -8.7094  -8.7053  -8.6998  -8.6961  -8.6844  -8.6240
    -8.6228  -8.6203  -8.6164  -8.6145  -8.5998  -8.5522  -8.5499  -8.5496
    -8.5487  -8.5475  -8.5467  -8.5422  -8.5317  -8.4584  -8.3648  -8.3233
    -8.3233  -8.3185  -8.3181  -8.3120  -8.3117  -8.3018  -8.2890  -8.2651
    -8.2555  -8.2445  -8.2384  -8.2329  -8.2329  -8.2319  -8.2302  -8.2288
    -8.2224  -8.2066  -8.2063  -8.2046  -8.2025  -8.2022  -8.1984  -8.1783
    -8.1783  -8.1772  -8.1765  -8.1763  -8.1754  -8.1683  -8.1053  -8.0994
    -7.9444  -7.9415  -7.8997  -7.8143  -7.8141  -7.8117  -7.7329  -7.7262
    -7.7158  -7.6539  -7.6450  -7.6149  -7.5981  -7.5979  -7.5864  -7.5718
    -7.5707  -7.5659  -7.5657  -7.5618  -7.5360  -7.5280  -7.5262  -7.5114
    -7.5089  -7.5068  -7.4998  -7.4962  -7.4902  -7.4897  -7.4897  -7.4888
    -7.4846  -7.4809  -7.4758  -7.4704  -7.4639  -7.4629  -7.4624  -7.4606
    -7.4599  -7.4595  -7.4403  -7.4389  -7.4389  -7.4381  -7.4380  -7.4379
    -7.4212  -7.4089  -7.3998  -7.3839  -7.3835  -7.3750  -7.3725  -7.3687
    -7.3652  -7.3584  -7.3267  -7.3236  -7.2965  -7.2950  -7.2757  -7.2683
    -7.2656  -7.2559  -7.2536  -7.2474  -7.2445  -7.2362  -7.2303  -7.2246
    -7.2068  -7.2066  -7.1885  -7.1879  -7.1706  -7.1703  -7.1561  -7.1343
    -7.0927  -7.0844  -7.0789  -7.0652  -7.0461  -7.0023  -6.9378  -6.9107
    -6.8553  -6.8540  -6.8292  -6.8157  -6.7911  -6.7658  -6.7625  -6.7496
    -6.7375  -6.7366  -6.7206  -6.7044  -6.6931  -6.6841  -6.6663  -6.6547
    -6.6499  -6.6349  -6.6109  -6.5826  -6.5812  -6.5776  -6.5726  -6.5618
    -6.5532  -6.5408  -6.5306  -6.5165  -6.5079  -6.5009  -6.4933  -6.4813
    -6.4715  -6.4684  -6.4678  -6.4667  -6.4657  -6.4646  -6.4633  -6.4617
    -6.4547  -6.4543  -6.4542  -6.4540  -6.4539  -6.4535  -6.4423  -6.4161
    -6.4125  -6.4005  -6.3762  -6.3712  -6.3665  -6.3587  -6.3493  -6.3155
    -6.3075  -6.2901  -6.2895  -6.2890  -6.2890  -6.2830  -6.2815  -6.2571
    -6.2512  -6.2497  -6.2496  -6.2428  -6.2426  -6.2290  -6.2128  -6.2113
    -6.2111  -6.2084  -6.2083  -6.2061  -6.1990  -6.1671  -6.1155  -6.0820
    -5.8585  -5.7278  -5.6803  -5.6750  -5.5384  -5.3944  -5.3841  -5.2719
    -5.1083  -4.3757  -3.8628  -3.8129  -3.8110  -3.8051  -3.8004  -3.7861
    -3.7839  -3.7835  -3.7806  -3.7804  -3.7764  -3.7602  -3.7191  -3.6678
    -3.6632  -3.6469  -3.6425  -3.6386  -3.6366  -3.6296  -3.6290  -3.6229
    -3.6210  -3.5380  -3.4960  -3.4745  -3.4694  -3.4634  -3.4479  -3.4457
    -3.4375  -3.4339  -3.4290  -3.4278  -3.4275  -3.4247  -3.4238  -3.4126
    -3.4110  -3.4063  -3.3993  -3.3987  -3.3985  -3.3964  -3.3889  -3.3835
    -3.3831  -3.3817  -3.3703  -3.3679  -3.3666  -3.3652  -3.3641  -3.3590
    -3.3581  -3.3535  -3.3508  -3.3460  -3.3459  -3.3110  -3.3086  -3.3033
    -3.3013  -3.2989  -3.2965  -3.2931  -3.2925  -3.2920  -3.2826  -3.2712
    -3.2628  -3.2497  -3.2428  -3.2387  -3.2381  -3.2335  -3.2222  -3.2148
    -3.2003  -3.1718  -3.1701  -3.1545  -3.1477  -3.0440  -3.0222  -3.0201
    -3.0149  -3.0139  -3.0135  -3.0121  -2.9978  -2.9975  -2.9917  -2.9679
    -2.9436  -2.9415  -2.9310  -2.9295  -2.9277  -2.9273  -2.9263  -2.9212
    -2.9201  -2.9194  -2.9190  -2.9166  -2.9128  -2.9103  -2.9100  -2.9013
    -2.8933  -2.8931  -2.8883  -2.8875  -2.8863  -2.8835  -2.8830  -2.8827
    -2.8808  -2.8788  -2.8777  -2.8420  -2.8375  -2.8335  -2.8279  -2.8243
    -2.8139  -2.8011  -2.7914  -2.7902  -2.7644  -2.7597  -2.7594  -2.7589
    -2.7583  -2.7582  -2.7576  -2.7573  -2.7567  -2.7484  -2.7421  -2.7393
    -2.7106  -2.7064  -2.7043  -2.6877  -2.6832  -2.6767  -2.6758  -2.6251
    -2.6233  -2.5950  -2.5931  -2.5850  -2.5794  -2.5791  -2.5734  -2.5719
    -2.5713  -2.5529  -2.5322  -2.5132  -2.5094  -2.4964  -2.4918  -2.3900
    -2.3762  -2.3690  -2.3677  -2.3623

          k = 0.0000-0.5773 0.0000 (386352 PWs)   bands (ev):

  -102.2445 -88.6786 -70.5579 -70.5567 -70.5540 -70.5525 -70.5276 -70.5269
   -70.5112 -66.5754 -66.5753 -66.5753 -66.5751 -66.5740 -66.5740 -66.5725
   -66.5674 -66.5649 -66.5647 -66.5647 -66.5646 -66.5645 -66.5633 -66.5633
   -66.5496 -66.5496 -66.5496 -66.5496 -66.5496 -66.5496 -66.5493 -66.5493
   -66.5482 -66.5482 -66.5482 -66.5482 -66.5478 -66.5452 -66.5451 -66.5451
   -66.5449 -66.5447 -66.5438 -66.5437 -66.5409 -66.5390 -66.5389 -66.5389
   -66.5388 -66.5388 -66.5387 -66.5387 -66.5384 -66.5375 -66.5375 -66.5375
   -66.5374 -66.5357 -66.5344 -66.5344 -66.5343 -66.5342 -66.5330 -66.5330
   -66.5303 -66.5261 -66.5239 -66.5211 -66.5156 -66.5152 -66.5119 -66.4949
   -66.4938 -56.5034 -56.4757 -56.4743 -54.4999 -54.4726 -54.4698 -40.8773
   -40.8773 -40.8773 -40.8772 -40.8772 -40.8772 -40.8771 -40.8768 -40.8765
   -40.8765 -40.8765 -40.8765 -40.8625 -40.8578 -40.8568 -40.8556 -40.8504
   -40.8504 -40.8504 -40.8502 -40.8497 -40.8496 -40.8384 -40.8384 -40.8382
   -40.8382 -40.8376 -40.8376 -40.8371 -40.8355 -40.8116 -40.8059 -40.7877
   -40.7877 -40.7877 -40.7877 -40.7876 -40.7875 -40.7875 -40.7875 -40.7869
   -40.7869 -40.7869 -40.7869 -40.7663 -40.7651 -40.7640 -40.7624 -40.7538
   -40.7311 -40.7290 -40.7290 -40.7289 -40.7288 -40.7283 -40.7283 -40.7195
   -40.7194 -40.7194 -40.7193 -40.7192 -40.7185 -40.7185 -40.7121 -40.7081
   -40.7081 -40.7080 -40.7080 -40.7074 -40.7074 -40.6999 -40.6951 -40.6846
   -40.6797 -40.6785 -40.6785 -40.6785 -40.6785 -40.6785 -40.6785 -40.6782
   -40.6782 -40.6778 -40.6778 -40.6778 -40.6778 -40.6772 -40.6742 -40.6698
   -40.6698 -40.6697 -40.6696 -40.6690 -40.6690 -40.6654 -40.6639 -40.6579
   -40.6579 -40.6578 -40.6578 -40.6576 -40.6575 -40.6575 -40.6574 -40.6574
   -40.6574 -40.6573 -40.6571 -40.6570 -40.6570 -40.6567 -40.6567 -40.6567
   -40.6567 -40.6556 -40.6547 -40.6488 -40.6488 -40.6487 -40.6487 -40.6480
   -40.6480 -40.6467 -40.6462 -40.6399 -40.6357 -40.6349 -40.6329 -40.6271
   -40.6270 -40.6270 -40.6270 -40.6269 -40.6269 -40.6267 -40.6265 -40.6260
   -40.6260 -40.6260 -40.6260 -40.6127 -40.6085 -40.6056 -40.6010 -40.5922
   -40.5922 -40.5922 -40.5922 -40.5921 -40.5921 -40.5921 -40.5921 -40.5912
   -40.5912 -40.5912 -40.5912 -40.5801 -40.5801 -40.5800 -40.5798 -40.5791
   -40.5790 -40.5731 -40.5704 -40.5697 -40.5660 -40.5608 -40.5608 -40.5607
   -40.5604 -40.5598 -40.5597 -40.5549 -40.5529 -40.5438 -40.5438 -40.5437
   -40.5436 -40.5427 -40.5427 -40.5422 -40.5365 -40.5170 -40.5131 -40.5131
   -40.5131 -40.5128 -40.5120 -40.5120 -40.5114 -40.4896 -40.4871 -19.9166
   -19.8481 -19.8193 -19.7924 -19.7192 -19.7002 -19.6127 -19.6056 -19.4344
   -19.4145 -19.3772 -19.3634 -19.2847 -19.2746 -19.1847 -19.1809 -18.8829
   -18.8020 -18.7745 -18.7407 -18.7148 -18.6941 -18.6779 -18.6765 -18.6756
   -18.6607 -18.6376 -18.6318 -18.6043 -18.6039 -18.5954 -18.5841 -18.5517
   -18.5436 -18.5167 -18.5124 -18.5096 -18.5071 -18.4837 -18.4803 -18.4550
   -18.4533 -18.4347 -18.4310 -18.4202 -18.4133 -18.3650 -18.3634 -18.3612
   -18.3586 -18.3207 -18.3082 -18.2890 -18.2840 -18.2695 -18.2418 -18.2157
   -18.2060 -18.2004 -18.1959 -18.1564 -18.1505 -18.1362 -18.1307 -18.0933
   -18.0904 -18.0732 -18.0640 -18.0607 -18.0575 -18.0545 -18.0521 -18.0458
   -18.0391 -18.0286 -18.0246 -18.0226 -18.0223 -18.0130 -18.0121 -18.0018
   -17.9981 -17.9960 -17.9926 -17.9662 -17.9639 -17.9607 -17.9592 -17.9556
   -17.9552 -17.9510 -17.9487 -17.9390 -17.9382 -17.9039 -17.9002 -17.8925
   -17.8919 -17.8844 -17.8811 -17.8477 -17.8472 -17.8379 -17.8347 -17.8088
   -17.8051 -17.8001 -17.7972 -17.7905 -17.7807 -17.7754 -17.7752 -17.7746
   -17.7739 -17.7728 -17.7688 -17.7600 -17.7584 -17.7393 -17.7386 -17.7152
   -17.7149 -17.6957 -17.6948 -17.6820 -17.6811 -17.6754 -17.6752 -11.9812
   -11.6876 -11.6630 -11.5907 -11.5808 -11.5361 -11.4807 -11.4756 -11.4669
   -11.4493 -11.4460 -11.4442 -11.4364 -11.4243 -11.4092 -11.3921 -11.3454
   -11.3422 -11.3318 -11.3283 -11.3020 -11.2845 -11.2778 -11.2729 -11.2498
   -11.2406 -11.2321 -11.2250 -11.2181 -11.2166 -11.2083 -11.2037 -11.1900
   -11.1629 -11.1595 -11.1546 -11.1480 -11.1414 -11.1272 -11.1241 -11.1229
   -11.1215 -11.1022 -11.1011 -11.0765 -11.0721 -11.0403 -11.0317 -11.0286
   -11.0146 -10.9695 -10.9428 -10.9140 -10.9003 -10.8926 -10.8880 -10.8704
   -10.8627 -10.8479 -10.8399 -10.8160 -10.8102 -10.8073 -10.7921 -10.7898
   -10.7842 -10.7774 -10.7753 -10.7673 -10.7667 -10.7663 -10.7644 -10.7538
   -10.7533 -10.7517 -10.7492 -10.7479 -10.7475 -10.7381 -10.7375 -10.7371
   -10.7343 -10.6991 -10.6991 -10.6990 -10.6985 -10.5273 -10.5048 -10.5024
   -10.5002 -10.4776 -10.4535 -10.4284 -10.3927 -10.3718 -10.3459 -10.2950
   -10.2830 -10.2086 -10.1853 -10.1118 -10.1087 -10.1009 -10.0938 -10.0708
   -10.0633 -10.0573 -10.0510 -10.0183 -10.0076  -9.9900  -9.9866  -9.9847
    -9.9798  -9.9772  -9.9708  -9.9467  -9.9405  -9.8990  -9.8940  -9.8831
    -9.8728  -9.8665  -9.8607  -9.8480  -9.8439  -9.8128  -9.8122  -9.7900
    -9.7854  -9.7694  -9.7582  -9.7490  -9.7340  -9.7321  -9.7184  -9.6986
    -9.6913  -9.6546  -9.6486  -9.6396  -9.6336  -9.6127  -9.5998  -9.5875
    -9.5804  -9.5670  -9.5656  -9.5318  -9.5269  -9.5170  -9.5063  -9.4964
    -9.4922  -9.4855  -9.4760  -9.4462  -9.4451  -9.4361  -9.4320  -9.4271
    -9.4246  -9.4150  -9.4124  -9.4081  -9.4057  -9.3842  -9.3813  -9.3314
    -9.3312  -9.3103  -9.2918  -9.2347  -9.2236  -9.1935  -9.1865  -9.1821
    -9.1781  -9.1528  -9.1433  -9.1320  -9.1288  -9.1143  -9.1054  -9.0823
    -9.0721  -9.0474  -9.0410  -9.0365  -9.0295  -9.0106  -9.0060  -8.9946
    -8.9907  -8.9889  -8.9805  -8.9474  -8.9426  -8.9281  -8.9236  -8.9086
    -8.9071  -8.8915  -8.8900  -8.8738  -8.8657  -8.8466  -8.8450  -8.8434
    -8.8431  -8.8375  -8.8331  -8.8274  -8.8263  -8.8228  -8.8214  -8.8185
    -8.8131  -8.8107  -8.8022  -8.7957  -8.7956  -8.7897  -8.7890  -8.7831
    -8.7674  -8.7495  -8.7478  -8.7428  -8.7417  -8.7397  -8.7394  -8.7188
    -8.7174  -8.6891  -8.6891  -8.6830  -8.6813  -8.6702  -8.6627  -8.6155
    -8.6112  -8.6049  -8.5948  -8.5575  -8.5417  -8.4596  -8.4592  -8.4097
    -8.4032  -8.3702  -8.3554  -8.3062  -8.3042  -8.2641  -8.2588  -8.2229
    -8.2028  -8.1109  -8.1037  -8.0836  -8.0834  -8.0750  -8.0744  -8.0637
    -8.0631  -8.0505  -8.0184  -8.0107  -7.9905  -7.9423  -7.9335  -7.9179
    -7.9092  -7.8438  -7.8374  -7.8037  -7.7971  -7.7901  -7.7857  -7.7830
    -7.7811  -7.7678  -7.7631  -7.7599  -7.7573  -7.7532  -7.7507  -7.7462
    -7.7432  -7.7408  -7.7393  -7.7360  -7.7358  -7.7302  -7.7281  -7.7242
    -7.7239  -7.7206  -7.7193  -7.7150  -7.7140  -7.7136  -7.7131  -7.6958
    -7.6921  -7.6841  -7.6833  -7.6781  -7.6764  -7.6521  -7.6519  -7.6516
    -7.6514  -7.6235  -7.6230  -7.6218  -7.6217  -7.6085  -7.6079  -7.5991
    -7.5943  -7.5791  -7.5700  -7.5667  -7.5636  -7.5614  -7.5602  -7.5543
    -7.5500  -7.5402  -7.5395  -7.5233  -7.5197  -7.5194  -7.5164  -7.5149
    -7.5115  -7.4499  -7.4460  -7.4224  -7.4191  -7.4116  -7.4103  -7.3735
    -7.3685  -7.2802  -7.2671  -7.1554  -7.1504  -7.1273  -7.1259  -7.1213
    -7.1206  -7.0844  -7.0780  -7.0752  -7.0735  -7.0597  -7.0577  -7.0266
    -7.0202  -6.9958  -6.9934  -6.9789  -6.9775  -6.9674  -6.9581  -6.9299
    -6.9278  -6.8721  -6.8690  -6.8681  -6.8655  -6.8482  -6.8421  -6.8302
    -6.8265  -6.8150  -6.8149  -6.7772  -6.7685  -6.7550  -6.7420  -6.7124
    -6.7112  -6.6799  -6.6658  -6.6390  -6.6272  -6.6204  -6.5971  -6.5807
    -6.5751  -6.5634  -6.5615  -6.5605  -6.5602  -6.5596  -6.5445  -6.5436
    -6.5433  -6.5423  -6.5405  -6.5348  -6.5347  -6.5345  -6.5345  -6.4919
    -6.4755  -6.4405  -6.4342  -6.3739  -6.3709  -6.3249  -6.2876  -6.2820
    -6.2769  -6.2754  -6.2708  -6.2543  -6.2389  -6.2354  -6.2326  -6.2322
    -6.2284  -6.2280  -6.2210  -6.2063  -6.2049  -6.1999  -6.1912  -6.1863
    -6.1681  -6.1589  -6.1565  -6.1548  -6.1371  -5.9604  -5.9556  -5.9290
    -5.9243  -5.8906  -5.8739  -5.8532  -5.8414  -5.8042  -5.8005  -5.7089
    -5.6853  -5.6750  -5.6551  -5.5781  -5.5607  -5.5311  -5.4478  -5.3844
    -5.3455  -4.3677  -4.0494  -4.0433  -4.0404  -4.0215  -3.9088  -3.8820
    -3.8783  -3.8678  -3.8595  -3.8215  -3.7991  -3.7956  -3.7860  -3.7779
    -3.7704  -3.7615  -3.7604  -3.7528  -3.7510  -3.7076  -3.6657  -3.6392
    -3.6283  -3.6021  -3.5877  -3.5598  -3.5559  -3.5541  -3.5535  -3.5204
    -3.5073  -3.5055  -3.4941  -3.4799  -3.4787  -3.4694  -3.4659  -3.4616
    -3.4511  -3.4351  -3.4338  -3.4305  -3.4273  -3.4240  -3.4198  -3.4129
    -3.4077  -3.3999  -3.3942  -3.3821  -3.3774  -3.3681  -3.3680  -3.3390
    -3.3265  -3.3026  -3.3023  -3.3016  -3.2998  -3.2981  -3.2931  -3.2893
    -3.2841  -3.2569  -3.2517  -3.2437  -3.2409  -3.2342  -3.2332  -3.2303
    -3.2286  -3.2273  -3.2200  -3.1985  -3.1962  -3.1892  -3.1839  -3.1773
    -3.1727  -3.1678  -3.1660  -3.1631  -3.1523  -3.1441  -3.1408  -3.1323
    -3.1271  -3.1238  -3.1175  -3.1162  -3.1162  -3.1045  -3.0994  -3.0595
    -3.0557  -3.0382  -3.0250  -3.0221  -3.0178  -3.0153  -3.0133  -2.9786
    -2.9777  -2.9768  -2.9766  -2.9764  -2.9752  -2.9660  -2.9655  -2.9589
    -2.9575  -2.9566  -2.9533  -2.9447  -2.9419  -2.9320  -2.9292  -2.9281
    -2.9269  -2.9234  -2.9207  -2.9193  -2.9108  -2.9043  -2.9004  -2.8989
    -2.8937  -2.8848  -2.8826  -2.8778  -2.8702  -2.8477  -2.8449  -2.8442
    -2.8385  -2.8316  -2.8225  -2.8159  -2.8080  -2.7482  -2.7466  -2.7460
    -2.7455  -2.6959  -2.6834  -2.6763  -2.6656  -2.5706  -2.5631  -2.5411
    -2.5393  -2.5254  -2.5083  -2.4991  -2.4971  -2.4861  -2.4842  -2.4817
    -2.4796  -2.4752  -2.4736  -2.4043  -2.3570  -2.3534  -2.3507  -2.3473
    -2.3378  -2.3316  -2.3066  -2.2946

          k =-0.5000-0.2887 0.0000 (386352 PWs)   bands (ev):

  -102.2445 -88.6786 -70.5579 -70.5567 -70.5540 -70.5525 -70.5276 -70.5269
   -70.5112 -66.5754 -66.5753 -66.5753 -66.5751 -66.5740 -66.5740 -66.5719
   -66.5705 -66.5647 -66.5647 -66.5646 -66.5645 -66.5633 -66.5633 -66.5581
   -66.5556 -66.5497 -66.5496 -66.5496 -66.5496 -66.5496 -66.5495 -66.5493
   -66.5493 -66.5482 -66.5482 -66.5482 -66.5482 -66.5452 -66.5451 -66.5451
   -66.5449 -66.5438 -66.5438 -66.5427 -66.5413 -66.5389 -66.5389 -66.5389
   -66.5389 -66.5388 -66.5388 -66.5387 -66.5384 -66.5375 -66.5375 -66.5375
   -66.5375 -66.5344 -66.5344 -66.5343 -66.5342 -66.5330 -66.5330 -66.5310
   -66.5302 -66.5281 -66.5234 -66.5219 -66.5194 -66.5121 -66.5119 -66.4948
   -66.4939 -56.5034 -56.4757 -56.4743 -54.4999 -54.4726 -54.4698 -40.8776
   -40.8773 -40.8773 -40.8772 -40.8772 -40.8772 -40.8771 -40.8771 -40.8769
   -40.8765 -40.8765 -40.8765 -40.8765 -40.8605 -40.8505 -40.8504 -40.8504
   -40.8502 -40.8497 -40.8497 -40.8482 -40.8406 -40.8384 -40.8384 -40.8382
   -40.8382 -40.8376 -40.8376 -40.8361 -40.8207 -40.8204 -40.8145 -40.7877
   -40.7877 -40.7877 -40.7877 -40.7876 -40.7876 -40.7875 -40.7875 -40.7869
   -40.7869 -40.7869 -40.7869 -40.7702 -40.7690 -40.7642 -40.7634 -40.7544
   -40.7290 -40.7290 -40.7290 -40.7288 -40.7287 -40.7283 -40.7283 -40.7254
   -40.7194 -40.7194 -40.7193 -40.7192 -40.7185 -40.7185 -40.7081 -40.7081
   -40.7080 -40.7080 -40.7074 -40.7074 -40.7030 -40.7006 -40.6956 -40.6910
   -40.6810 -40.6785 -40.6785 -40.6785 -40.6785 -40.6785 -40.6785 -40.6782
   -40.6782 -40.6778 -40.6778 -40.6778 -40.6777 -40.6705 -40.6698 -40.6698
   -40.6698 -40.6695 -40.6690 -40.6690 -40.6680 -40.6653 -40.6652 -40.6636
   -40.6579 -40.6579 -40.6578 -40.6577 -40.6575 -40.6575 -40.6575 -40.6575
   -40.6575 -40.6574 -40.6574 -40.6570 -40.6570 -40.6569 -40.6567 -40.6567
   -40.6567 -40.6567 -40.6521 -40.6488 -40.6488 -40.6487 -40.6487 -40.6480
   -40.6480 -40.6478 -40.6424 -40.6392 -40.6388 -40.6328 -40.6326 -40.6271
   -40.6270 -40.6270 -40.6270 -40.6269 -40.6268 -40.6268 -40.6266 -40.6260
   -40.6260 -40.6260 -40.6260 -40.6190 -40.6064 -40.6002 -40.5936 -40.5923
   -40.5922 -40.5922 -40.5922 -40.5921 -40.5921 -40.5921 -40.5921 -40.5912
   -40.5912 -40.5912 -40.5912 -40.5801 -40.5801 -40.5800 -40.5798 -40.5791
   -40.5791 -40.5752 -40.5728 -40.5694 -40.5679 -40.5611 -40.5608 -40.5607
   -40.5607 -40.5605 -40.5597 -40.5597 -40.5445 -40.5444 -40.5438 -40.5438
   -40.5437 -40.5436 -40.5427 -40.5427 -40.5314 -40.5221 -40.5168 -40.5131
   -40.5131 -40.5130 -40.5129 -40.5120 -40.5120 -40.4975 -40.4766 -19.9323
   -19.8416 -19.8205 -19.7775 -19.7196 -19.6867 -19.6123 -19.6007 -19.4594
   -19.4154 -19.3821 -19.3651 -19.2881 -19.2765 -19.1858 -19.1818 -18.8643
   -18.7858 -18.7742 -18.7482 -18.7321 -18.6845 -18.6781 -18.6760 -18.6756
   -18.6565 -18.6428 -18.6296 -18.6053 -18.6033 -18.6000 -18.5575 -18.5453
   -18.5398 -18.5280 -18.5099 -18.5055 -18.5044 -18.4928 -18.4919 -18.4487
   -18.4449 -18.4326 -18.4253 -18.4229 -18.3904 -18.3870 -18.3678 -18.3671
   -18.3533 -18.3322 -18.3125 -18.3029 -18.2869 -18.2692 -18.2530 -18.2196
   -18.2165 -18.1922 -18.1885 -18.1763 -18.1534 -18.1350 -18.1220 -18.1146
   -18.0890 -18.0773 -18.0625 -18.0577 -18.0571 -18.0555 -18.0520 -18.0337
   -18.0284 -18.0269 -18.0266 -18.0245 -18.0208 -18.0197 -18.0103 -18.0051
   -17.9950 -17.9862 -17.9839 -17.9685 -17.9615 -17.9608 -17.9587 -17.9576
   -17.9515 -17.9439 -17.9434 -17.9431 -17.9319 -17.9115 -17.8961 -17.8908
   -17.8838 -17.8747 -17.8738 -17.8501 -17.8483 -17.8377 -17.8297 -17.8280
   -17.8050 -17.7982 -17.7949 -17.7918 -17.7880 -17.7759 -17.7750 -17.7743
   -17.7743 -17.7726 -17.7717 -17.7614 -17.7594 -17.7418 -17.7380 -17.7172
   -17.7140 -17.6980 -17.6933 -17.6833 -17.6796 -17.6755 -17.6748 -12.0115
   -11.6814 -11.6704 -11.5915 -11.5642 -11.4868 -11.4720 -11.4703 -11.4516
   -11.4504 -11.4406 -11.4326 -11.4252 -11.4035 -11.3981 -11.3846 -11.3836
   -11.3571 -11.3405 -11.3227 -11.2954 -11.2936 -11.2911 -11.2722 -11.2695
   -11.2481 -11.2297 -11.2231 -11.2191 -11.2132 -11.2119 -11.2117 -11.2037
   -11.1647 -11.1619 -11.1598 -11.1483 -11.1384 -11.1257 -11.1252 -11.1230
   -11.1122 -11.1041 -11.1027 -11.1019 -11.0721 -11.0554 -11.0227 -11.0162
   -11.0109 -10.9799 -10.9212 -10.9156 -10.8910 -10.8878 -10.8757 -10.8698
   -10.8619 -10.8525 -10.8501 -10.8412 -10.8141 -10.8028 -10.7912 -10.7859
   -10.7853 -10.7805 -10.7689 -10.7672 -10.7671 -10.7661 -10.7563 -10.7562
   -10.7500 -10.7498 -10.7493 -10.7467 -10.7463 -10.7392 -10.7388 -10.7369
   -10.7244 -10.6994 -10.6992 -10.6988 -10.6971 -10.5754 -10.5075 -10.4992
   -10.4912 -10.4778 -10.4347 -10.4226 -10.3909 -10.3764 -10.3379 -10.3091
   -10.2764 -10.2050 -10.1797 -10.1609 -10.1367 -10.0961 -10.0791 -10.0770
   -10.0686 -10.0465 -10.0234 -10.0168 -10.0114 -10.0064  -9.9956  -9.9871
    -9.9744  -9.9712  -9.9627  -9.9496  -9.9366  -9.9070  -9.8885  -9.8790
    -9.8694  -9.8638  -9.8560  -9.8490  -9.8485  -9.8278  -9.8086  -9.7961
    -9.7886  -9.7626  -9.7621  -9.7529  -9.7429  -9.7248  -9.7141  -9.7036
    -9.6763  -9.6736  -9.6717  -9.6577  -9.6182  -9.6153  -9.6076  -9.5972
    -9.5727  -9.5623  -9.5487  -9.5389  -9.5287  -9.5241  -9.5029  -9.4959
    -9.4935  -9.4754  -9.4750  -9.4455  -9.4446  -9.4363  -9.4321  -9.4314
    -9.4188  -9.4161  -9.4125  -9.3984  -9.3863  -9.3848  -9.3747  -9.3295
    -9.3078  -9.2773  -9.2474  -9.2286  -9.2233  -9.2025  -9.1798  -9.1680
    -9.1637  -9.1591  -9.1467  -9.1418  -9.1359  -9.1028  -9.0883  -9.0873
    -9.0504  -9.0453  -9.0437  -9.0409  -9.0252  -9.0246  -9.0118  -9.0076
    -8.9892  -8.9860  -8.9801  -8.9725  -8.9533  -8.9374  -8.9245  -8.9109
    -8.9068  -8.9037  -8.8898  -8.8770  -8.8756  -8.8653  -8.8566  -8.8446
    -8.8409  -8.8407  -8.8383  -8.8329  -8.8324  -8.8251  -8.8250  -8.8222
    -8.8141  -8.8013  -8.8001  -8.7957  -8.7942  -8.7942  -8.7902  -8.7804
    -8.7574  -8.7569  -8.7505  -8.7401  -8.7385  -8.7377  -8.7364  -8.7204
    -8.7119  -8.6913  -8.6894  -8.6866  -8.6824  -8.6777  -8.6607  -8.6500
    -8.6172  -8.6025  -8.5900  -8.5432  -8.4969  -8.4763  -8.4597  -8.4524
    -8.3998  -8.3857  -8.3635  -8.3149  -8.3051  -8.3024  -8.2434  -8.1978
    -8.1241  -8.1115  -8.0841  -8.0834  -8.0782  -8.0745  -8.0701  -8.0632
    -8.0617  -8.0542  -8.0196  -8.0194  -8.0158  -7.9288  -7.9241  -7.9043
    -7.8891  -7.8431  -7.8110  -7.8041  -7.7979  -7.7979  -7.7855  -7.7842
    -7.7785  -7.7717  -7.7716  -7.7585  -7.7554  -7.7541  -7.7498  -7.7481
    -7.7429  -7.7393  -7.7388  -7.7368  -7.7327  -7.7275  -7.7248  -7.7241
    -7.7223  -7.7205  -7.7169  -7.7159  -7.7140  -7.7130  -7.6977  -7.6976
    -7.6917  -7.6877  -7.6827  -7.6803  -7.6662  -7.6544  -7.6529  -7.6512
    -7.6507  -7.6264  -7.6220  -7.6206  -7.6205  -7.6181  -7.6146  -7.6119
    -7.5946  -7.5812  -7.5657  -7.5635  -7.5621  -7.5574  -7.5522  -7.5504
    -7.5482  -7.5408  -7.5371  -7.5334  -7.5198  -7.5194  -7.5094  -7.5075
    -7.4951  -7.4943  -7.4297  -7.4184  -7.4118  -7.4107  -7.4079  -7.4048
    -7.3817  -7.3343  -7.2424  -7.1593  -7.1357  -7.1286  -7.1272  -7.1227
    -7.1195  -7.1177  -7.0793  -7.0787  -7.0651  -7.0573  -7.0561  -7.0283
    -6.9987  -6.9961  -6.9827  -6.9782  -6.9718  -6.9488  -6.9369  -6.9314
    -6.9140  -6.9109  -6.8781  -6.8700  -6.8597  -6.8575  -6.8376  -6.8353
    -6.8295  -6.8150  -6.8115  -6.8011  -6.7926  -6.7715  -6.7354  -6.7280
    -6.7172  -6.6940  -6.6444  -6.6239  -6.6151  -6.5988  -6.5956  -6.5935
    -6.5772  -6.5625  -6.5617  -6.5610  -6.5600  -6.5592  -6.5442  -6.5438
    -6.5426  -6.5425  -6.5351  -6.5348  -6.5346  -6.5345  -6.5339  -6.5148
    -6.4819  -6.4652  -6.3874  -6.3801  -6.3637  -6.3362  -6.2941  -6.2864
    -6.2784  -6.2753  -6.2706  -6.2653  -6.2508  -6.2491  -6.2333  -6.2324
    -6.2286  -6.2277  -6.2232  -6.2180  -6.2091  -6.1942  -6.1776  -6.1698
    -6.1618  -6.1554  -6.1529  -6.1458  -6.1454  -5.9554  -5.9501  -5.9404
    -5.9122  -5.9007  -5.8556  -5.8497  -5.8137  -5.8022  -5.8020  -5.7109
    -5.6789  -5.6740  -5.6331  -5.6004  -5.5620  -5.5464  -5.4454  -5.3728
    -5.3654  -4.3794  -4.0504  -4.0496  -4.0356  -4.0187  -3.8947  -3.8821
    -3.8761  -3.8757  -3.8480  -3.8167  -3.7973  -3.7961  -3.7833  -3.7793
    -3.7666  -3.7637  -3.7537  -3.7531  -3.7412  -3.7201  -3.6509  -3.6448
    -3.6406  -3.6199  -3.5712  -3.5623  -3.5563  -3.5540  -3.5513  -3.5447
    -3.5073  -3.5056  -3.4879  -3.4731  -3.4724  -3.4693  -3.4671  -3.4646
    -3.4461  -3.4359  -3.4341  -3.4295  -3.4294  -3.4256  -3.4198  -3.4187
    -3.4010  -3.3976  -3.3958  -3.3821  -3.3700  -3.3700  -3.3629  -3.3553
    -3.3161  -3.3068  -3.3029  -3.2986  -3.2979  -3.2961  -3.2940  -3.2914
    -3.2850  -3.2627  -3.2506  -3.2441  -3.2386  -3.2347  -3.2337  -3.2327
    -3.2296  -3.2269  -3.2165  -3.1982  -3.1924  -3.1880  -3.1868  -3.1800
    -3.1728  -3.1687  -3.1661  -3.1636  -3.1509  -3.1443  -3.1400  -3.1334
    -3.1303  -3.1243  -3.1161  -3.1159  -3.1118  -3.1117  -3.0843  -3.0601
    -3.0513  -3.0413  -3.0232  -3.0230  -3.0202  -3.0150  -3.0049  -2.9841
    -2.9801  -2.9768  -2.9766  -2.9753  -2.9741  -2.9692  -2.9666  -2.9613
    -2.9591  -2.9572  -2.9489  -2.9439  -2.9420  -2.9338  -2.9330  -2.9279
    -2.9237  -2.9210  -2.9199  -2.9187  -2.9104  -2.9052  -2.9006  -2.8991
    -2.8928  -2.8910  -2.8848  -2.8773  -2.8667  -2.8525  -2.8490  -2.8387
    -2.8341  -2.8309  -2.8301  -2.8117  -2.7991  -2.7529  -2.7508  -2.7404
    -2.7381  -2.6982  -2.6780  -2.6702  -2.6631  -2.5909  -2.5672  -2.5651
    -2.5423  -2.5286  -2.5185  -2.5086  -2.4976  -2.4923  -2.4869  -2.4820
    -2.4796  -2.4786  -2.4728  -2.4706  -2.3604  -2.3544  -2.3498  -2.3475
    -2.3315  -2.3292  -2.3143  -2.3023

          k =-0.5000-0.8660 0.0000 (386352 PWs)   bands (ev):

  -102.2445 -88.6786 -70.5579 -70.5567 -70.5540 -70.5525 -70.5276 -70.5269
   -70.5112 -66.5754 -66.5753 -66.5753 -66.5751 -66.5740 -66.5740 -66.5725
   -66.5674 -66.5649 -66.5647 -66.5647 -66.5646 -66.5645 -66.5633 -66.5633
   -66.5496 -66.5496 -66.5496 -66.5496 -66.5496 -66.5496 -66.5493 -66.5493
   -66.5482 -66.5482 -66.5482 -66.5482 -66.5478 -66.5452 -66.5451 -66.5451
   -66.5449 -66.5447 -66.5438 -66.5437 -66.5409 -66.5391 -66.5389 -66.5389
   -66.5389 -66.5388 -66.5387 -66.5387 -66.5384 -66.5375 -66.5375 -66.5375
   -66.5375 -66.5357 -66.5344 -66.5344 -66.5343 -66.5342 -66.5330 -66.5330
   -66.5304 -66.5261 -66.5239 -66.5211 -66.5156 -66.5152 -66.5119 -66.4949
   -66.4938 -56.5034 -56.4757 -56.4743 -54.4999 -54.4726 -54.4698 -40.8773
   -40.8773 -40.8772 -40.8772 -40.8772 -40.8772 -40.8771 -40.8768 -40.8765
   -40.8765 -40.8765 -40.8765 -40.8625 -40.8578 -40.8568 -40.8556 -40.8504
   -40.8504 -40.8504 -40.8502 -40.8497 -40.8496 -40.8384 -40.8384 -40.8382
   -40.8382 -40.8376 -40.8376 -40.8371 -40.8355 -40.8116 -40.8059 -40.7877
   -40.7877 -40.7877 -40.7877 -40.7876 -40.7875 -40.7875 -40.7875 -40.7869
   -40.7869 -40.7869 -40.7869 -40.7663 -40.7651 -40.7640 -40.7624 -40.7538
   -40.7311 -40.7290 -40.7290 -40.7289 -40.7288 -40.7283 -40.7283 -40.7195
   -40.7194 -40.7194 -40.7193 -40.7192 -40.7185 -40.7185 -40.7121 -40.7081
   -40.7081 -40.7080 -40.7080 -40.7074 -40.7074 -40.6999 -40.6951 -40.6846
   -40.6797 -40.6786 -40.6785 -40.6785 -40.6785 -40.6785 -40.6785 -40.6782
   -40.6782 -40.6778 -40.6778 -40.6778 -40.6778 -40.6772 -40.6742 -40.6698
   -40.6698 -40.6698 -40.6695 -40.6690 -40.6690 -40.6654 -40.6639 -40.6579
   -40.6579 -40.6578 -40.6578 -40.6577 -40.6575 -40.6575 -40.6575 -40.6574
   -40.6573 -40.6573 -40.6571 -40.6570 -40.6570 -40.6567 -40.6567 -40.6567
   -40.6567 -40.6556 -40.6547 -40.6488 -40.6488 -40.6487 -40.6487 -40.6480
   -40.6480 -40.6467 -40.6462 -40.6399 -40.6357 -40.6349 -40.6329 -40.6272
   -40.6270 -40.6270 -40.6270 -40.6269 -40.6269 -40.6267 -40.6266 -40.6260
   -40.6260 -40.6260 -40.6260 -40.6127 -40.6085 -40.6056 -40.6010 -40.5922
   -40.5922 -40.5922 -40.5922 -40.5921 -40.5921 -40.5921 -40.5921 -40.5912
   -40.5912 -40.5912 -40.5912 -40.5801 -40.5801 -40.5801 -40.5798 -40.5791
   -40.5790 -40.5731 -40.5704 -40.5697 -40.5660 -40.5608 -40.5608 -40.5607
   -40.5604 -40.5598 -40.5597 -40.5549 -40.5529 -40.5438 -40.5438 -40.5436
   -40.5436 -40.5427 -40.5427 -40.5422 -40.5365 -40.5170 -40.5131 -40.5131
   -40.5131 -40.5128 -40.5121 -40.5120 -40.5114 -40.4896 -40.4871 -19.9166
   -19.8481 -19.8193 -19.7924 -19.7193 -19.7002 -19.6127 -19.6056 -19.4344
   -19.4145 -19.3772 -19.3634 -19.2847 -19.2746 -19.1847 -19.1809 -18.8830
   -18.8020 -18.7745 -18.7407 -18.7148 -18.6941 -18.6779 -18.6765 -18.6756
   -18.6607 -18.6376 -18.6318 -18.6043 -18.6039 -18.5954 -18.5841 -18.5517
   -18.5436 -18.5167 -18.5124 -18.5096 -18.5071 -18.4837 -18.4803 -18.4550
   -18.4533 -18.4347 -18.4310 -18.4202 -18.4133 -18.3650 -18.3634 -18.3612
   -18.3586 -18.3207 -18.3082 -18.2890 -18.2840 -18.2695 -18.2418 -18.2156
   -18.2061 -18.2004 -18.1959 -18.1564 -18.1505 -18.1362 -18.1307 -18.0933
   -18.0904 -18.0732 -18.0640 -18.0607 -18.0575 -18.0545 -18.0521 -18.0458
   -18.0391 -18.0286 -18.0246 -18.0226 -18.0223 -18.0130 -18.0121 -18.0018
   -17.9981 -17.9960 -17.9926 -17.9662 -17.9639 -17.9607 -17.9592 -17.9556
   -17.9552 -17.9510 -17.9487 -17.9390 -17.9382 -17.9039 -17.9002 -17.8925
   -17.8918 -17.8844 -17.8811 -17.8477 -17.8472 -17.8379 -17.8347 -17.8089
   -17.8051 -17.8001 -17.7972 -17.7905 -17.7807 -17.7755 -17.7752 -17.7747
   -17.7739 -17.7728 -17.7688 -17.7600 -17.7584 -17.7393 -17.7386 -17.7152
   -17.7149 -17.6957 -17.6948 -17.6820 -17.6811 -17.6754 -17.6752 -11.9812
   -11.6876 -11.6630 -11.5907 -11.5808 -11.5361 -11.4807 -11.4756 -11.4669
   -11.4493 -11.4460 -11.4442 -11.4364 -11.4243 -11.4092 -11.3921 -11.3454
   -11.3422 -11.3318 -11.3283 -11.3020 -11.2845 -11.2778 -11.2729 -11.2498
   -11.2406 -11.2321 -11.2250 -11.2181 -11.2166 -11.2083 -11.2037 -11.1900
   -11.1629 -11.1595 -11.1546 -11.1480 -11.1414 -11.1272 -11.1241 -11.1229
   -11.1215 -11.1022 -11.1011 -11.0765 -11.0721 -11.0403 -11.0317 -11.0286
   -11.0146 -10.9695 -10.9428 -10.9140 -10.9003 -10.8926 -10.8880 -10.8704
   -10.8627 -10.8479 -10.8399 -10.8160 -10.8102 -10.8073 -10.7921 -10.7898
   -10.7842 -10.7774 -10.7753 -10.7673 -10.7667 -10.7663 -10.7643 -10.7538
   -10.7533 -10.7517 -10.7492 -10.7479 -10.7474 -10.7381 -10.7375 -10.7371
   -10.7343 -10.6991 -10.6991 -10.6990 -10.6985 -10.5273 -10.5048 -10.5024
   -10.5002 -10.4776 -10.4535 -10.4283 -10.3928 -10.3718 -10.3459 -10.2950
   -10.2830 -10.2085 -10.1853 -10.1118 -10.1087 -10.1009 -10.0938 -10.0708
   -10.0633 -10.0573 -10.0510 -10.0183 -10.0076  -9.9900  -9.9866  -9.9847
    -9.9798  -9.9772  -9.9708  -9.9467  -9.9405  -9.8990  -9.8940  -9.8831
    -9.8729  -9.8665  -9.8607  -9.8480  -9.8439  -9.8128  -9.8122  -9.7900
    -9.7854  -9.7694  -9.7582  -9.7490  -9.7340  -9.7321  -9.7184  -9.6986
    -9.6913  -9.6546  -9.6486  -9.6396  -9.6336  -9.6127  -9.5998  -9.5875
    -9.5804  -9.5670  -9.5656  -9.5318  -9.5269  -9.5170  -9.5063  -9.4964
    -9.4921  -9.4855  -9.4760  -9.4462  -9.4452  -9.4361  -9.4320  -9.4271
    -9.4246  -9.4150  -9.4124  -9.4081  -9.4057  -9.3842  -9.3813  -9.3314
    -9.3312  -9.3103  -9.2918  -9.2347  -9.2236  -9.1935  -9.1865  -9.1821
    -9.1781  -9.1528  -9.1433  -9.1320  -9.1288  -9.1143  -9.1054  -9.0823
    -9.0721  -9.0474  -9.0410  -9.0365  -9.0295  -9.0106  -9.0060  -8.9946
    -8.9907  -8.9889  -8.9805  -8.9474  -8.9426  -8.9281  -8.9235  -8.9086
    -8.9071  -8.8915  -8.8900  -8.8738  -8.8657  -8.8466  -8.8450  -8.8434
    -8.8431  -8.8375  -8.8331  -8.8273  -8.8263  -8.8228  -8.8214  -8.8185
    -8.8131  -8.8107  -8.8022  -8.7957  -8.7955  -8.7897  -8.7889  -8.7831
    -8.7674  -8.7495  -8.7478  -8.7428  -8.7417  -8.7397  -8.7394  -8.7188
    -8.7174  -8.6892  -8.6891  -8.6830  -8.6813  -8.6702  -8.6627  -8.6155
    -8.6112  -8.6049  -8.5948  -8.5575  -8.5417  -8.4596  -8.4592  -8.4097
    -8.4032  -8.3702  -8.3554  -8.3062  -8.3042  -8.2641  -8.2588  -8.2229
    -8.2028  -8.1109  -8.1037  -8.0836  -8.0834  -8.0750  -8.0744  -8.0637
    -8.0631  -8.0505  -8.0184  -8.0107  -7.9905  -7.9423  -7.9335  -7.9179
    -7.9092  -7.8438  -7.8374  -7.8037  -7.7971  -7.7901  -7.7857  -7.7830
    -7.7811  -7.7678  -7.7631  -7.7599  -7.7572  -7.7532  -7.7507  -7.7462
[...]
     atom  169 type  1   force =     0.00000062   -0.00000058    0.00068855
     atom  170 type  1   force =    -0.00001125   -0.00001645    0.00000734
     atom  171 type  2   force =    -0.00000390   -0.00000007    0.00000440
     atom  172 type  2   force =    -0.00000048    0.00000027    0.00161532
     atom  173 type  2   force =    -0.00000067   -0.00000019   -0.00235926
     atom  174 type  2   force =    -0.00000464   -0.00000074   -0.00000470
     atom  175 type  1   force =     0.00000364   -0.00000933    0.00002178
     atom  176 type  1   force =    -0.00015173    0.00007547    0.00009000
     atom  177 type  2   force =     0.00038184   -0.00037254   -0.00027211
     atom  178 type  2   force =     0.00001366   -0.00000577    0.00002602
     atom  179 type  2   force =     0.00000174    0.00000275    0.00000069
     atom  180 type  2   force =     0.00000718    0.00002495   -0.00007433
     atom  181 type  1   force =     0.00000101   -0.00000051    0.00068851
     atom  182 type  1   force =    -0.00000743   -0.00000819   -0.00000078
     atom  183 type  2   force =    -0.00000237   -0.00000106    0.00000479
     atom  184 type  2   force =    -0.00000058    0.00000039    0.00161538
     atom  185 type  2   force =    -0.00000070   -0.00000009   -0.00235933
     atom  186 type  2   force =    -0.00000240   -0.00000321   -0.00000200
     atom  187 type  1   force =    -0.00000577    0.00000826    0.00002133
     atom  188 type  1   force =    -0.00004403   -0.00002622   -0.00024213
     atom  189 type  2   force =    -0.00013143    0.00051638   -0.00027240
     atom  190 type  2   force =    -0.00000946   -0.00000573    0.00002537
     atom  191 type  2   force =    -0.00000277   -0.00000196   -0.00000124
     atom  192 type  2   force =     0.00002583   -0.00000599   -0.00007505
     atom  193 type  3   force =     0.00001108    0.00000732   -0.00026861
     atom  194 type  4   force =    -0.00032825   -0.00019076   -0.00025414

     Total force =     0.004073     Total SCF correction =     0.000354
     Energy error            =      4.6E-05 Ry
     Gradient error          =      9.7E-04 Ry/Bohr

     bfgs converged in  16 scf cycles and  15 bfgs steps
     (criteria: energy <  1.0E-04 Ry, force <  1.0E-03 Ry/Bohr)

     End of BFGS Geometry Optimization

     Final energy             =  -33980.2822792489 Ry

     File ./outdir/pwscf.bfgs deleted, as requested
Begin final coordinates

ATOMIC_POSITIONS (angstrom)
Mo               0.0000119917        1.8193638619       -9.1672481230    0   0   0
Mo               1.5756136568        0.9097075315       -3.0554901653    0   0   0
S                0.0000188998        1.8193822938       -4.6232556019    0   0   0
S                1.5756321638        0.9096773839       -7.6014065489    0   0   0
S                1.5756326175        0.9096785128      -10.7330757790    0   0   0
S                0.0000189190        1.8193860094       -1.4877129945    0   0   0
Mo               0.0002324912        1.8194329012        3.0562227127
Mo               1.5558651487        0.9025135145        9.1621593106
S                0.0019961714        1.8223061536        7.5779862416
S                1.5764177018        0.9100039935        4.6239726012
S                1.5757545523        0.9097234179        1.4884197701
S               -0.0236238734        1.8071351186       10.7276626743
Mo              -1.5756053507        4.5484193819       -9.1672481230    0   0   0
Mo               0.0000378379        3.6387394919       -3.0554952701    0   0   0
S               -1.5755913433        4.5484363582       -4.6232494962    0   0   0
S                0.0000148214        3.6387329039       -7.6014065489    0   0   0
S                0.0000152751        3.6387340328      -10.7330757790    0   0   0
S               -1.5755906502        4.5484413613       -1.4877305502    0   0   0
Mo              -1.5753415394        4.5485662962        3.0559684301
Mo              -0.0103700561        3.6280348738        9.1629032767
S               -1.5766341115        4.5478235610        7.5885042073
S                0.0006385835        3.6391725439        4.6236496846
S                0.0001822437        3.6387382513        1.4882798158
S               -1.5818581452        4.5448101873       10.7281929943
Mo              -3.1512226931        7.2774749019       -9.1672481230    0   0   0
Mo              -1.5755910988        6.3678216792       -3.0555115988    0   0   0
S               -3.1512162438        7.2774954350       -4.6232578178    0   0   0
S               -1.5756025210        6.3677884239       -7.6014065489    0   0   0
S               -1.5756020673        6.3677895528      -10.7330757790    0   0   0
S               -3.1512127704        7.2774877076       -1.4877200710    0   0   0
Mo              -3.1510471150        7.2776243498        3.0562223177
Mo              -1.5900597170        6.3641440162        9.1628999540
S               -3.1476821073        7.2777225175        7.5779851650
S               -1.5749060687        6.3681020457        4.6236510167
S               -1.5755093279        6.3679255721        1.4882805695
S               -3.1736289245        7.2631178709       10.7276597059
Mo              -4.7268400355       10.0065304219       -9.1672481230    0   0   0
Mo              -3.1512405618        9.0968403586       -3.0554816746    0   0   0
S               -4.7268341792       10.0065523623       -4.6232463762    0   0   0
S               -3.1512198634        9.0968439439       -7.6014065489    0   0   0
S               -3.1512194097        9.0968450728      -10.7330757790    0   0   0
S               -4.7268370797       10.0065537885       -1.4877176751    0   0   0
Mo              -4.7265818886       10.0066727180        3.0562075132
Mo              -3.1673071085        9.0833057459        9.1621564720
S               -4.7305554897       10.0043821309        7.5849648605
S               -3.1505385958        9.0973561130        4.6239731114
S               -3.1511140863        9.0969220669        1.4884160534
S               -4.7341854983       10.0022867228       10.7266081133
Mo               3.1512517547        1.8193638619       -9.1672481230    0   0   0
Mo               4.7269020221        0.9097289540       -3.0554823951    0   0   0
S                3.1512612351        1.8193882564       -4.6232320683    0   0   0
S                4.7268719268        0.9096773839       -7.6014065489    0   0   0
S                4.7268723805        0.9096785128      -10.7330757790    0   0   0
S                3.1512592485        1.8193890201       -1.4877261251    0   0   0
Mo               3.1515517991        1.8194421063        3.0559981783
Mo               4.7265463289        0.9094860284        9.2173482146
S                3.1748239426        1.8071759271        7.6394333418
S                4.7271167610        0.9098137232        4.6238764059
S                4.7268553979        0.9096644700        1.4879086736
S                3.0244412204        1.8776098154       10.8039919838
Mo               1.5756344123        4.5484193819       -9.1672481230    0   0   0
Mo               3.1512756394        3.6387769522       -3.0554814834    0   0   0
S                1.5756504879        4.5484423799       -4.6232390542    0   0   0
S                3.1512545844        3.6387329039       -7.6014065489    0   0   0
S                3.1512550381        3.6387340328      -10.7330757790    0   0   0
S                1.5756466253        4.5484431864       -1.4877251801    0   0   0
Mo               1.5759225962        4.5486237637        3.0559462214
Mo               3.1507990168        3.6448571993        9.1764537317
S                1.5751768067        4.5713023822        7.6298294403
S                3.1508672654        3.6383639742        4.6248762478
S                3.1515257358        3.6388345949        1.4884946373
S                1.5611689493        4.4561313550       10.7826565628
Mo               0.0000170699        7.2774749019       -9.1672481230    0   0   0
Mo               1.5756764447        6.3678236689       -3.0554877708    0   0   0
S                0.0000381981        7.2774979204       -4.6232454413    0   0   0
S                1.5756372420        6.3677884239       -7.6014065489    0   0   0
S                1.5756376957        6.3677895528      -10.7330757790    0   0   0
S                0.0000328088        7.2774946042       -1.4877307940    0   0   0
Mo               0.0003436803        7.2776134716        3.0559465822
Mo               1.5744391452        6.3670954723        9.2174263347
S                0.0196082482        7.2656301251        7.6298279796
S                1.5760938646        6.3680469452        4.6236888542
S                1.5755842740        6.3677526647        1.4878314250
S               -0.0871393141        7.3110873110       10.7826528952
Mo              -1.5756002725       10.0065304219       -9.1672481230    0   0   0
Mo               0.0000873425        9.0968676911       -3.0554912329    0   0   0
S               -1.5755883952       10.0065504530       -4.6232240150    0   0   0
S                0.0000198996        9.0968439439       -7.6014065489    0   0   0
S                0.0000203533        9.0968450728      -10.7330757790    0   0   0
S               -1.5755859047       10.0065492576       -1.4877362381    0   0   0
Mo              -1.5753780287       10.0067430388        3.0559973989
Mo               0.0050978055        9.0933839688        9.1764475828
S               -1.5743658473       10.0330346900        7.6394300793
S               -0.0004902796        9.0966877215        4.6248778752
S                0.0002482985        9.0970229631        1.4884958955
S               -1.5885591565        9.8675727760       10.8039861361
Mo               6.3024915177        1.8193638619       -9.1672481230    0   0   0
Mo               7.8781001445        0.9096521684       -3.0554919963    0   0   0
S                6.3025008696        1.8193826232       -4.6232480596    0   0   0
S                7.8781116898        0.9096773839       -7.6014065489    0   0   0
S                7.8781121435        0.9096785128      -10.7330757790    0   0   0
S                6.3025042007        1.8193849068       -1.4877147524    0   0   0
Mo               6.3022956472        1.8192467797        3.0556974495
Mo               7.8973592555        0.9065275828        9.1695579518
S                6.2817155009        1.8073678818        7.6433049386
S                7.8773502737        0.9098864301        4.6241534430
S                7.8780472709        0.9092666820        1.4884299635
S                6.4372291688        1.8971536319       10.8069494886
Mo               4.7268741753        4.5484193819       -9.1672481230    0   0   0
Mo               6.3024679138        3.6387501714       -3.0554895197    0   0   0
S                4.7268748770        4.5484386753       -4.6232519432    0   0   0
S                6.3024943474        3.6387329039       -7.6014065489    0   0   0
S                6.3024948011        3.6387340328      -10.7330757790    0   0   0
S                4.7268770533        4.5484432419       -1.4877137856    0   0   0
Mo               4.7266470796        4.5482771515        3.0568138412
Mo               6.3093875478        3.6569798053        9.1695591973
S                4.7251755322        4.5511684973        7.5973098316
S                6.3022977479        3.6379647040        4.6241514356
S                6.3021095899        3.6388776948        1.4884264323
S                4.7298792612        4.5510555149       10.7356687492
Mo               3.1512568329        7.2774749019       -9.1672481230    0   0   0
Mo               4.7268384135        6.3678043337       -3.0554959052    0   0   0
S                3.1512606125        7.2774972547       -4.6232589675    0   0   0
S                4.7268770050        6.3677884239       -7.6014065489    0   0   0
S                4.7268774587        6.3677895528      -10.7330757790    0   0   0
S                3.1512629079        7.2774963749       -1.4877081835    0   0   0
Mo               3.1511322168        7.2773964808        3.0554056409
Mo               4.7403840735        6.3690454247        9.1718709349
S                3.1350966639        7.2681437058        7.6371442118
S                4.7262254199        6.3681320231        4.6238197690
S                4.7268585810        6.3672897955        1.4881854480
S                3.2458109747        7.3320673743       10.7862986877
Mo               1.5756394905       10.0065304219       -9.1672481230    0   0   0
Mo               3.1512330605        9.0968514907       -3.0554878870    0   0   0
S                1.5756499830       10.0065443759       -4.6232632674    0   0   0
S                3.1512596626        9.0968439439       -7.6014065489    0   0   0
S                3.1512601163        9.0968450728      -10.7330757790    0   0   0
S                1.5756503041       10.0065459699       -1.4877044377    0   0   0
Mo               1.5754089987       10.0063973414        3.0568158048
Mo               3.1591006065        9.1079162835        9.1718687436
S                1.5771709082       10.0036864503        7.5973069793
S                3.1512370417        9.0961010175        4.6238209923
S                3.1508240570        9.0970715013        1.4881869097
S                1.5794245426       10.0078155069       10.7356667609
Mo               9.4537312807        1.8193638619       -9.1672481230    0   0   0
Mo              11.0293863460        0.9096952246       -3.0554894007    0   0   0
S                9.4537395970        1.8193770750       -4.6232328036    0   0   0
S               11.0293514528        0.9096773839       -7.6014065489    0   0   0
S               11.0293519066        0.9096785128      -10.7330757790    0   0   0
S                9.4537393632        1.8193794783       -1.4877366147    0   0   0
Mo               9.4535018270        1.8192151868        3.0559689943
Mo              11.0304680518        0.9105592355        9.1437843156
S                9.4493605142        1.8203627489        7.5810547167
S               11.0291754986        0.9093527157        4.6233622858
S               11.0294060658        0.9097694752        1.4883145381
S                9.4759599539        1.8209570858       10.7254414270
Mo               7.8781139383        4.5484193819       -9.1672481230    0   0   0
Mo               9.4537539161        3.6387607911       -3.0554933032    0   0   0
S                7.8781175448        4.5484378232       -4.6232366318    0   0   0
S                9.4537341104        3.6387329039       -7.6014065489    0   0   0
S                9.4537345641        3.6387340328      -10.7330757790    0   0   0
S                7.8781194018        4.5484411585       -1.4877377057    0   0   0
Mo               7.8778745444        4.5482859163        3.0559687200
Mo               9.4530496803        3.6383399951        9.1554086996
S                7.8767918460        4.5441322662        7.5810551103
S                9.4537461252        3.6387370187        4.6230198478
S                9.4537715428        3.6387510126        1.4882438819
S                7.8906067644        4.5668751619       10.7254399966
Mo               6.3024965959        7.2774749019       -9.1672481230    0   0   0
Mo               7.8781361655        6.3678242352       -3.0555014130    0   0   0
S                6.3024973331        7.2774953556       -4.6232392528    0   0   0
S                7.8781167680        6.3677884239       -7.6014065489    0   0   0
S                7.8781172217        6.3677895528      -10.7330757790    0   0   0
S                6.3024989866        7.2774929744       -1.4877349119    0   0   0
Mo               6.3022446346        7.2773979067        3.0557345120
Mo               7.8794356621        6.3683175827        9.1437824881
S                6.2948527652        7.2780739537        7.5841382021
S                7.8777509076        6.3677924026        4.6233611218
S                7.8782268192        6.3677837178        1.4883148253
S                6.3207846942        7.2801326901       10.7265462545
Mo               4.7268792535       10.0065304219       -9.1672481230    0   0   0
Mo               6.3025111524        9.0968738021       -3.0554915260    0   0   0
S                4.7268840634       10.0065452125       -4.6232380477    0   0   0
S                6.3024994256        9.0968439439       -7.6014065489    0   0   0
S                6.3024998793        9.0968450728      -10.7330757790    0   0   0
S                4.7268847312       10.0065459141       -1.4877283294    0   0   0
Mo               4.7266921489       10.0063425029        3.0557357153
Mo               6.3011913712        9.0960919055        9.1561793004
S                4.7235759959        9.9996159335        7.5841384774
S                6.3023726207        9.0967663644        4.6230342236
S                6.3026736882        9.0969414479        1.4881506189
S                4.7383223414       10.0210397787       10.7265474895
Pd               1.5842110181        6.3727339072       12.1107601630
Pt               4.7396132033        0.9170359315       11.9727402302
End final coordinates



     Writing all to output data dir ./outdir/pwscf.save/ :
     XML data file, charge density, pseudopotentials, collected wavefunctions
 
     init_run     :    176.35s CPU    179.62s WALL (       1 calls)
     electrons    : 136229.24s CPU 137936.68s WALL (      16 calls)
     update_pot   :     25.51s CPU     26.37s WALL (      15 calls)
     forces       :   2089.86s CPU   2126.96s WALL (      16 calls)
     force_dftd3  :     10.75s CPU     11.34s WALL (      16 calls)

     Called by init_run:
     wfcinit      :    152.50s CPU    154.35s WALL (       1 calls)
     potinit      :      1.31s CPU      1.41s WALL (       1 calls)
     hinit0       :     12.82s CPU     12.89s WALL (       1 calls)

     Called by electrons:
     c_bands      : 120171.09s CPU 121305.80s WALL (     223 calls)
     sum_band     :  14338.31s CPU  14630.63s WALL (     223 calls)
     v_of_rho     :     81.09s CPU     91.55s WALL (     229 calls)
     newd         :   1446.86s CPU   1719.73s WALL (     229 calls)
     PAW_pot      :    216.37s CPU    218.50s WALL (     244 calls)
     mix_rho      :     22.99s CPU     26.28s WALL (     223 calls)
     energy_dftd3 :      6.20s CPU      6.24s WALL (      16 calls)

     Called by c_bands:
     init_us_2    :    477.64s CPU    480.21s WALL (    1912 calls)
     init_us_2:cp :    477.62s CPU    480.18s WALL (    1912 calls)
     cegterg      : 118087.45s CPU 119209.05s WALL (     914 calls)

     Called by *egterg:
     cdiaghg      :   6719.46s CPU   6957.99s WALL (   10869 calls)
     h_psi        :  60008.02s CPU  60385.40s WALL (   10981 calls)
     s_psi        :  13938.51s CPU  14022.64s WALL (   10981 calls)
     g_psi        :    105.52s CPU    106.00s WALL (   10063 calls)

     Called by h_psi:
     h_psi:calbec :  13667.11s CPU  13713.31s WALL (   10981 calls)
     vloc_psi     :  32091.71s CPU  32251.61s WALL (   10981 calls)
     add_vuspsi   :  14006.11s CPU  14092.81s WALL (   10981 calls)

     General routines
     calbec       :  19602.14s CPU  19668.17s WALL (   12189 calls)
     fft          :     76.25s CPU     85.54s WALL (    3146 calls)
     ffts         :      4.10s CPU      4.35s WALL (     452 calls)
     fftw         :  24193.68s CPU  24311.20s WALL ( 6314260 calls)
     interpolate  :      7.21s CPU      7.89s WALL (     229 calls)
 
     Parallel routines
 
     PWSCF        :   1d14h39m CPU   1d15h 9m WALL

 
   This run was terminated on:  19:17:33  17Mar2024            

=------------------------------------------------------------------------------=
   JOB DONE.
=------------------------------------------------------------------------------=
