
     Program PWSCF v.7.2 starts on 14Aug2023 at 15:14:25 

     This program is part of the open-source Quantum ESPRESSO suite
     for quantum simulation of materials; please cite
         "P. Giannozzi et al., J. Phys.:Condens. Matter 21 395502 (2009);
         "P. Giannozzi et al., J. Phys.:Condens. Matter 29 465901 (2017);
         "P. Giannozzi et al., J. Chem. Phys. 152 154105 (2020);
          URL http://www.quantum-espresso.org", 
     in publications or presentations arising from this work. More details at
     http://www.quantum-espresso.org/quote

     Parallel version (MPI), running on    36 processors

     MPI processes distributed on     1 nodes
     770379 MiB available memory on the printing compute node when the environment starts
 
     Waiting for input...
     Reading input from standard input
Warning: card &CELL ignored
Warning: card / ignored

     Current dimensions of program PWSCF are:
     Max number of different atomic species (ntypx) = 10
     Max number of k-points (npk) =  40000
     Max angular momentum in pseudopotentials (lmaxx) =  4
     file Mo.pbe-spn-kjpaw_psl.1.0.0.UPF: wavefunction(s)  4S 4D renormalized
     file S.pbe-n-kjpaw_psl.1.0.0.UPF: wavefunction(s)  3S 3P renormalized
     file Pd.pbe-spn-kjpaw_psl.1.0.0.UPF: wavefunction(s)  4S 5S 4D renormalized
 
     R & G space division:  proc/nbgrp/npool/nimage =      36
     Subspace diagonalization in iterative solution of the eigenvalue problem:
     one sub-group per band group will be used
     custom distributed-memory algorithm (size of sub-group:  6*  6 procs)

 
     Parallelization info
     --------------------
     sticks:   dense  smooth     PW     G-vecs:    dense   smooth      PW
     Min         585     334     89               198743    85850   11735
     Max         586     335     90               198750    85861   11748
     Sum       21073   12049   3205              7154885  3090769  422587
 
     Using Slab Decomposition
 


     bravais-lattice index     =            0
     lattice parameter (alat)  =      23.8199  a.u.
     unit-cell volume          =   33861.0370 (a.u.)^3
     number of atoms/cell      =          193
     number of atomic types    =            3
     number of electrons       =      1682.00
     number of Kohn-Sham states=         1009
     kinetic-energy cutoff     =      77.0000  Ry
     charge density cutoff     =     539.0000  Ry
     scf convergence threshold =      1.0E-06
     mixing beta               =       0.2000
     number of iterations used =            8  plain     mixing
     energy convergence thresh.=      1.0E-04
     force convergence thresh. =      1.0E-03
     Exchange-correlation= SLA  PW   PBX  PBC
                           (   1   4   3   4   0   0   0)
     nstep                     =         1000


     Effective Screening Medium Method
     =================================
     Boundary Conditions: Vacuum-Slab-Vacuum
     total charge in unit cell        =   0.0000
     grid points for fit at edges     =        4 
 

     celldm(1)=  23.819920  celldm(2)=   0.000000  celldm(3)=   0.000000
     celldm(4)=   0.000000  celldm(5)=   0.000000  celldm(6)=   0.000000

     crystal axes: (cart. coord. in units of alat)
               a(1) = (   1.000000   0.000000   0.000000 )  
               a(2) = (  -0.499999   0.866026   0.000000 )  
               a(3) = (   0.000000   0.000000   2.893000 )  

     reciprocal axes: (cart. coord. in units 2 pi/alat)
               b(1) = (  1.000000  0.577349  0.000000 )  
               b(2) = (  0.000000  1.154700  0.000000 )  
               b(3) = (  0.000000  0.000000  0.345662 )  


     PseudoPot. # 1 for Mo read from file:
     ./pseudo/Mo.pbe-spn-kjpaw_psl.1.0.0.UPF
     MD5 check sum: 317bf72632116215fd98f72de1686f13
     Pseudo is Projector augmented-wave + core cor, Zval = 14.0
     Generated using 'atomic' code by A. Dal Corso  v.7.2
     Shape of augmentation charge: PSQ
     Using radial grid of 1229 points,  6 beta functions with: 
                l(1) =   0
                l(2) =   0
                l(3) =   1
                l(4) =   1
                l(5) =   2
                l(6) =   2
     Q(r) pseudized with 0 coefficients 


     PseudoPot. # 2 for S  read from file:
     ./pseudo/S.pbe-n-kjpaw_psl.1.0.0.UPF
     MD5 check sum: 8b7b5302570d38d5e87fed6a1065abda
     Pseudo is Projector augmented-wave + core cor, Zval =  6.0
     Generated using 'atomic' code by A. Dal Corso  v.7.2
     Shape of augmentation charge: PSQ
     Using radial grid of 1151 points,  6 beta functions with: 
                l(1) =   0
                l(2) =   0
                l(3) =   1
                l(4) =   1
                l(5) =   2
                l(6) =   2
     Q(r) pseudized with 0 coefficients 


     PseudoPot. # 3 for Pd read from file:
     ./pseudo/Pd.pbe-spn-kjpaw_psl.1.0.0.UPF
     MD5 check sum: a60571a671f2502b8a6a4569d20a6edb
     Pseudo is Projector augmented-wave + core cor, Zval = 18.0
     Generated using 'atomic' code by A. Dal Corso  v.7.2
     Shape of augmentation charge: PSQ
     Using radial grid of 1235 points,  6 beta functions with: 
                l(1) =   0
                l(2) =   0
                l(3) =   1
                l(4) =   1
                l(5) =   2
                l(6) =   2
     Q(r) pseudized with 0 coefficients 


     atomic species   valence    mass     pseudopotential
        Mo            14.00    95.95000     Mo( 1.00)
        S              6.00    32.06000     S ( 1.00)
        Pd            18.00   106.42000     Pd( 1.00)

     No symmetry found



   Cartesian axes

     site n.     atom                  positions (alat units)
         1           Mo  tau(   1) = (   0.0000010   0.1443372  -0.7272732  )
         2           Mo  tau(   2) = (   0.1249995   0.0721706  -0.2424038  )
         3           S   tau(   3) = (   0.0000015   0.1443386  -0.3667807  )
         4           S   tau(   4) = (   0.1250010   0.0721682  -0.6030489  )
         5           S   tau(   5) = (   0.1250010   0.0721683  -0.8514963  )
         6           S   tau(   6) = (   0.0000015   0.1443389  -0.1180260  )
         7           Mo  tau(   7) = (   0.0000041   0.1443345   0.2424023  )
         8           Mo  tau(   8) = (   0.1250030   0.0721700   0.7272501  )
         9           S   tau(   9) = (   0.0000038   0.1443392   0.6028599  )
        10           S   tau(  10) = (   0.1250037   0.0721683   0.3667755  )
        11           S   tau(  11) = (   0.1250033   0.0721688   0.1180247  )
        12           S   tau(  12) = (   0.0000038   0.1443391   0.8517304  )
        13           Mo  tau(  13) = (  -0.1249989   0.3608437  -0.7272732  )
        14           Mo  tau(  14) = (   0.0000030   0.2886752  -0.2424042  )
        15           S   tau(  15) = (  -0.1249977   0.3608450  -0.3667802  )
        16           S   tau(  16) = (   0.0000012   0.2886747  -0.6030489  )
        17           S   tau(  17) = (   0.0000012   0.2886748  -0.8514963  )
        18           S   tau(  18) = (  -0.1249977   0.3608454  -0.1180274  )
        19           Mo  tau(  19) = (  -0.1249981   0.3608444   0.2424011  )
        20           Mo  tau(  20) = (   0.0000038   0.2886765   0.7272499  )
        21           S   tau(  21) = (  -0.1249961   0.3608457   0.6028596  )
        22           S   tau(  22) = (   0.0000037   0.2886752   0.3667739  )
        23           S   tau(  23) = (   0.0000035   0.2886747   0.1180263  )
        24           S   tau(  24) = (  -0.1249962   0.3608459   0.8517305  )
        25           Mo  tau(  25) = (  -0.2499987   0.5773502  -0.7272732  )
        26           Mo  tau(  26) = (  -0.1249977   0.5051839  -0.2424055  )
        27           S   tau(  27) = (  -0.2499981   0.5773518  -0.3667809  )
        28           S   tau(  28) = (  -0.1249986   0.5051812  -0.6030489  )
        29           S   tau(  29) = (  -0.1249986   0.5051813  -0.8514963  )
        30           S   tau(  30) = (  -0.2499979   0.5773512  -0.1180266  )
        31           Mo  tau(  31) = (  -0.2499983   0.5773503   0.2424020  )
        32           Mo  tau(  32) = (  -0.1249962   0.5051830   0.7272501  )
        33           S   tau(  33) = (  -0.2499958   0.5773522   0.6028593  )
        34           S   tau(  34) = (  -0.1249963   0.5051821   0.3667746  )
        35           S   tau(  35) = (  -0.1249968   0.5051820   0.1180254  )
        36           S   tau(  36) = (  -0.2499959   0.5773522   0.8517307  )
        37           Mo  tau(  37) = (  -0.3749985   0.7938567  -0.7272732  )
        38           Mo  tau(  38) = (  -0.2500001   0.7216874  -0.2424031  )
        39           S   tau(  39) = (  -0.3749980   0.7938584  -0.3667800  )
        40           S   tau(  40) = (  -0.2499984   0.7216877  -0.6030489  )
        41           S   tau(  41) = (  -0.2499984   0.7216878  -0.8514963  )
        42           S   tau(  42) = (  -0.3749982   0.7938585  -0.1180264  )
        43           Mo  tau(  43) = (  -0.3749976   0.7938584   0.2424002  )
        44           Mo  tau(  44) = (  -0.2499965   0.7216896   0.7272502  )
        45           S   tau(  45) = (  -0.3749954   0.7938586   0.6028596  )
        46           S   tau(  46) = (  -0.2499962   0.7216890   0.3667741  )
        47           S   tau(  47) = (  -0.2499961   0.7216884   0.1180258  )
        48           S   tau(  48) = (  -0.3749955   0.7938585   0.8517305  )
        49           Mo  tau(  49) = (   0.2500010   0.1443372  -0.7272732  )
        50           Mo  tau(  50) = (   0.3750034   0.0721723  -0.2424032  )
        51           S   tau(  51) = (   0.2500017   0.1443391  -0.3667788  )
        52           S   tau(  52) = (   0.3750010   0.0721682  -0.6030489  )
        53           S   tau(  53) = (   0.3750010   0.0721683  -0.8514963  )
        54           S   tau(  54) = (   0.2500016   0.1443391  -0.1180271  )
        55           Mo  tau(  55) = (   0.2500037   0.1443371   0.2424008  )
        56           Mo  tau(  56) = (   0.3750049   0.0721708   0.7272499  )
        57           S   tau(  57) = (   0.2500041   0.1443391   0.6028593  )
        58           S   tau(  58) = (   0.3750026   0.0721682   0.3667763  )
        59           S   tau(  59) = (   0.3750033   0.0721687   0.1180242  )
        60           S   tau(  60) = (   0.2500040   0.1443392   0.8517310  )
        61           Mo  tau(  61) = (   0.1250012   0.3608437  -0.7272732  )
        62           Mo  tau(  62) = (   0.2500029   0.2886782  -0.2424031  )
        63           S   tau(  63) = (   0.1250024   0.3608455  -0.3667794  )
        64           S   tau(  64) = (   0.2500012   0.2886747  -0.6030489  )
        65           S   tau(  65) = (   0.2500012   0.2886748  -0.8514963  )
        66           S   tau(  66) = (   0.1250021   0.3608455  -0.1180270  )
        67           Mo  tau(  67) = (   0.1250055   0.3608449   0.2424003  )
        68           Mo  tau(  68) = (   0.2500045   0.2886775   0.7272501  )
        69           S   tau(  69) = (   0.1250040   0.3608458   0.6028596  )
        70           S   tau(  70) = (   0.2500032   0.2886750   0.3667755  )
        71           S   tau(  71) = (   0.2500033   0.2886748   0.1180238  )
        72           S   tau(  72) = (   0.1250043   0.3608459   0.8517305  )
        73           Mo  tau(  73) = (   0.0000014   0.5773502  -0.7272732  )
        74           Mo  tau(  74) = (   0.1250045   0.5051840  -0.2424036  )
        75           S   tau(  75) = (   0.0000030   0.5773520  -0.3667799  )
        76           S   tau(  76) = (   0.1250014   0.5051812  -0.6030489  )
        77           S   tau(  77) = (   0.1250014   0.5051813  -0.8514963  )
        78           S   tau(  78) = (   0.0000026   0.5773517  -0.1180274  )
        79           Mo  tau(  79) = (   0.0000039   0.5773528   0.2424003  )
        80           Mo  tau(  80) = (   0.1250050   0.5051837   0.7272501  )
        81           S   tau(  81) = (   0.0000041   0.5773523   0.6028593  )
        82           S   tau(  82) = (   0.1250034   0.5051819   0.3667749  )
        83           S   tau(  83) = (   0.1250033   0.5051818   0.1180238  )
        84           S   tau(  84) = (   0.0000042   0.5773523   0.8517309  )
        85           Mo  tau(  85) = (  -0.1249984   0.7938567  -0.7272732  )
        86           Mo  tau(  86) = (   0.0000069   0.7216896  -0.2424039  )
        87           S   tau(  87) = (  -0.1249975   0.7938582  -0.3667782  )
        88           S   tau(  88) = (   0.0000016   0.7216877  -0.6030489  )
        89           S   tau(  89) = (   0.0000016   0.7216878  -0.8514963  )
        90           S   tau(  90) = (  -0.1249973   0.7938582  -0.1180279  )
        91           Mo  tau(  91) = (  -0.1249936   0.7938581   0.2424006  )
        92           Mo  tau(  92) = (   0.0000056   0.7216904   0.7272501  )
        93           S   tau(  93) = (  -0.1249955   0.7938586   0.6028591  )
        94           S   tau(  94) = (   0.0000039   0.7216883   0.3667759  )
        95           S   tau(  95) = (   0.0000039   0.7216885   0.1180233  )
        96           S   tau(  96) = (  -0.1249955   0.7938586   0.8517313  )
        97           Mo  tau(  97) = (   0.5000010   0.1443372  -0.7272732  )
        98           Mo  tau(  98) = (   0.6250001   0.0721662  -0.2424040  )
        99           S   tau(  99) = (   0.5000017   0.1443386  -0.3667801  )
       100           S   tau( 100) = (   0.6250010   0.0721682  -0.6030489  )
       101           S   tau( 101) = (   0.6250010   0.0721683  -0.8514963  )
       102           S   tau( 102) = (   0.5000020   0.1443388  -0.1180261  )
       103           Mo  tau( 103) = (   0.5000005   0.1443344   0.2424031  )
       104           Mo  tau( 104) = (   0.6250028   0.0721696   0.7272500  )
       105           S   tau( 105) = (   0.5000038   0.1443392   0.6028599  )
       106           S   tau( 106) = (   0.6250032   0.0721682   0.3667750  )
       107           S   tau( 107) = (   0.6250029   0.0721690   0.1180259  )
       108           S   tau( 108) = (   0.5000038   0.1443393   0.8517304  )
       109           Mo  tau( 109) = (   0.3750012   0.3608437  -0.7272732  )
       110           Mo  tau( 110) = (   0.4999991   0.2886761  -0.2424038  )
       111           S   tau( 111) = (   0.3750012   0.3608452  -0.3667804  )
       112           S   tau( 112) = (   0.5000012   0.2886747  -0.6030489  )
       113           S   tau( 113) = (   0.5000012   0.2886748  -0.8514963  )
       114           S   tau( 114) = (   0.3750014   0.3608455  -0.1180261  )
       115           Mo  tau( 115) = (   0.3750003   0.3608415   0.2424003  )
       116           Mo  tau( 116) = (   0.5000036   0.2886765   0.7272501  )
       117           S   tau( 117) = (   0.3750041   0.3608456   0.6028595  )
       118           S   tau( 118) = (   0.5000032   0.2886753   0.3667740  )
       119           S   tau( 119) = (   0.5000035   0.2886745   0.1180267  )
       120           S   tau( 120) = (   0.3750041   0.3608457   0.8517303  )
       121           Mo  tau( 121) = (   0.2500014   0.5773502  -0.7272732  )
       122           Mo  tau( 122) = (   0.3749983   0.5051825  -0.2424043  )
       123           S   tau( 123) = (   0.2500017   0.5773519  -0.3667810  )
       124           S   tau( 124) = (   0.3750014   0.5051812  -0.6030489  )
       125           S   tau( 125) = (   0.3750014   0.5051813  -0.8514963  )
       126           S   tau( 126) = (   0.2500018   0.5773519  -0.1180256  )
       127           Mo  tau( 127) = (   0.2500009   0.5773497   0.2423999  )
       128           Mo  tau( 128) = (   0.3750037   0.5051832   0.7272500  )
       129           S   tau( 129) = (   0.2500042   0.5773522   0.6028596  )
       130           S   tau( 130) = (   0.3750035   0.5051817   0.3667733  )
       131           S   tau( 131) = (   0.3750039   0.5051817   0.1180258  )
       132           S   tau( 132) = (   0.2500043   0.5773521   0.8517304  )
       133           Mo  tau( 133) = (   0.1250016   0.7938567  -0.7272732  )
       134           Mo  tau( 134) = (   0.2499995   0.7216883  -0.2424036  )
       135           S   tau( 135) = (   0.1250024   0.7938578  -0.3667813  )
       136           S   tau( 136) = (   0.2500016   0.7216877  -0.6030489  )
       137           S   tau( 137) = (   0.2500016   0.7216878  -0.8514963  )
       138           S   tau( 138) = (   0.1250024   0.7938579  -0.1180253  )
       139           Mo  tau( 139) = (   0.1250007   0.7938566   0.2424003  )
       140           Mo  tau( 140) = (   0.2500037   0.7216894   0.7272501  )
       141           S   tau( 141) = (   0.1250043   0.7938588   0.6028599  )
       142           S   tau( 142) = (   0.2500035   0.7216882   0.3667737  )
       143           S   tau( 143) = (   0.2500038   0.7216886   0.1180257  )
       144           S   tau( 144) = (   0.1250043   0.7938587   0.8517303  )
       145           Mo  tau( 145) = (   0.7500010   0.1443372  -0.7272732  )
       146           Mo  tau( 146) = (   0.8750038   0.0721696  -0.2424038  )
       147           S   tau( 147) = (   0.7500016   0.1443382  -0.3667789  )
       148           S   tau( 148) = (   0.8750010   0.0721682  -0.6030489  )
       149           S   tau( 149) = (   0.8750010   0.0721683  -0.8514963  )
       150           S   tau( 150) = (   0.7500016   0.1443384  -0.1180279  )
       151           Mo  tau( 151) = (   0.7500051   0.1443370   0.2424017  )
       152           Mo  tau( 152) = (   0.8750049   0.0721705   0.7272500  )
       153           S   tau( 153) = (   0.7500039   0.1443393   0.6028592  )
       154           S   tau( 154) = (   0.8750038   0.0721685   0.3667764  )
       155           S   tau( 155) = (   0.8750039   0.0721688   0.1180247  )
       156           S   tau( 156) = (   0.7500041   0.1443394   0.8517311  )
       157           Mo  tau( 157) = (   0.6250012   0.3608437  -0.7272732  )
       158           Mo  tau( 158) = (   0.7500028   0.2886769  -0.2424041  )
       159           S   tau( 159) = (   0.6250015   0.3608451  -0.3667792  )
       160           S   tau( 160) = (   0.7500012   0.2886747  -0.6030489  )
       161           S   tau( 161) = (   0.7500012   0.2886748  -0.8514963  )
       162           S   tau( 162) = (   0.6250016   0.3608454  -0.1180280  )
       163           Mo  tau( 163) = (   0.6250051   0.3608469   0.2424010  )
       164           Mo  tau( 164) = (   0.7500045   0.2886776   0.7272501  )
       165           S   tau( 165) = (   0.6250042   0.3608457   0.6028594  )
       166           S   tau( 166) = (   0.7500035   0.2886754   0.3667754  )
       167           S   tau( 167) = (   0.7500035   0.2886751   0.1180251  )
       168           S   tau( 168) = (   0.6250042   0.3608459   0.8517307  )
       169           Mo  tau( 169) = (   0.5000014   0.5773502  -0.7272732  )
       170           Mo  tau( 170) = (   0.6250029   0.5051841  -0.2424047  )
       171           S   tau( 171) = (   0.5000014   0.5773518  -0.3667794  )
       172           S   tau( 172) = (   0.6250014   0.5051812  -0.6030489  )
       173           S   tau( 173) = (   0.6250014   0.5051813  -0.8514963  )
       174           S   tau( 174) = (   0.5000016   0.5773516  -0.1180277  )
       175           Mo  tau( 175) = (   0.5000072   0.5773526   0.2424011  )
       176           Mo  tau( 176) = (   0.6250047   0.5051838   0.7272501  )
       177           S   tau( 177) = (   0.5000044   0.5773522   0.6028593  )
       178           S   tau( 178) = (   0.6250038   0.5051821   0.3667764  )
       179           S   tau( 179) = (   0.6250040   0.5051821   0.1180241  )
       180           S   tau( 180) = (   0.5000045   0.5773523   0.8517308  )
       181           Mo  tau( 181) = (   0.3750016   0.7938567  -0.7272732  )
       182           Mo  tau( 182) = (   0.5000025   0.7216901  -0.2424039  )
       183           S   tau( 183) = (   0.3750019   0.7938578  -0.3667793  )
       184           S   tau( 184) = (   0.5000016   0.7216877  -0.6030489  )
       185           S   tau( 185) = (   0.5000016   0.7216878  -0.8514963  )
       186           S   tau( 186) = (   0.3750020   0.7938579  -0.1180272  )
       187           Mo  tau( 187) = (   0.3750057   0.7938586   0.2424015  )
       188           Mo  tau( 188) = (   0.5000052   0.7216902   0.7272503  )
       189           S   tau( 189) = (   0.3750045   0.7938588   0.6028592  )
       190           S   tau( 190) = (   0.5000042   0.7216887   0.3667757  )
       191           S   tau( 191) = (   0.5000039   0.7216887   0.1180242  )
       192           S   tau( 192) = (   0.3750047   0.7938587   0.8517308  )
       193           Pd  tau( 193) = (   0.1250302   0.5051980   0.9707291  )

     --------------------------------------------
     DFT-D3 Dispersion Correction (3-body terms):
     --------------------------------------------
       Reference C6 values for interpolation: 

         atom   Coordination number   C6
         S          0.000           268.01
         S          0.995           261.99
         S          1.990           251.62
         Mo         0.000          1691.79
         Mo         1.942          1004.01
         Mo        11.056           674.22
         Pd         0.000          1217.01
         Pd         1.863           573.90
         Pd         5.710           531.75

       Values used:

         atom   Coordination number  R0_AB[au]  C6      C8
         Mo        10.208            3.547    674.22  77634.20
         Mo        10.221            3.547    674.22  77634.20
         S          3.858            3.128    251.62  12327.25
         S          3.859            3.128    251.62  12327.25
         S          3.758            3.128    251.62  12327.25
         S          3.859            3.128    251.62  12327.25
         Mo        10.221            3.547    674.21  77634.20
         Mo        10.206            3.547    674.22  77634.20
         S          3.856            3.128    251.62  12327.25
         S          3.859            3.128    251.62  12327.25
         S          3.859            3.128    251.62  12327.25
         S          3.755            3.128    251.62  12327.25
         Mo        10.208            3.547    674.22  77634.20
         Mo        10.221            3.547    674.22  77634.20
         S          3.858            3.128    251.62  12327.25
         S          3.859            3.128    251.62  12327.25
         S          3.758            3.128    251.62  12327.25
         S          3.859            3.128    251.62  12327.25
         Mo        10.221            3.547    674.22  77634.20
         Mo        10.215            3.547    674.22  77634.20
         S          3.857            3.128    251.62  12327.25
         S          3.859            3.128    251.62  12327.25
         S          3.859            3.128    251.62  12327.25
         S          3.764            3.128    251.62  12327.25
         Mo        10.208            3.547    674.22  77634.20
         Mo        10.221            3.547    674.22  77634.20
         S          3.858            3.128    251.62  12327.25
         S          3.859            3.128    251.62  12327.25
         S          3.758            3.128    251.62  12327.25
         S          3.859            3.128    251.62  12327.25
         Mo        10.221            3.547    674.22  77634.20
         Mo        10.215            3.547    674.22  77634.20
         S          3.856            3.128    251.62  12327.25
         S          3.859            3.128    251.62  12327.25
         S          3.859            3.128    251.62  12327.25
         S          3.755            3.128    251.62  12327.25
         Mo        10.208            3.547    674.22  77634.20
         Mo        10.221            3.547    674.22  77634.20
         S          3.858            3.128    251.62  12327.25
         S          3.859            3.128    251.62  12327.25
         S          3.758            3.128    251.62  12327.25
         S          3.859            3.128    251.62  12327.25
         Mo        10.221            3.547    674.22  77634.20
         Mo        10.206            3.547    674.22  77634.20
         S          3.856            3.128    251.62  12327.25
         S          3.859            3.128    251.62  12327.25
         S          3.859            3.128    251.62  12327.25
         S          3.755            3.128    251.62  12327.25
         Mo        10.208            3.547    674.22  77634.20
         Mo        10.221            3.547    674.22  77634.20
         S          3.858            3.128    251.62  12327.25
         S          3.859            3.128    251.62  12327.25
         S          3.758            3.128    251.62  12327.25
         S          3.859            3.128    251.62  12327.25
         Mo        10.221            3.547    674.22  77634.20
         Mo        10.206            3.547    674.22  77634.20
         S          3.856            3.128    251.62  12327.25
         S          3.859            3.128    251.62  12327.25
         S          3.859            3.128    251.62  12327.25
         S          3.755            3.128    251.62  12327.25
         Mo        10.208            3.547    674.22  77634.20
         Mo        10.221            3.547    674.22  77634.20
         S          3.858            3.128    251.62  12327.25
         S          3.859            3.128    251.62  12327.25
         S          3.758            3.128    251.62  12327.25
         S          3.859            3.128    251.62  12327.25
         Mo        10.221            3.547    674.22  77634.20
         Mo        10.215            3.547    674.22  77634.20
         S          3.857            3.128    251.62  12327.25
         S          3.859            3.128    251.62  12327.25
         S          3.859            3.128    251.62  12327.25
         S          4.707            3.128    251.62  12327.25
         Mo        10.208            3.547    674.22  77634.20
         Mo        10.221            3.547    674.22  77634.20
         S          3.858            3.128    251.62  12327.25
         S          3.859            3.128    251.62  12327.25
         S          3.758            3.128    251.62  12327.25
         S          3.859            3.128    251.62  12327.25
         Mo        10.221            3.547    674.22  77634.20
         Mo        10.738            3.547    674.22  77634.20
         S          3.857            3.128    251.62  12327.25
         S          3.859            3.128    251.62  12327.25
         S          3.859            3.128    251.62  12327.25
         S          4.707            3.128    251.62  12327.25
         Mo        10.208            3.547    674.22  77634.20
         Mo        10.221            3.547    674.22  77634.20
         S          3.858            3.128    251.62  12327.25
         S          3.859            3.128    251.62  12327.25
         S          3.758            3.128    251.62  12327.25
         S          3.859            3.128    251.62  12327.25
         Mo        10.221            3.547    674.22  77634.20
         Mo        10.215            3.547    674.22  77634.20
         S          3.856            3.128    251.62  12327.25
         S          3.859            3.128    251.62  12327.25
         S          3.859            3.128    251.62  12327.25
         S          3.755            3.128    251.62  12327.25
         Mo        10.208            3.547    674.22  77634.20
         Mo        10.221            3.547    674.22  77634.20
         S          3.858            3.128    251.62  12327.25
         S          3.859            3.128    251.62  12327.25
         S          3.758            3.128    251.62  12327.25
         S          3.859            3.128    251.62  12327.25
         Mo        10.221            3.547    674.22  77634.20
         Mo        10.206            3.547    674.22  77634.20
         S          3.856            3.128    251.62  12327.25
         S          3.859            3.128    251.62  12327.25
         S          3.859            3.128    251.62  12327.25
         S          3.755            3.128    251.62  12327.25
         Mo        10.208            3.547    674.22  77634.20
         Mo        10.221            3.547    674.22  77634.20
         S          3.858            3.128    251.62  12327.25
         S          3.859            3.128    251.62  12327.25
         S          3.758            3.128    251.62  12327.25
         S          3.859            3.128    251.62  12327.25
         Mo        10.221            3.547    674.22  77634.20
         Mo        10.206            3.547    674.22  77634.20
         S          3.857            3.128    251.62  12327.25
         S          3.859            3.128    251.62  12327.25
         S          3.859            3.128    251.62  12327.25
         S          3.764            3.128    251.62  12327.25
         Mo        10.208            3.547    674.22  77634.20
         Mo        10.221            3.547    674.22  77634.20
         S          3.858            3.128    251.62  12327.25
         S          3.859            3.128    251.62  12327.25
         S          3.758            3.128    251.62  12327.25
         S          3.859            3.128    251.62  12327.25
         Mo        10.221            3.547    674.22  77634.20
         Mo        10.215            3.547    674.22  77634.20
         S          3.857            3.128    251.62  12327.25
         S          3.859            3.128    251.62  12327.25
         S          3.859            3.128    251.62  12327.25
         S          4.707            3.128    251.62  12327.25
         Mo        10.208            3.547    674.22  77634.20
         Mo        10.221            3.547    674.22  77634.20
         S          3.858            3.128    251.62  12327.25
         S          3.859            3.128    251.62  12327.25
         S          3.758            3.128    251.62  12327.25
         S          3.859            3.128    251.62  12327.25
         Mo        10.221            3.547    674.22  77634.20
         Mo        10.215            3.547    674.22  77634.20
         S          3.857            3.128    251.62  12327.25
         S          3.859            3.128    251.62  12327.25
         S          3.859            3.128    251.62  12327.25
         S          3.764            3.128    251.62  12327.25
         Mo        10.208            3.547    674.21  77634.20
         Mo        10.221            3.547    674.22  77634.20
         S          3.858            3.128    251.62  12327.25
         S          3.859            3.128    251.62  12327.25
         S          3.758            3.128    251.62  12327.25
         S          3.859            3.128    251.62  12327.25
         Mo        10.221            3.547    674.22  77634.20
         Mo        10.206            3.547    674.21  77634.20
         S          3.856            3.128    251.62  12327.25
         S          3.859            3.128    251.62  12327.25
         S          3.859            3.128    251.62  12327.25
         S          3.755            3.128    251.62  12327.25
         Mo        10.208            3.547    674.22  77634.20
         Mo        10.220            3.547    674.22  77634.20
         S          3.858            3.128    251.62  12327.25
         S          3.859            3.128    251.62  12327.25
         S          3.758            3.128    251.62  12327.25
         S          3.859            3.128    251.62  12327.25
         Mo        10.221            3.547    674.22  77634.20
         Mo        10.206            3.547    674.21  77634.20
         S          3.856            3.128    251.62  12327.25
         S          3.859            3.128    251.62  12327.25
         S          3.859            3.128    251.62  12327.25
         S          3.755            3.128    251.62  12327.25
         Mo        10.208            3.547    674.22  77634.20
         Mo        10.221            3.547    674.22  77634.20
         S          3.858            3.128    251.62  12327.25
         S          3.859            3.128    251.62  12327.25
         S          3.758            3.128    251.62  12327.25
         S          3.859            3.128    251.62  12327.25
         Mo        10.221            3.547    674.22  77634.20
         Mo        10.206            3.547    674.22  77634.20
         S          3.856            3.128    251.62  12327.25
         S          3.859            3.128    251.62  12327.25
         S          3.859            3.128    251.62  12327.25
         S          3.755            3.128    251.62  12327.25
         Mo        10.208            3.547    674.22  77634.20
         Mo        10.221            3.547    674.22  77634.20
         S          3.858            3.128    251.62  12327.25
         S          3.859            3.128    251.62  12327.25
         S          3.758            3.128    251.62  12327.25
         S          3.859            3.128    251.62  12327.25
         Mo        10.221            3.547    674.22  77634.20
         Mo        10.206            3.547    674.22  77634.20
         S          3.856            3.128    251.62  12327.25
         S          3.859            3.128    251.62  12327.25
         S          3.859            3.128    251.62  12327.25
         S          3.755            3.128    251.62  12327.25
         Pd         3.487            3.168    573.90  52582.68

         Molecular C6 ( Ry / a.u.^6 ) =  13790213.51


     number of k points=     4  Gaussian smearing, width (Ry)=  0.0100
                       cart. coord. in units 2pi/alat
        k(    1) = (   0.0000000   0.0000000   0.0000000), wk =   0.5000000
        k(    2) = (   0.0000000  -0.5773499   0.0000000), wk =   0.5000000
        k(    3) = (  -0.5000000  -0.2886744   0.0000000), wk =   0.5000000
        k(    4) = (  -0.5000000  -0.8660242   0.0000000), wk =   0.5000000

     Dense  grid:  7154885 G-vectors     FFT dimensions: ( 180, 180, 512)

     Smooth grid:  3090769 G-vectors     FFT dimensions: ( 135, 135, 400)

     Estimated max dynamical RAM per process >       3.18 GB

     Estimated total dynamical RAM >     114.35 GB

     Initial potential from superposition of free atoms

     starting charge    1681.9391, renormalised to    1682.0000

     negative rho (up, down):  9.207E-04 0.000E+00
     Starting wfcs are 1162 randomized atomic wfcs
     Checking if some PAW data can be deallocated... 

     total cpu time spent up to now is      199.1 secs

     Self-consistent Calculation

     iteration #  1     ecut=    77.00 Ry     beta= 0.20
     Davidson diagonalization with overlap
     ethr =  1.00E-02,  avg # of iterations =  2.0

     Threshold (ethr) on eigenvalues was too large:
     Diagonalizing with lowered threshold

     Davidson diagonalization with overlap
     ethr =  1.57E-04,  avg # of iterations = 15.0

     negative rho (up, down):  2.386E-04 0.000E+00

     total cpu time spent up to now is     2500.5 secs

     total energy              =  -32305.63137874 Ry
     estimated scf accuracy    <       6.64878998 Ry

     iteration #  2     ecut=    77.00 Ry     beta= 0.20
     Davidson diagonalization with overlap
     ethr =  3.95E-04,  avg # of iterations =  2.0

     negative rho (up, down):  2.324E-05 0.000E+00

     total cpu time spent up to now is     2944.5 secs

     total energy              =  -32304.24180175 Ry
     estimated scf accuracy    <       3.47856144 Ry

     iteration #  3     ecut=    77.00 Ry     beta= 0.20
     Davidson diagonalization with overlap
     ethr =  2.07E-04,  avg # of iterations = 13.2

     negative rho (up, down):  1.663E-05 0.000E+00

     total cpu time spent up to now is     3532.1 secs

     total energy              =  -32304.63716115 Ry
     estimated scf accuracy    <       1.08334478 Ry

     iteration #  4     ecut=    77.00 Ry     beta= 0.20
     Davidson diagonalization with overlap
     ethr =  6.44E-05,  avg # of iterations = 14.5

     negative rho (up, down):  1.692E-05 0.000E+00

     total cpu time spent up to now is     4601.9 secs

     total energy              =  -32305.41539092 Ry
     estimated scf accuracy    <       0.40212184 Ry

     iteration #  5     ecut=    77.00 Ry     beta= 0.20
     Davidson diagonalization with overlap
     ethr =  2.39E-05,  avg # of iterations = 13.2

     negative rho (up, down):  3.465E-05 0.000E+00

     total cpu time spent up to now is     5457.2 secs

     total energy              =  -32305.59378712 Ry
     estimated scf accuracy    <       0.24842409 Ry

     iteration #  6     ecut=    77.00 Ry     beta= 0.20
     Davidson diagonalization with overlap
     ethr =  1.48E-05,  avg # of iterations =  8.0

     negative rho (up, down):  2.256E-04 0.000E+00

     total cpu time spent up to now is     5945.0 secs

     total energy              =  -32305.55822122 Ry
     estimated scf accuracy    <       0.15495897 Ry

     iteration #  7     ecut=    77.00 Ry     beta= 0.20
     Davidson diagonalization with overlap
     c_bands:  5 eigenvalues not converged
     c_bands:  2 eigenvalues not converged
     ethr =  9.21E-06,  avg # of iterations = 24.5

     negative rho (up, down):  7.622E-04 0.000E+00

     total cpu time spent up to now is     6713.3 secs

     total energy              =  -32305.59115374 Ry
     estimated scf accuracy    <       0.14372261 Ry

     iteration #  8     ecut=    77.00 Ry     beta= 0.20
     Davidson diagonalization with overlap
     c_bands:  3 eigenvalues not converged
     c_bands:  1 eigenvalues not converged
     ethr =  8.54E-06,  avg # of iterations = 19.0

     negative rho (up, down):  4.810E-04 0.000E+00

     total cpu time spent up to now is     7535.1 secs

     total energy              =  -32305.59506570 Ry
     estimated scf accuracy    <       0.21146460 Ry

     iteration #  9     ecut=    77.00 Ry     beta= 0.20
     Davidson diagonalization with overlap
     c_bands:  2 eigenvalues not converged
     c_bands:  1 eigenvalues not converged
     ethr =  8.54E-06,  avg # of iterations = 20.0

     negative rho (up, down):  4.380E-04 0.000E+00

     total cpu time spent up to now is     8159.7 secs

     total energy              =  -32305.61179879 Ry
     estimated scf accuracy    <       0.01779309 Ry

     iteration # 10     ecut=    77.00 Ry     beta= 0.20
     Davidson diagonalization with overlap
     c_bands:  3 eigenvalues not converged
     c_bands:  2 eigenvalues not converged
     c_bands:  3 eigenvalues not converged
     ethr =  1.06E-06,  avg # of iterations = 60.5

     negative rho (up, down):  4.788E-04 0.000E+00

     total cpu time spent up to now is    11038.6 secs

     total energy              =  -32305.64855920 Ry
     estimated scf accuracy    <       0.00590021 Ry

     iteration # 11     ecut=    77.00 Ry     beta= 0.20
     Davidson diagonalization with overlap
     c_bands:  3 eigenvalues not converged
     c_bands:  1 eigenvalues not converged
     c_bands:  3 eigenvalues not converged
     ethr =  3.51E-07,  avg # of iterations = 18.2

     negative rho (up, down):  6.280E-04 0.000E+00

     total cpu time spent up to now is    11662.1 secs

     total energy              =  -32305.64764522 Ry
     estimated scf accuracy    <       0.00387210 Ry

     iteration # 12     ecut=    77.00 Ry     beta= 0.20
     Davidson diagonalization with overlap
     c_bands:  1 eigenvalues not converged
     c_bands:  1 eigenvalues not converged
     ethr =  2.30E-07,  avg # of iterations = 14.8

     negative rho (up, down):  9.029E-04 0.000E+00

     total cpu time spent up to now is    12381.3 secs

     total energy              =  -32305.64916754 Ry
     estimated scf accuracy    <       0.00079764 Ry

     iteration # 13     ecut=    77.00 Ry     beta= 0.20
     Davidson diagonalization with overlap
     c_bands:  2 eigenvalues not converged
     c_bands:  2 eigenvalues not converged
     ethr =  4.74E-08,  avg # of iterations = 19.2

     negative rho (up, down):  8.937E-04 0.000E+00

     total cpu time spent up to now is    14015.4 secs

     total energy              =  -32305.65046455 Ry
     estimated scf accuracy    <       0.00292610 Ry

     iteration # 14     ecut=    77.00 Ry     beta= 0.20
     Davidson diagonalization with overlap
     c_bands:  2 eigenvalues not converged
     ethr =  4.74E-08,  avg # of iterations =  8.2

     negative rho (up, down):  8.740E-04 0.000E+00

     total cpu time spent up to now is    14480.9 secs

     total energy              =  -32305.65001706 Ry
     estimated scf accuracy    <       0.00152608 Ry

     iteration # 15     ecut=    77.00 Ry     beta= 0.20
     Davidson diagonalization with overlap
     c_bands:  1 eigenvalues not converged
     ethr =  4.74E-08,  avg # of iterations = 11.2

     negative rho (up, down):  8.422E-04 0.000E+00

     total cpu time spent up to now is    14982.7 secs

     total energy              =  -32305.64968331 Ry
     estimated scf accuracy    <       0.00063541 Ry

     iteration # 16     ecut=    77.00 Ry     beta= 0.20
     Davidson diagonalization with overlap
     c_bands:  1 eigenvalues not converged
     ethr =  3.78E-08,  avg # of iterations = 11.0

     negative rho (up, down):  8.591E-04 0.000E+00

     total cpu time spent up to now is    15922.3 secs

     total energy              =  -32305.65041492 Ry
     estimated scf accuracy    <       0.00060215 Ry

     iteration # 17     ecut=    77.00 Ry     beta= 0.20
     Davidson diagonalization with overlap
     c_bands:  1 eigenvalues not converged
     ethr =  3.58E-08,  avg # of iterations =  5.8

     negative rho (up, down):  8.998E-04 0.000E+00

     total cpu time spent up to now is    16350.6 secs

     total energy              =  -32305.65027136 Ry
     estimated scf accuracy    <       0.00026862 Ry

     iteration # 18     ecut=    77.00 Ry     beta= 0.20
     Davidson diagonalization with overlap
     c_bands:  3 eigenvalues not converged
     ethr =  1.60E-08,  avg # of iterations = 12.0

     negative rho (up, down):  9.169E-04 0.000E+00

     total cpu time spent up to now is    16941.5 secs

     total energy              =  -32305.65032233 Ry
     estimated scf accuracy    <       0.00002116 Ry

     iteration # 19     ecut=    77.00 Ry     beta= 0.20
     Davidson diagonalization with overlap
     c_bands:  3 eigenvalues not converged
     c_bands:  4 eigenvalues not converged
     ethr =  1.26E-09,  avg # of iterations = 20.8

     negative rho (up, down):  9.104E-04 0.000E+00

     total cpu time spent up to now is    19670.3 secs

     total energy              =  -32305.65042197 Ry
     estimated scf accuracy    <       0.00003834 Ry

     iteration # 20     ecut=    77.00 Ry     beta= 0.20
     Davidson diagonalization with overlap
     ethr =  1.26E-09,  avg # of iterations =  8.0

     negative rho (up, down):  9.108E-04 0.000E+00

     total cpu time spent up to now is    20159.1 secs

     total energy              =  -32305.65041916 Ry
     estimated scf accuracy    <       0.00001103 Ry

     iteration # 21     ecut=    77.00 Ry     beta= 0.20
     Davidson diagonalization with overlap
     ethr =  6.56E-10,  avg # of iterations = 16.8

     negative rho (up, down):  9.117E-04 0.000E+00

     total cpu time spent up to now is    21156.2 secs

     End of self-consistent calculation

          k = 0.0000 0.0000 0.0000 (386245 PWs)   bands (ev):

   -88.3768 -66.6447 -66.6446 -66.6434 -66.6379 -66.6235 -66.6234 -66.6234
   -66.6234 -66.6234 -66.6234 -66.6233 -66.6233 -66.6233 -66.6232 -66.6232
   -66.6230 -66.6221 -66.6221 -66.6221 -66.6220 -66.6220 -66.6220 -66.6206
   -66.6201 -66.6201 -66.6106 -66.6104 -66.6104 -66.6022 -66.6022 -66.6021
   -66.6020 -66.6020 -66.6020 -66.6020 -66.6020 -66.6019 -66.6019 -66.6019
   -66.6019 -66.6019 -66.6019 -66.6018 -66.6018 -66.6015 -66.6015 -66.6011
   -66.6007 -66.6007 -66.6007 -66.6007 -66.6007 -66.6006 -66.6006 -66.6006
   -66.6006 -66.5998 -66.5998 -66.5885 -66.5885 -66.5852 -66.5810 -66.5809
   -66.5780 -54.1991 -54.1806 -54.1803 -40.9720 -40.9720 -40.9719 -40.9719
   -40.9719 -40.9718 -40.9713 -40.9713 -40.9713 -40.9625 -40.9625 -40.9565
   -40.8967 -40.8967 -40.8967 -40.8967 -40.8966 -40.8966 -40.8966 -40.8966
   -40.8966 -40.8965 -40.8965 -40.8965 -40.8960 -40.8960 -40.8960 -40.8960
   -40.8959 -40.8959 -40.8894 -40.8869 -40.8863 -40.8863 -40.8795 -40.8795
   -40.8043 -40.8042 -40.8037 -40.8034 -40.7803 -40.7704 -40.7703 -40.7703
   -40.7703 -40.7703 -40.7703 -40.7703 -40.7703 -40.7703 -40.7702 -40.7702
   -40.7701 -40.7695 -40.7695 -40.7695 -40.7695 -40.7695 -40.7694 -40.7636
   -40.7627 -40.7626 -40.7626 -40.7626 -40.7626 -40.7626 -40.7625 -40.7625
   -40.7625 -40.7624 -40.7624 -40.7622 -40.7620 -40.7619 -40.7619 -40.7619
   -40.7619 -40.7618 -40.7609 -40.7609 -40.7607 -40.7592 -40.7592 -40.7585
   -40.7585 -40.7516 -40.7504 -40.7504 -40.7353 -40.7353 -40.7353 -40.7353
   -40.7353 -40.7353 -40.7353 -40.7352 -40.7352 -40.7351 -40.7351 -40.7351
   -40.7344 -40.7344 -40.7344 -40.7344 -40.7344 -40.7344 -40.7275 -40.7264
   -40.7242 -40.7242 -40.7211 -40.7209 -40.7209 -40.7209 -40.7208 -40.7207
   -40.7207 -40.7206 -40.7206 -40.7206 -40.7206 -40.7206 -40.7205 -40.7205
   -40.7205 -40.7205 -40.7205 -40.7205 -40.7205 -40.7202 -40.7201 -40.7200
   -40.7199 -40.7199 -40.7199 -40.7199 -40.7199 -40.7198 -40.7198 -40.7198
   -40.7197 -40.7179 -40.7179 -40.7128 -40.7128 -40.7066 -40.7066 -40.7039
   -40.6570 -40.6569 -40.6569 -40.6569 -40.6569 -40.6568 -40.6560 -40.6560
   -40.6560 -40.6448 -40.6448 -40.6447 -40.6099 -40.6098 -40.6098 -40.6098
   -40.6098 -40.6098 -40.6098 -40.6098 -40.6098 -40.6097 -40.6097 -40.6096
   -40.6089 -40.6088 -40.6088 -40.6088 -40.6088 -40.6088 -40.6016 -40.5995
   -40.5995 -40.5967 -40.5967 -40.5879 -40.5622 -40.5622 -40.5621 -40.5621
   -40.5612 -40.5612 -40.5486 -40.5486 -20.1442 -20.0812 -19.9889 -19.8996
   -19.3434 -19.2728 -19.2727 -19.2665 -19.2664 -19.2664 -19.2511 -19.2195
   -19.2195 -19.2009 -19.2006 -19.2006 -19.1605 -19.1373 -19.1372 -19.1138
   -19.1135 -19.1135 -19.0603 -19.0520 -19.0520 -19.0406 -19.0406 -19.0406
   -18.9078 -18.7806 -18.6366 -18.5398 -18.5230 -18.5229 -18.5006 -18.4852
   -18.4852 -18.4850 -18.4260 -18.4260 -18.4241 -18.3748 -18.3748 -18.3748
   -18.3087 -18.3087 -18.2975 -18.2665 -18.2663 -18.2663 -18.2197 -18.2197
   -18.2027 -18.1929 -18.1928 -18.1928 -18.1777 -18.1777 -18.1427 -18.1416
   -18.1415 -18.1415 -18.1383 -18.1383 -18.1133 -18.1086 -18.1086 -18.1081
   -18.1009 -18.1009 -18.0979 -18.0959 -18.0959 -18.0755 -18.0695 -18.0694
   -18.0668 -18.0615 -18.0615 -18.0600 -18.0460 -18.0460 -18.0362 -18.0266
   -18.0265 -18.0199 -18.0141 -18.0141 -18.0121 -17.9988 -17.9988 -17.9960
   -17.9661 -17.9661 -17.9430 -17.9321 -17.9321 -17.9313 -17.9300 -17.9299
   -17.9281 -17.9095 -17.9094 -17.9006 -17.8893 -17.8893 -17.8833 -17.8779
   -17.8779 -17.8758 -17.8725 -17.8724 -17.8711 -17.8600 -17.8599 -17.8581
   -17.8436 -17.8436 -17.8401 -17.8365 -17.8365 -17.8351 -17.8159 -17.8159
   -17.8145 -17.8127 -17.8127 -17.8122 -12.0057 -11.8722 -11.8440 -11.8440
   -11.8074 -11.7694 -11.7694 -11.7529 -11.6798 -11.6619 -11.6619 -11.5747
   -11.5661 -11.5661 -11.4522 -11.3193 -11.2641 -11.2640 -11.2555 -11.2551
   -11.2551 -11.2333 -11.1618 -11.1617 -11.1541 -11.1541 -11.1536 -11.1469
   -11.1227 -11.1227 -11.1038 -11.0835 -11.0835 -11.0832 -11.0811 -11.0774
   -11.0773 -11.0694 -11.0694 -11.0692 -11.0385 -11.0295 -11.0294 -10.9955
   -10.9949 -10.9948 -10.9639 -10.9639 -10.9546 -10.9293 -10.9293 -10.9288
   -10.9034 -10.9034 -10.8890 -10.8726 -10.8726 -10.8695 -10.8658 -10.8658
   -10.8616 -10.8563 -10.8471 -10.8471 -10.8363 -10.8363 -10.8284 -10.8240
   -10.8240 -10.8197 -10.8191 -10.8191 -10.8175 -10.8154 -10.8154 -10.8154
   -10.7937 -10.7937 -10.7848 -10.7848 -10.7816 -10.7773 -10.7570 -10.7570
   -10.7563 -10.7556 -10.7556 -10.7503 -10.7493 -10.7420 -10.7420 -10.6695
   -10.6633 -10.6633 -10.6141 -10.6021 -10.6021 -10.5921 -10.5921 -10.5917
   -10.2687 -10.2686 -10.2201 -10.1196 -10.1194 -10.0213  -9.9330  -9.9329
    -9.8546  -9.8250  -9.8249  -9.8201  -9.8186  -9.8186  -9.8077  -9.7908
    -9.7871  -9.7870  -9.7868  -9.7866  -9.7866  -9.7736  -9.7730  -9.7730
    -9.7658  -9.7657  -9.7646  -9.7350  -9.7349  -9.7096  -9.6759  -9.6452
    -9.6452  -9.6443  -9.6417  -9.6409  -9.6408  -9.6359  -9.6354  -9.6345
    -9.6344  -9.6328  -9.6328  -9.6212  -9.6212  -9.5885  -9.5803  -9.5803
    -9.5618  -9.5618  -9.5615  -9.5609  -9.5604  -9.5604  -9.5385  -9.5385
    -9.5372  -9.5309  -9.5262  -9.5262  -9.5108  -9.5108  -9.4703  -9.4610
    -9.4610  -9.4603  -9.3737  -9.3736  -9.3626  -9.3444  -9.3443  -9.3438
    -9.3438  -9.3375  -9.3280  -9.3212  -9.3211  -9.3186  -9.2522  -9.2441
    -9.2441  -9.2409  -9.2409  -9.2308  -9.2010  -9.2002  -9.2002  -9.1980
    -9.1980  -9.1941  -9.1474  -9.1399  -9.1399  -9.1191  -9.1140  -9.1140
    -9.0446  -9.0445  -9.0074  -9.0065  -8.9998  -8.9997  -8.9876  -8.9690
    -8.9690  -8.9626  -8.9439  -8.9439  -8.9420  -8.9393  -8.9392  -8.9336
    -8.9335  -8.9310  -8.9023  -8.8838  -8.8838  -8.8662  -8.8497  -8.8497
    -8.8409  -8.8409  -8.8403  -8.8399  -8.8396  -8.8395  -8.7574  -8.7574
    -8.7533  -8.7533  -8.7453  -8.7437  -8.6782  -8.6782  -8.6688  -8.6687
    -8.6618  -8.6598  -8.6108  -8.6107  -8.6072  -8.6071  -8.6050  -8.6040
    -8.5416  -8.4335  -8.4334  -8.3864  -8.3864  -8.3814  -8.3814  -8.3749
    -8.3749  -8.3499  -8.3499  -8.2995  -8.2994  -8.2994  -8.2981  -8.2955
    -8.2955  -8.2808  -8.2808  -8.2806  -8.2761  -8.2687  -8.2686  -8.2572
    -8.2572  -8.2568  -8.2501  -8.2408  -8.2407  -8.2370  -8.2369  -8.2367
    -8.2324  -8.1309  -8.0958  -8.0956  -7.9352  -7.8777  -7.8776  -7.8748
    -7.7945  -7.7898  -7.7897  -7.7106  -7.7009  -7.7009  -7.6556  -7.6545
    -7.6544  -7.6433  -7.6431  -7.6431  -7.6250  -7.6208  -7.6207  -7.5672
    -7.5672  -7.5651  -7.5626  -7.5626  -7.5574  -7.5568  -7.5565  -7.5565
    -7.5481  -7.5480  -7.5460  -7.5460  -7.5380  -7.5348  -7.5259  -7.5244
    -7.5243  -7.5215  -7.5215  -7.5157  -7.5105  -7.5018  -7.5017  -7.5005
    -7.5004  -7.4985  -7.4949  -7.4715  -7.4715  -7.4336  -7.4269  -7.4259
    -7.4259  -7.4228  -7.4228  -7.4193  -7.4193  -7.4191  -7.4102  -7.3494
    -7.3383  -7.3383  -7.3088  -7.3087  -7.3086  -7.3084  -7.3030  -7.3030
    -7.2991  -7.2991  -7.2888  -7.2738  -7.2738  -7.2623  -7.2622  -7.2467
    -7.2467  -7.2321  -7.2321  -7.1787  -7.1185  -7.1185  -7.0994  -7.0994
    -7.0814  -6.9587  -6.9282  -6.9282  -6.8801  -6.8800  -6.8565  -6.8460
    -6.8460  -6.8146  -6.7967  -6.7967  -6.7850  -6.7582  -6.7206  -6.7195
    -6.7194  -6.6885  -6.6778  -6.6778  -6.6462  -6.6462  -6.6326  -6.6232
    -6.6232  -6.6216  -6.6000  -6.6000  -6.5953  -6.5682  -6.5681  -6.5521
    -6.5479  -6.5479  -6.5367  -6.5341  -6.5341  -6.5294  -6.5268  -6.5268
    -6.5220  -6.5201  -6.5200  -6.5174  -6.5171  -6.5171  -6.5157  -6.5139
    -6.5139  -6.4889  -6.4885  -6.4885  -6.4527  -6.4527  -6.4527  -6.4277
    -6.4276  -6.4276  -6.3573  -6.3572  -6.3571  -6.3560  -6.3520  -6.3519
    -6.3298  -6.3297  -6.3287  -6.3244  -6.3126  -6.3125  -6.2979  -6.2978
    -6.2956  -6.2901  -6.2743  -6.2742  -6.2697  -6.2696  -6.2688  -6.2663
    -6.2203  -6.1824  -6.1824  -5.8444  -5.6325  -5.5483  -5.5481  -5.3484
    -5.1746  -4.0061  -3.8700  -3.8699  -3.8653  -3.8635  -3.8635  -3.8458
    -3.8433  -3.8432  -3.8409  -3.8395  -3.8393  -3.7994  -3.7156  -3.7156
    -3.6994  -3.6950  -3.6949  -3.6943  -3.6940  -3.6908  -3.6907  -3.6877
    -3.6877  -3.5660  -3.5210  -3.5209  -3.5100  -3.5059  -3.5058  -3.5015
    -3.4933  -3.4919  -3.4918  -3.4917  -3.4898  -3.4898  -3.4695  -3.4694
    -3.4672  -3.4621  -3.4620  -3.4619  -3.4610  -3.4610  -3.4484  -3.4476
    -3.4476  -3.4373  -3.4315  -3.4315  -3.4308  -3.4294  -3.4293  -3.4289
    -3.4222  -3.4221  -3.4197  -3.4138  -3.4138  -3.3633  -3.3626  -3.3598
    -3.3598  -3.3568  -3.3568  -3.3564  -3.3542  -3.3524  -3.3524  -3.3399
    -3.3398  -3.3028  -3.3003  -3.3003  -3.3002  -3.2901  -3.2900  -3.2795
    -3.2243  -3.2243  -3.2234  -3.2173  -3.2173  -3.0793  -3.0771  -3.0769
    -3.0767  -3.0759  -3.0757  -3.0626  -3.0595  -3.0595  -3.0247  -2.9916
    -2.9912  -2.9903  -2.9898  -2.9890  -2.9883  -2.9829  -2.9829  -2.9826
    -2.9807  -2.9805  -2.9755  -2.9755  -2.9686  -2.9684  -2.9627  -2.9626
    -2.9622  -2.9552  -2.9551  -2.9486  -2.9486  -2.9484  -2.9478  -2.9476
    -2.9474  -2.9469  -2.9466  -2.8940  -2.8898  -2.8895  -2.8574  -2.8574
    -2.8570  -2.8292  -2.8245  -2.8242  -2.8239  -2.8237  -2.8235  -2.8229
    -2.8227  -2.8221  -2.8216  -2.8204  -2.8202  -2.8076  -2.8076  -2.7832
    -2.7608  -2.7607  -2.7548  -2.7543  -2.7543  -2.7432  -2.7431  -2.6899
    -2.6899  -2.6553  -2.6553  -2.6389  -2.6385  -2.6377  -2.6365  -2.6342
    -2.6324  -2.5894  -2.5692  -2.5691  -2.5640  -2.5607  -2.5605  -2.4334
    -2.4273

          k = 0.0000-0.5773 0.0000 (386352 PWs)   bands (ev):

   -88.3768 -66.6385 -66.6385 -66.6384 -66.6383 -66.6372 -66.6371 -66.6344
   -66.6297 -66.6278 -66.6278 -66.6277 -66.6277 -66.6265 -66.6265 -66.6212
   -66.6169 -66.6127 -66.6127 -66.6127 -66.6127 -66.6127 -66.6126 -66.6126
   -66.6126 -66.6114 -66.6114 -66.6114 -66.6114 -66.6089 -66.6084 -66.6083
   -66.6083 -66.6082 -66.6081 -66.6071 -66.6070 -66.6069 -66.6020 -66.6020
   -66.6020 -66.6020 -66.6020 -66.6020 -66.6019 -66.6019 -66.6017 -66.6016
   -66.6007 -66.6007 -66.6006 -66.6006 -66.5993 -66.5975 -66.5975 -66.5975
   -66.5974 -66.5962 -66.5962 -66.5903 -66.5885 -66.5841 -66.5820 -66.5814
   -66.5769 -54.1991 -54.1806 -54.1804 -40.9404 -40.9404 -40.9404 -40.9403
   -40.9403 -40.9403 -40.9402 -40.9401 -40.9397 -40.9397 -40.9396 -40.9396
   -40.9362 -40.9291 -40.9253 -40.9248 -40.9136 -40.9135 -40.9135 -40.9134
   -40.9129 -40.9128 -40.9057 -40.9015 -40.9014 -40.9014 -40.9014 -40.9013
   -40.9008 -40.9008 -40.8886 -40.8869 -40.8508 -40.8508 -40.8508 -40.8508
   -40.8507 -40.8507 -40.8507 -40.8507 -40.8500 -40.8500 -40.8500 -40.8500
   -40.8406 -40.8391 -40.8383 -40.8359 -40.7959 -40.7921 -40.7921 -40.7921
   -40.7919 -40.7915 -40.7914 -40.7884 -40.7825 -40.7825 -40.7825 -40.7824
   -40.7816 -40.7816 -40.7754 -40.7723 -40.7712 -40.7712 -40.7712 -40.7711
   -40.7706 -40.7706 -40.7684 -40.7644 -40.7488 -40.7416 -40.7416 -40.7416
   -40.7416 -40.7416 -40.7416 -40.7415 -40.7415 -40.7409 -40.7409 -40.7409
   -40.7409 -40.7364 -40.7358 -40.7331 -40.7329 -40.7329 -40.7329 -40.7327
   -40.7322 -40.7321 -40.7300 -40.7241 -40.7210 -40.7210 -40.7210 -40.7209
   -40.7207 -40.7206 -40.7206 -40.7206 -40.7206 -40.7205 -40.7205 -40.7202
   -40.7201 -40.7201 -40.7200 -40.7199 -40.7199 -40.7198 -40.7198 -40.7136
   -40.7133 -40.7119 -40.7119 -40.7118 -40.7118 -40.7113 -40.7112 -40.7112
   -40.7078 -40.7073 -40.7061 -40.7000 -40.6901 -40.6901 -40.6901 -40.6901
   -40.6901 -40.6900 -40.6900 -40.6898 -40.6892 -40.6892 -40.6891 -40.6891
   -40.6839 -40.6792 -40.6768 -40.6740 -40.6553 -40.6553 -40.6553 -40.6553
   -40.6553 -40.6553 -40.6553 -40.6553 -40.6544 -40.6544 -40.6544 -40.6544
   -40.6444 -40.6432 -40.6432 -40.6432 -40.6432 -40.6430 -40.6430 -40.6423
   -40.6422 -40.6420 -40.6329 -40.6261 -40.6239 -40.6239 -40.6238 -40.6237
   -40.6229 -40.6229 -40.6143 -40.6102 -40.6069 -40.6069 -40.6068 -40.6068
   -40.6059 -40.6059 -40.5923 -40.5914 -40.5762 -40.5762 -40.5762 -40.5760
   -40.5752 -40.5752 -40.5664 -40.5593 -19.9183 -19.9012 -19.8628 -19.8300
   -19.7678 -19.7368 -19.6703 -19.6579 -19.4703 -19.4655 -19.4160 -19.4028
   -19.3308 -19.3167 -19.2419 -19.2361 -18.8480 -18.7967 -18.7619 -18.7592
   -18.7588 -18.7476 -18.7348 -18.7266 -18.7202 -18.6922 -18.6830 -18.6670
   -18.6519 -18.6421 -18.6334 -18.6175 -18.5898 -18.5863 -18.5726 -18.5643
   -18.5640 -18.5526 -18.5321 -18.5197 -18.4998 -18.4962 -18.4757 -18.4751
   -18.4693 -18.4503 -18.4242 -18.4217 -18.4102 -18.3882 -18.3646 -18.3570
   -18.3450 -18.3284 -18.2868 -18.2697 -18.2588 -18.2536 -18.2437 -18.2358
   -18.2008 -18.1958 -18.1680 -18.1477 -18.1336 -18.1287 -18.1248 -18.1216
   -18.1205 -18.1201 -18.1148 -18.1038 -18.0904 -18.0894 -18.0884 -18.0843
   -18.0803 -18.0665 -18.0601 -18.0600 -18.0551 -18.0517 -18.0470 -18.0457
   -18.0265 -18.0222 -18.0187 -18.0144 -18.0124 -18.0114 -18.0028 -18.0024
   -17.9980 -17.9901 -17.9585 -17.9555 -17.9511 -17.9428 -17.9319 -17.9318
   -17.9070 -17.8989 -17.8870 -17.8867 -17.8649 -17.8616 -17.8533 -17.8524
   -17.8396 -17.8385 -17.8381 -17.8375 -17.8346 -17.8339 -17.8292 -17.8256
   -17.8165 -17.8083 -17.7983 -17.7872 -17.7773 -17.7717 -17.7582 -17.7539
   -17.7449 -17.7416 -17.7384 -17.7376 -11.7734 -11.7336 -11.6701 -11.5588
   -11.5453 -11.5316 -11.5316 -11.5170 -11.4993 -11.4948 -11.4935 -11.4869
   -11.4565 -11.4482 -11.4475 -11.4096 -11.3969 -11.3894 -11.3523 -11.3464
   -11.3460 -11.3345 -11.3336 -11.2956 -11.2954 -11.2883 -11.2816 -11.2789
   -11.2716 -11.2714 -11.2542 -11.2527 -11.2310 -11.2106 -11.2104 -11.1983
   -11.1972 -11.1866 -11.1859 -11.1849 -11.1808 -11.1607 -11.1603 -11.1550
   -11.1261 -11.1237 -11.0870 -11.0738 -11.0717 -11.0684 -11.0016 -10.9615
   -10.9599 -10.9359 -10.9288 -10.9211 -10.9113 -10.8906 -10.8812 -10.8549
   -10.8533 -10.8502 -10.8450 -10.8321 -10.8320 -10.8306 -10.8300 -10.8291
   -10.8235 -10.8230 -10.8146 -10.8111 -10.8086 -10.8082 -10.8078 -10.8075
   -10.8060 -10.8058 -10.7957 -10.7935 -10.7852 -10.7717 -10.7616 -10.7613
   -10.7602 -10.7549 -10.5597 -10.5517 -10.5460 -10.5409 -10.5060 -10.4892
   -10.4222 -10.3895 -10.3215 -10.2854 -10.2564 -10.2346 -10.1678 -10.1608
   -10.1548 -10.1475 -10.1230 -10.1110 -10.0999 -10.0962 -10.0745 -10.0679
   -10.0654 -10.0420 -10.0412 -10.0296 -10.0294 -10.0228 -10.0148  -9.9988
    -9.9519  -9.9436  -9.9343  -9.9296  -9.9199  -9.9159  -9.9155  -9.9126
    -9.8998  -9.8724  -9.8535  -9.8467  -9.8210  -9.8157  -9.7962  -9.7958
    -9.7777  -9.7766  -9.7581  -9.7517  -9.7281  -9.7260  -9.6974  -9.6895
    -9.6886  -9.6741  -9.6636  -9.6473  -9.6274  -9.6181  -9.6162  -9.5842
    -9.5730  -9.5557  -9.5526  -9.5519  -9.5511  -9.5505  -9.5299  -9.5284
    -9.5050  -9.5045  -9.4864  -9.4826  -9.4803  -9.4774  -9.4705  -9.4693
    -9.4465  -9.4437  -9.4402  -9.4334  -9.3715  -9.3613  -9.2880  -9.2719
    -9.2629  -9.2486  -9.2261  -9.2169  -9.2105  -9.2056  -9.1936  -9.1821
    -9.1797  -9.1741  -9.1356  -9.1298  -9.1246  -9.0863  -9.0851  -9.0829
    -9.0734  -9.0524  -9.0522  -9.0504  -9.0389  -9.0333  -9.0324  -9.0245
    -8.9798  -8.9779  -8.9702  -8.9678  -8.9559  -8.9499  -8.9474  -8.9395
    -8.9130  -8.9071  -8.9050  -8.9008  -8.8979  -8.8908  -8.8886  -8.8879
    -8.8816  -8.8815  -8.8785  -8.8781  -8.8667  -8.8619  -8.8584  -8.8567
    -8.8537  -8.8478  -8.8383  -8.8364  -8.8221  -8.8166  -8.8096  -8.8031
    -8.7992  -8.7987  -8.7986  -8.7929  -8.7802  -8.7659  -8.7515  -8.7464
    -8.7395  -8.7376  -8.7184  -8.7082  -8.6678  -8.6573  -8.6272  -8.5935
    -8.5710  -8.5352  -8.5197  -8.5040  -8.4568  -8.4382  -8.3745  -8.3641
    -8.3053  -8.3021  -8.2813  -8.2568  -8.1470  -8.1467  -8.1395  -8.1381
    -8.1294  -8.1266  -8.1223  -8.1032  -8.0917  -8.0784  -8.0458  -7.9909
    -7.9908  -7.9512  -7.9460  -7.8813  -7.8606  -7.8595  -7.8573  -7.8460
    -7.8356  -7.8330  -7.8304  -7.8225  -7.8196  -7.8129  -7.8092  -7.8089
    -7.8079  -7.8050  -7.8045  -7.8009  -7.7986  -7.7970  -7.7908  -7.7892
    -7.7871  -7.7866  -7.7860  -7.7823  -7.7802  -7.7767  -7.7741  -7.7693
    -7.7643  -7.7602  -7.7539  -7.7385  -7.7362  -7.7336  -7.7280  -7.7164
    -7.7159  -7.7124  -7.7123  -7.7097  -7.7071  -7.7045  -7.6855  -7.6841
    -7.6814  -7.6813  -7.6654  -7.6584  -7.6386  -7.6314  -7.6256  -7.6224
    -7.6166  -7.6120  -7.6119  -7.6113  -7.6042  -7.6016  -7.5937  -7.5823
    -7.5809  -7.5799  -7.5704  -7.5611  -7.5541  -7.5523  -7.4788  -7.4766
    -7.4696  -7.4667  -7.4609  -7.4354  -7.3656  -7.2809  -7.2487  -7.1960
    -7.1887  -7.1873  -7.1847  -7.1671  -7.1381  -7.1342  -7.1320  -7.1226
    -7.1171  -7.1071  -7.0635  -7.0619  -7.0516  -7.0394  -7.0363  -7.0325
    -7.0272  -7.0050  -6.9899  -6.9637  -6.9615  -6.9376  -6.9273  -6.9169
    -6.9094  -6.8913  -6.8789  -6.8753  -6.8735  -6.8635  -6.8627  -6.8355
    -6.8025  -6.7861  -6.7658  -6.7467  -6.7408  -6.7010  -6.6891  -6.6735
    -6.6586  -6.6438  -6.6379  -6.6345  -6.6244  -6.6235  -6.6227  -6.6219
    -6.6068  -6.6061  -6.6058  -6.6052  -6.5979  -6.5978  -6.5977  -6.5976
    -6.5836  -6.5661  -6.5219  -6.5136  -6.4900  -6.4746  -6.4224  -6.4218
    -6.3588  -6.3494  -6.3412  -6.3396  -6.3331  -6.3135  -6.3024  -6.3002
    -6.2949  -6.2946  -6.2909  -6.2902  -6.2884  -6.2820  -6.2617  -6.2525
    -6.2452  -6.2402  -6.2319  -6.2230  -6.2173  -6.2145  -6.2022  -6.2012
    -6.0169  -6.0129  -5.9723  -5.9598  -5.9339  -5.9065  -5.9024  -5.8691
    -5.8596  -5.8545  -5.7524  -5.6981  -5.6315  -5.6139  -5.5642  -5.5343
    -5.5123  -4.1251  -4.1067  -4.1053  -4.1009  -4.0041  -3.9537  -3.9385
    -3.9293  -3.9253  -3.9140  -3.8600  -3.8591  -3.8467  -3.8420  -3.8356
    -3.8249  -3.8241  -3.8147  -3.8143  -3.8037  -3.7333  -3.6946  -3.6912
    -3.6792  -3.6361  -3.6225  -3.6175  -3.6175  -3.6170  -3.6115  -3.5700
    -3.5692  -3.5547  -3.5402  -3.5355  -3.5340  -3.5326  -3.5309  -3.5151
    -3.4960  -3.4948  -3.4919  -3.4899  -3.4855  -3.4847  -3.4790  -3.4629
    -3.4609  -3.4602  -3.4419  -3.4352  -3.4348  -3.4337  -3.4223  -3.3880
    -3.3686  -3.3640  -3.3617  -3.3614  -3.3602  -3.3577  -3.3564  -3.3468
    -3.3229  -3.3153  -3.3055  -3.3020  -3.2993  -3.2978  -3.2973  -3.2949
    -3.2942  -3.2871  -3.2614  -3.2571  -3.2531  -3.2496  -3.2494  -3.2423
    -3.2313  -3.2290  -3.2238  -3.2209  -3.2115  -3.1997  -3.1939  -3.1904
    -3.1840  -3.1836  -3.1792  -3.1789  -3.1774  -3.1761  -3.1613  -3.1149
    -3.1138  -3.0863  -3.0832  -3.0813  -3.0766  -3.0746  -3.0684  -3.0404
    -3.0392  -3.0388  -3.0387  -3.0382  -3.0378  -3.0273  -3.0265  -3.0239
    -3.0174  -3.0168  -3.0164  -3.0071  -3.0067  -2.9881  -2.9871  -2.9846
    -2.9833  -2.9794  -2.9746  -2.9718  -2.9693  -2.9639  -2.9636  -2.9603
    -2.9600  -2.9502  -2.9465  -2.9458  -2.9396  -2.9051  -2.9025  -2.8988
    -2.8980  -2.8913  -2.8849  -2.8722  -2.8644  -2.8075  -2.8040  -2.8023
    -2.8008  -2.7352  -2.7281  -2.7275  -2.7243  -2.6277  -2.6257  -2.5898
    -2.5870  -2.5624  -2.5588  -2.5574  -2.5465  -2.5437  -2.5424  -2.5402
    -2.5381  -2.5372  -2.5333  -2.4132  -2.4106  -2.3989  -2.3971  -2.3731
    -2.3601

          k =-0.5000-0.2887 0.0000 (386352 PWs)   bands (ev):

   -88.3768 -66.6385 -66.6385 -66.6384 -66.6383 -66.6372 -66.6371 -66.6344
   -66.6297 -66.6278 -66.6278 -66.6277 -66.6277 -66.6265 -66.6265 -66.6212
   -66.6169 -66.6127 -66.6127 -66.6127 -66.6127 -66.6127 -66.6126 -66.6126
   -66.6125 -66.6114 -66.6114 -66.6114 -66.6114 -66.6089 -66.6084 -66.6083
   -66.6083 -66.6082 -66.6081 -66.6071 -66.6070 -66.6069 -66.6021 -66.6020
   -66.6020 -66.6020 -66.6020 -66.6019 -66.6019 -66.6019 -66.6017 -66.6016
   -66.6007 -66.6007 -66.6006 -66.6006 -66.5993 -66.5975 -66.5975 -66.5975
   -66.5974 -66.5962 -66.5962 -66.5903 -66.5885 -66.5841 -66.5820 -66.5815
   -66.5769 -54.1991 -54.1806 -54.1804 -40.9404 -40.9404 -40.9403 -40.9403
   -40.9403 -40.9403 -40.9402 -40.9401 -40.9397 -40.9397 -40.9396 -40.9396
   -40.9362 -40.9290 -40.9254 -40.9249 -40.9136 -40.9135 -40.9135 -40.9134
   -40.9129 -40.9128 -40.9057 -40.9015 -40.9014 -40.9014 -40.9014 -40.9013
   -40.9008 -40.9008 -40.8886 -40.8869 -40.8508 -40.8508 -40.8508 -40.8507
   -40.8507 -40.8507 -40.8507 -40.8507 -40.8500 -40.8500 -40.8500 -40.8500
   -40.8406 -40.8391 -40.8382 -40.8359 -40.7959 -40.7921 -40.7921 -40.7920
   -40.7919 -40.7915 -40.7914 -40.7884 -40.7825 -40.7825 -40.7824 -40.7824
   -40.7816 -40.7816 -40.7754 -40.7723 -40.7712 -40.7712 -40.7712 -40.7711
   -40.7706 -40.7706 -40.7684 -40.7644 -40.7488 -40.7416 -40.7416 -40.7416
   -40.7416 -40.7416 -40.7416 -40.7415 -40.7415 -40.7409 -40.7409 -40.7409
   -40.7409 -40.7364 -40.7358 -40.7331 -40.7329 -40.7329 -40.7328 -40.7327
   -40.7322 -40.7322 -40.7300 -40.7241 -40.7210 -40.7210 -40.7210 -40.7209
   -40.7207 -40.7206 -40.7206 -40.7206 -40.7206 -40.7205 -40.7205 -40.7202
   -40.7201 -40.7201 -40.7200 -40.7199 -40.7199 -40.7198 -40.7198 -40.7135
   -40.7133 -40.7119 -40.7119 -40.7118 -40.7118 -40.7114 -40.7112 -40.7112
   -40.7078 -40.7073 -40.7061 -40.7000 -40.6901 -40.6901 -40.6901 -40.6901
   -40.6901 -40.6900 -40.6900 -40.6898 -40.6892 -40.6892 -40.6891 -40.6891
   -40.6839 -40.6792 -40.6768 -40.6740 -40.6553 -40.6553 -40.6553 -40.6553
   -40.6553 -40.6553 -40.6553 -40.6552 -40.6544 -40.6544 -40.6544 -40.6544
   -40.6444 -40.6432 -40.6432 -40.6431 -40.6431 -40.6430 -40.6430 -40.6422
   -40.6422 -40.6420 -40.6329 -40.6261 -40.6239 -40.6239 -40.6238 -40.6237
   -40.6229 -40.6229 -40.6143 -40.6102 -40.6069 -40.6069 -40.6068 -40.6068
   -40.6059 -40.6059 -40.5922 -40.5914 -40.5762 -40.5762 -40.5762 -40.5760
   -40.5752 -40.5752 -40.5664 -40.5593 -19.9183 -19.9012 -19.8628 -19.8300
   -19.7678 -19.7368 -19.6703 -19.6579 -19.4703 -19.4655 -19.4160 -19.4028
   -19.3308 -19.3167 -19.2419 -19.2361 -18.8480 -18.7967 -18.7619 -18.7592
   -18.7588 -18.7476 -18.7348 -18.7266 -18.7202 -18.6923 -18.6830 -18.6670
   -18.6519 -18.6421 -18.6334 -18.6175 -18.5898 -18.5863 -18.5726 -18.5643
   -18.5640 -18.5526 -18.5321 -18.5197 -18.4998 -18.4962 -18.4757 -18.4751
   -18.4693 -18.4503 -18.4242 -18.4217 -18.4102 -18.3882 -18.3645 -18.3570
   -18.3450 -18.3284 -18.2867 -18.2697 -18.2588 -18.2536 -18.2437 -18.2358
   -18.2007 -18.1959 -18.1680 -18.1478 -18.1336 -18.1287 -18.1248 -18.1216
   -18.1205 -18.1201 -18.1148 -18.1038 -18.0904 -18.0894 -18.0884 -18.0843
   -18.0803 -18.0665 -18.0601 -18.0600 -18.0551 -18.0517 -18.0469 -18.0457
   -18.0265 -18.0222 -18.0186 -18.0144 -18.0124 -18.0114 -18.0028 -18.0024
   -17.9980 -17.9901 -17.9585 -17.9555 -17.9511 -17.9428 -17.9320 -17.9318
   -17.9070 -17.8989 -17.8869 -17.8867 -17.8649 -17.8616 -17.8533 -17.8525
   -17.8397 -17.8385 -17.8381 -17.8376 -17.8346 -17.8339 -17.8292 -17.8257
   -17.8164 -17.8083 -17.7983 -17.7872 -17.7773 -17.7717 -17.7582 -17.7539
   -17.7449 -17.7416 -17.7384 -17.7376 -11.7734 -11.7336 -11.6701 -11.5588
   -11.5453 -11.5316 -11.5315 -11.5170 -11.4993 -11.4948 -11.4935 -11.4869
   -11.4565 -11.4482 -11.4475 -11.4096 -11.3969 -11.3895 -11.3523 -11.3464
   -11.3460 -11.3345 -11.3336 -11.2956 -11.2954 -11.2883 -11.2816 -11.2789
   -11.2716 -11.2713 -11.2542 -11.2527 -11.2310 -11.2106 -11.2105 -11.1983
   -11.1972 -11.1866 -11.1859 -11.1850 -11.1808 -11.1607 -11.1603 -11.1550
   -11.1261 -11.1237 -11.0870 -11.0738 -11.0717 -11.0684 -11.0016 -10.9616
   -10.9599 -10.9359 -10.9288 -10.9211 -10.9113 -10.8906 -10.8812 -10.8549
   -10.8533 -10.8502 -10.8450 -10.8321 -10.8320 -10.8306 -10.8300 -10.8291
   -10.8235 -10.8230 -10.8146 -10.8111 -10.8086 -10.8082 -10.8078 -10.8075
   -10.8060 -10.8059 -10.7957 -10.7935 -10.7852 -10.7717 -10.7616 -10.7613
   -10.7601 -10.7549 -10.5597 -10.5517 -10.5460 -10.5409 -10.5060 -10.4891
   -10.4223 -10.3895 -10.3216 -10.2851 -10.2564 -10.2348 -10.1678 -10.1608
   -10.1548 -10.1475 -10.1230 -10.1110 -10.0999 -10.0962 -10.0745 -10.0679
   -10.0654 -10.0420 -10.0412 -10.0296 -10.0294 -10.0229 -10.0148  -9.9989
    -9.9519  -9.9436  -9.9343  -9.9296  -9.9199  -9.9159  -9.9156  -9.9125
    -9.8998  -9.8724  -9.8535  -9.8466  -9.8210  -9.8157  -9.7961  -9.7959
    -9.7777  -9.7766  -9.7581  -9.7517  -9.7281  -9.7259  -9.6973  -9.6895
    -9.6886  -9.6741  -9.6636  -9.6472  -9.6274  -9.6181  -9.6162  -9.5842
    -9.5729  -9.5557  -9.5526  -9.5518  -9.5511  -9.5505  -9.5299  -9.5283
    -9.5050  -9.5045  -9.4864  -9.4826  -9.4802  -9.4774  -9.4705  -9.4693
    -9.4465  -9.4437  -9.4402  -9.4335  -9.3715  -9.3613  -9.2880  -9.2719
    -9.2629  -9.2486  -9.2261  -9.2170  -9.2105  -9.2056  -9.1936  -9.1820
    -9.1798  -9.1741  -9.1356  -9.1298  -9.1246  -9.0863  -9.0852  -9.0829
    -9.0734  -9.0524  -9.0522  -9.0504  -9.0389  -9.0333  -9.0324  -9.0245
    -8.9799  -8.9779  -8.9702  -8.9678  -8.9559  -8.9498  -8.9474  -8.9395
    -8.9130  -8.9071  -8.9050  -8.9008  -8.8979  -8.8908  -8.8886  -8.8879
    -8.8816  -8.8815  -8.8785  -8.8780  -8.8667  -8.8619  -8.8584  -8.8567
    -8.8537  -8.8477  -8.8383  -8.8364  -8.8221  -8.8166  -8.8096  -8.8031
    -8.7992  -8.7987  -8.7986  -8.7929  -8.7802  -8.7659  -8.7515  -8.7464
    -8.7395  -8.7376  -8.7184  -8.7082  -8.6677  -8.6573  -8.6272  -8.5935
    -8.5710  -8.5352  -8.5197  -8.5040  -8.4568  -8.4382  -8.3745  -8.3641
    -8.3053  -8.3020  -8.2813  -8.2568  -8.1470  -8.1467  -8.1395  -8.1381
    -8.1294  -8.1267  -8.1223  -8.1032  -8.0917  -8.0785  -8.0458  -7.9909
    -7.9909  -7.9511  -7.9460  -7.8813  -7.8606  -7.8595  -7.8574  -7.8460
    -7.8357  -7.8330  -7.8304  -7.8226  -7.8196  -7.8129  -7.8092  -7.8089
    -7.8079  -7.8050  -7.8045  -7.8009  -7.7986  -7.7970  -7.7908  -7.7892
    -7.7871  -7.7866  -7.7860  -7.7823  -7.7802  -7.7767  -7.7741  -7.7693
    -7.7643  -7.7602  -7.7539  -7.7385  -7.7362  -7.7336  -7.7280  -7.7164
    -7.7159  -7.7124  -7.7123  -7.7097  -7.7072  -7.7046  -7.6855  -7.6841
    -7.6814  -7.6813  -7.6653  -7.6584  -7.6385  -7.6314  -7.6256  -7.6224
    -7.6166  -7.6120  -7.6119  -7.6113  -7.6042  -7.6016  -7.5937  -7.5823
    -7.5810  -7.5799  -7.5704  -7.5611  -7.5541  -7.5523  -7.4789  -7.4765
    -7.4696  -7.4668  -7.4609  -7.4354  -7.3656  -7.2809  -7.2487  -7.1960
    -7.1887  -7.1873  -7.1847  -7.1671  -7.1381  -7.1342  -7.1320  -7.1226
    -7.1171  -7.1071  -7.0635  -7.0619  -7.0516  -7.0394  -7.0363  -7.0325
    -7.0272  -7.0050  -6.9899  -6.9637  -6.9615  -6.9376  -6.9273  -6.9169
    -6.9094  -6.8913  -6.8789  -6.8753  -6.8735  -6.8635  -6.8627  -6.8355
    -6.8025  -6.7861  -6.7657  -6.7467  -6.7408  -6.7010  -6.6891  -6.6734
    -6.6586  -6.6438  -6.6379  -6.6345  -6.6244  -6.6235  -6.6227  -6.6220
    -6.6068  -6.6061  -6.6058  -6.6052  -6.5979  -6.5978  -6.5977  -6.5976
    -6.5835  -6.5661  -6.5219  -6.5136  -6.4900  -6.4746  -6.4224  -6.4218
    -6.3588  -6.3494  -6.3411  -6.3397  -6.3331  -6.3135  -6.3024  -6.3002
    -6.2949  -6.2946  -6.2909  -6.2902  -6.2883  -6.2820  -6.2617  -6.2525
    -6.2452  -6.2402  -6.2320  -6.2229  -6.2173  -6.2144  -6.2023  -6.2012
    -6.0169  -6.0129  -5.9723  -5.9598  -5.9339  -5.9065  -5.9024  -5.8691
    -5.8596  -5.8544  -5.7524  -5.6981  -5.6316  -5.6139  -5.5642  -5.5344
    -5.5122  -4.1251  -4.1067  -4.1054  -4.1010  -4.0041  -3.9539  -3.9384
    -3.9291  -3.9252  -3.9140  -3.8601  -3.8591  -3.8468  -3.8419  -3.8358
    -3.8251  -3.8245  -3.8148  -3.8145  -3.8038  -3.7333  -3.6947  -3.6913
    -3.6792  -3.6361  -3.6225  -3.6176  -3.6176  -3.6172  -3.6116  -3.5701
    -3.5693  -3.5547  -3.5401  -3.5355  -3.5340  -3.5326  -3.5310  -3.5152
    -3.4956  -3.4945  -3.4915  -3.4897  -3.4854  -3.4847  -3.4789  -3.4630
    -3.4606  -3.4602  -3.4419  -3.4350  -3.4348  -3.4337  -3.4224  -3.3878
    -3.3689  -3.3639  -3.3620  -3.3615  -3.3604  -3.3577  -3.3564  -3.3469
    -3.3230  -3.3153  -3.3055  -3.3020  -3.2994  -3.2978  -3.2973  -3.2949
    -3.2942  -3.2871  -3.2614  -3.2571  -3.2530  -3.2496  -3.2495  -3.2423
    -3.2313  -3.2291  -3.2238  -3.2208  -3.2113  -3.1998  -3.1942  -3.1899
    -3.1836  -3.1835  -3.1793  -3.1790  -3.1774  -3.1762  -3.1612  -3.1136
    -3.1132  -3.0862  -3.0833  -3.0811  -3.0766  -3.0745  -3.0685  -3.0400
    -3.0394  -3.0392  -3.0391  -3.0382  -3.0380  -3.0275  -3.0262  -3.0240
    -3.0176  -3.0171  -3.0162  -3.0072  -3.0067  -2.9881  -2.9872  -2.9847
    -2.9836  -2.9794  -2.9745  -2.9717  -2.9695  -2.9643  -2.9640  -2.9604
    -2.9596  -2.9503  -2.9461  -2.9458  -2.9393  -2.9051  -2.9029  -2.8993
    -2.8981  -2.8914  -2.8847  -2.8727  -2.8707  -2.8066  -2.8045  -2.8023
    -2.8011  -2.7353  -2.7283  -2.7275  -2.7244  -2.6278  -2.6258  -2.5899
    -2.5872  -2.5740  -2.5616  -2.5589  -2.5563  -2.5466  -2.5428  -2.5420
    -2.5389  -2.5386  -2.5340  -2.4148  -2.4103  -2.4051  -2.4016  -2.3800
    -2.3604

          k =-0.5000-0.8660 0.0000 (386352 PWs)   bands (ev):

   -88.3768 -66.6385 -66.6385 -66.6384 -66.6382 -66.6372 -66.6371 -66.6344
   -66.6297 -66.6278 -66.6278 -66.6277 -66.6277 -66.6265 -66.6265 -66.6212
   -66.6169 -66.6127 -66.6127 -66.6127 -66.6127 -66.6127 -66.6126 -66.6126
   -66.6125 -66.6114 -66.6114 -66.6114 -66.6114 -66.6089 -66.6084 -66.6083
   -66.6083 -66.6082 -66.6080 -66.6071 -66.6070 -66.6069 -66.6021 -66.6020
   -66.6020 -66.6020 -66.6020 -66.6020 -66.6019 -66.6019 -66.6017 -66.6016
   -66.6007 -66.6007 -66.6006 -66.6006 -66.5993 -66.5975 -66.5975 -66.5975
   -66.5974 -66.5962 -66.5962 -66.5903 -66.5885 -66.5841 -66.5820 -66.5814
   -66.5769 -54.1991 -54.1806 -54.1804 -40.9404 -40.9404 -40.9404 -40.9403
   -40.9403 -40.9403 -40.9403 -40.9400 -40.9397 -40.9397 -40.9396 -40.9396
   -40.9362 -40.9290 -40.9254 -40.9248 -40.9136 -40.9135 -40.9135 -40.9133
   -40.9129 -40.9128 -40.9057 -40.9015 -40.9014 -40.9014 -40.9014 -40.9013
   -40.9008 -40.9008 -40.8886 -40.8869 -40.8508 -40.8508 -40.8508 -40.8508
   -40.8507 -40.8507 -40.8507 -40.8507 -40.8500 -40.8500 -40.8500 -40.8500
   -40.8406 -40.8390 -40.8383 -40.8359 -40.7959 -40.7921 -40.7921 -40.7921
   -40.7919 -40.7915 -40.7914 -40.7884 -40.7825 -40.7825 -40.7824 -40.7824
   -40.7816 -40.7816 -40.7754 -40.7723 -40.7712 -40.7712 -40.7712 -40.7711
   -40.7706 -40.7706 -40.7684 -40.7644 -40.7488 -40.7416 -40.7416 -40.7416
   -40.7416 -40.7416 -40.7416 -40.7415 -40.7415 -40.7409 -40.7409 -40.7409
   -40.7409 -40.7364 -40.7358 -40.7331 -40.7329 -40.7329 -40.7329 -40.7327
   -40.7322 -40.7322 -40.7300 -40.7241 -40.7210 -40.7210 -40.7210 -40.7209
   -40.7207 -40.7206 -40.7206 -40.7206 -40.7206 -40.7205 -40.7205 -40.7202
   -40.7201 -40.7201 -40.7200 -40.7199 -40.7199 -40.7198 -40.7198 -40.7135
   -40.7133 -40.7119 -40.7119 -40.7118 -40.7118 -40.7114 -40.7112 -40.7112
   -40.7078 -40.7073 -40.7062 -40.7000 -40.6902 -40.6901 -40.6901 -40.6901
   -40.6900 -40.6900 -40.6900 -40.6898 -40.6892 -40.6892 -40.6891 -40.6891
   -40.6839 -40.6792 -40.6768 -40.6740 -40.6553 -40.6553 -40.6553 -40.6553
   -40.6553 -40.6553 -40.6553 -40.6553 -40.6544 -40.6544 -40.6544 -40.6544
   -40.6444 -40.6432 -40.6432 -40.6432 -40.6432 -40.6430 -40.6430 -40.6423
   -40.6422 -40.6420 -40.6329 -40.6261 -40.6239 -40.6239 -40.6238 -40.6237
   -40.6229 -40.6229 -40.6143 -40.6102 -40.6069 -40.6069 -40.6068 -40.6068
   -40.6059 -40.6059 -40.5923 -40.5914 -40.5763 -40.5762 -40.5762 -40.5760
   -40.5752 -40.5752 -40.5664 -40.5593 -19.9183 -19.9012 -19.8628 -19.8300
   -19.7678 -19.7368 -19.6703 -19.6579 -19.4703 -19.4655 -19.4160 -19.4028
   -19.3308 -19.3167 -19.2419 -19.2362 -18.8480 -18.7967 -18.7619 -18.7592
   -18.7588 -18.7476 -18.7348 -18.7266 -18.7202 -18.6922 -18.6830 -18.6670
   -18.6520 -18.6421 -18.6334 -18.6175 -18.5898 -18.5863 -18.5726 -18.5643
   -18.5640 -18.5526 -18.5321 -18.5197 -18.4998 -18.4962 -18.4757 -18.4751
   -18.4693 -18.4503 -18.4242 -18.4217 -18.4102 -18.3882 -18.3646 -18.3570
   -18.3450 -18.3284 -18.2868 -18.2697 -18.2588 -18.2536 -18.2437 -18.2358
   -18.2008 -18.1958 -18.1680 -18.1477 -18.1336 -18.1287 -18.1248 -18.1216
   -18.1205 -18.1201 -18.1149 -18.1038 -18.0904 -18.0894 -18.0884 -18.0843
   -18.0803 -18.0665 -18.0601 -18.0600 -18.0551 -18.0517 -18.0470 -18.0457
   -18.0265 -18.0221 -18.0186 -18.0144 -18.0125 -18.0114 -18.0028 -18.0024
   -17.9980 -17.9901 -17.9586 -17.9555 -17.9511 -17.9428 -17.9319 -17.9318
   -17.9071 -17.8989 -17.8870 -17.8867 -17.8649 -17.8616 -17.8533 -17.8524
   -17.8396 -17.8386 -17.8382 -17.8376 -17.8346 -17.8339 -17.8292 -17.8257
   -17.8164 -17.8083 -17.7983 -17.7872 -17.7773 -17.7717 -17.7582 -17.7539
   -17.7449 -17.7416 -17.7384 -17.7376 -11.7734 -11.7336 -11.6702 -11.5588
   -11.5453 -11.5316 -11.5316 -11.5170 -11.4993 -11.4948 -11.4935 -11.4869
   -11.4565 -11.4482 -11.4475 -11.4096 -11.3969 -11.3894 -11.3523 -11.3464
   -11.3460 -11.3345 -11.3336 -11.2956 -11.2954 -11.2883 -11.2816 -11.2789
   -11.2716 -11.2714 -11.2542 -11.2527 -11.2310 -11.2106 -11.2105 -11.1983
   -11.1972 -11.1866 -11.1859 -11.1850 -11.1808 -11.1607 -11.1603 -11.1550
   -11.1261 -11.1238 -11.0870 -11.0738 -11.0717 -11.0684 -11.0016 -10.9616
   -10.9599 -10.9359 -10.9288 -10.9211 -10.9113 -10.8906 -10.8812 -10.8549
   -10.8533 -10.8502 -10.8450 -10.8321 -10.8320 -10.8306 -10.8301 -10.8291
   -10.8235 -10.8230 -10.8146 -10.8111 -10.8086 -10.8082 -10.8078 -10.8075
   -10.8060 -10.8058 -10.7957 -10.7935 -10.7852 -10.7717 -10.7616 -10.7613
   -10.7601 -10.7549 -10.5597 -10.5517 -10.5460 -10.5409 -10.5060 -10.4891
   -10.4223 -10.3895 -10.3215 -10.2854 -10.2564 -10.2346 -10.1678 -10.1608
   -10.1548 -10.1475 -10.1230 -10.1110 -10.0999 -10.0962 -10.0745 -10.0679
   -10.0654 -10.0420 -10.0412 -10.0296 -10.0294 -10.0228 -10.0148  -9.9988
    -9.9519  -9.9436  -9.9343  -9.9296  -9.9199  -9.9159  -9.9156  -9.9126
    -9.8998  -9.8724  -9.8535  -9.8467  -9.8210  -9.8157  -9.7962  -9.7959
    -9.7777  -9.7766  -9.7581  -9.7517  -9.7281  -9.7260  -9.6974  -9.6895
    -9.6885  -9.6741  -9.6636  -9.6472  -9.6274  -9.6181  -9.6162  -9.5842
    -9.5730  -9.5557  -9.5526  -9.5519  -9.5511  -9.5505  -9.5299  -9.5284
    -9.5050  -9.5045  -9.4864  -9.4826  -9.4802  -9.4774  -9.4705  -9.4693
    -9.4465  -9.4437  -9.4402  -9.4334  -9.3715  -9.3613  -9.2880  -9.2719
    -9.2629  -9.2486  -9.2261  -9.2169  -9.2105  -9.2056  -9.1936  -9.1821
    -9.1797  -9.1741  -9.1356  -9.1298  -9.1246  -9.0863  -9.0851  -9.0829
    -9.0734  -9.0524  -9.0522  -9.0504  -9.0389  -9.0333  -9.0324  -9.0245
    -8.9798  -8.9779  -8.9702  -8.9678  -8.9559  -8.9499  -8.9474  -8.9395
    -8.9130  -8.9071  -8.9050  -8.9008  -8.8979  -8.8907  -8.8886  -8.8879
    -8.8816  -8.8815  -8.8785  -8.8781  -8.8667  -8.8619  -8.8584  -8.8567
    -8.8537  -8.8478  -8.8383  -8.8364  -8.8221  -8.8166  -8.8097  -8.8031
    -8.7992  -8.7987  -8.7986  -8.7929  -8.7802  -8.7659  -8.7515  -8.7464
    -8.7395  -8.7376  -8.7184  -8.7082  -8.6678  -8.6573  -8.6272  -8.5935
    -8.5710  -8.5352  -8.5196  -8.5040  -8.4568  -8.4382  -8.3745  -8.3641
    -8.3053  -8.3021  -8.2813  -8.2568  -8.1470  -8.1467  -8.1395  -8.1381
    -8.1294  -8.1267  -8.1223  -8.1032  -8.0917  -8.0784  -8.0458  -7.9909
    -7.9908  -7.9512  -7.9460  -7.8813  -7.8606  -7.8595  -7.8573  -7.8460
    -7.8356  -7.8330  -7.8304  -7.8225  -7.8196  -7.8128  -7.8092  -7.8090
    -7.8078  -7.8050  -7.8045  -7.8009  -7.7985  -7.7970  -7.7908  -7.7892
    -7.7871  -7.7866  -7.7860  -7.7823  -7.7802  -7.7767  -7.7741  -7.7693
    -7.7643  -7.7602  -7.7539  -7.7385  -7.7362  -7.7336  -7.7280  -7.7164
    -7.7159  -7.7124  -7.7123  -7.7097  -7.7072  -7.7045  -7.6855  -7.6841
    -7.6814  -7.6813  -7.6653  -7.6584  -7.6386  -7.6314  -7.6256  -7.6224
    -7.6166  -7.6120  -7.6119  -7.6113  -7.6042  -7.6016  -7.5937  -7.5823
    -7.5809  -7.5799  -7.5704  -7.5611  -7.5541  -7.5523  -7.4788  -7.4766
    -7.4696  -7.4667  -7.4609  -7.4354  -7.3656  -7.2809  -7.2487  -7.1960
    -7.1887  -7.1873  -7.1847  -7.1671  -7.1381  -7.1342  -7.1320  -7.1226
    -7.1171  -7.1071  -7.0635  -7.0619  -7.0516  -7.0394  -7.0363  -7.0325
    -7.0272  -7.0050  -6.9899  -6.9637  -6.9615  -6.9376  -6.9273  -6.9169
    -6.9094  -6.8913  -6.8789  -6.8753  -6.8735  -6.8635  -6.8627  -6.8355
    -6.8025  -6.7861  -6.7658  -6.7467  -6.7408  -6.7010  -6.6891  -6.6735
    -6.6586  -6.6438  -6.6379  -6.6345  -6.6244  -6.6235  -6.6227  -6.6219
    -6.6068  -6.6061  -6.6058  -6.6052  -6.5979  -6.5977  -6.5977  -6.5976
    -6.5835  -6.5661  -6.5219  -6.5136  -6.4900  -6.4746  -6.4224  -6.4218
    -6.3589  -6.3494  -6.3412  -6.3396  -6.3331  -6.3135  -6.3024  -6.3002
    -6.2949  -6.2946  -6.2909  -6.2902  -6.2884  -6.2820  -6.2617  -6.2525
    -6.2452  -6.2402  -6.2319  -6.2230  -6.2172  -6.2145  -6.2022  -6.2012
    -6.0169  -6.0129  -5.9723  -5.9598  -5.9339  -5.9065  -5.9024  -5.8691
[...]
     atom  160 type  2   force =     0.00000001    0.00000000    0.00017151
     atom  161 type  2   force =     0.00000002    0.00000001    0.00441527
     atom  162 type  2   force =    -0.00000004    0.00000007    0.00009759
     atom  163 type  1   force =    -0.00000005   -0.00000182   -0.00000014
     atom  164 type  1   force =     0.00009144    0.00005280   -0.00246277
     atom  165 type  2   force =    -0.00000002   -0.00000111   -0.00016863
     atom  166 type  2   force =    -0.00000822   -0.00000474    0.00004156
     atom  167 type  2   force =    -0.00000043   -0.00000024   -0.00009555
     atom  168 type  2   force =     0.00000000    0.00002220   -0.00439860
     atom  169 type  1   force =    -0.00000003   -0.00000001    0.00255981
     atom  170 type  1   force =    -0.00000006   -0.00000005    0.00001498
     atom  171 type  2   force =    -0.00000003   -0.00000000   -0.00003305
     atom  172 type  2   force =    -0.00000000   -0.00000000    0.00017155
     atom  173 type  2   force =    -0.00000000    0.00000000    0.00441529
     atom  174 type  2   force =    -0.00000014   -0.00000013    0.00009765
     atom  175 type  1   force =     0.00000933    0.00000081   -0.00000838
     atom  176 type  1   force =    -0.00000001    0.00001329   -0.00247157
     atom  177 type  2   force =     0.00000166    0.00000690   -0.00012221
     atom  178 type  2   force =    -0.00000002    0.00000048    0.00004014
     atom  179 type  2   force =    -0.00000002    0.00000030   -0.00009535
     atom  180 type  2   force =    -0.00027311   -0.00004942   -0.00431453
     atom  181 type  1   force =    -0.00000003   -0.00000003    0.00255981
     atom  182 type  1   force =    -0.00000007   -0.00000002    0.00001495
     atom  183 type  2   force =    -0.00000001   -0.00000001   -0.00003305
     atom  184 type  2   force =     0.00000001    0.00000001    0.00017154
     atom  185 type  2   force =     0.00000003    0.00000002    0.00441529
     atom  186 type  2   force =    -0.00000017   -0.00000005    0.00009763
     atom  187 type  1   force =     0.00000541    0.00000766   -0.00000839
     atom  188 type  1   force =    -0.00007194   -0.00004154   -0.00245658
     atom  189 type  2   force =     0.00000682   -0.00000202   -0.00012220
     atom  190 type  2   force =     0.00001667    0.00000962    0.00003368
     atom  191 type  2   force =     0.00000051    0.00000031   -0.00009583
     atom  192 type  2   force =    -0.00017935   -0.00021181   -0.00431453
     atom  193 type  3   force =     0.00000013    0.00000006    0.00216145

     Total force =     0.003113     Total SCF correction =     0.000278
     Energy error            =      3.6E-05 Ry
     Gradient error          =      8.8E-04 Ry/Bohr

     bfgs converged in  15 scf cycles and  14 bfgs steps
     (criteria: energy <  1.0E-04 Ry, force <  1.0E-03 Ry/Bohr)

     End of BFGS Geometry Optimization

     Final energy             =  -32305.6628339396 Ry

     File ./outdir/pwscf.bfgs deleted, as requested
Begin final coordinates

ATOMIC_POSITIONS (angstrom)
Mo            0.0000119917        1.8193638619       -9.1672481230    0   0   0
Mo            1.5756136568        0.9097075315       -3.0554901653    0   0   0
S             0.0000188998        1.8193822938       -4.6232556019    0   0   0
S             1.5756321638        0.9096773839       -7.6014065489    0   0   0
S             1.5756326175        0.9096785128      -10.7330757790    0   0   0
S             0.0000189190        1.8193860094       -1.4877129945    0   0   0
Mo            0.0000089900        1.8196386097        3.0557008815
Mo            1.5756712595        0.9079632209        9.1589751230
S             0.0009353905        1.8212533206        7.5893818940
S             1.5756499392        0.9097005877        4.6228409336
S             1.5756644275        0.9099214128        1.4878231910
S            -0.0051910362        1.8035985404       10.7322900276
Mo           -1.5756053507        4.5484193819       -9.1672481230    0   0   0
Mo            0.0000378379        3.6387394919       -3.0554952701    0   0   0
S            -1.5755913433        4.5484363582       -4.6232494962    0   0   0
S             0.0000148214        3.6387329039       -7.6014065489    0   0   0
S             0.0000152751        3.6387340328      -10.7330757790    0   0   0
S            -1.5755906502        4.5484413613       -1.4877305502    0   0   0
Mo           -1.5752778008        4.5486057066        3.0562080205
Mo           -0.0090665171        3.6259748888        9.1706626747
S            -1.5770248274        4.5476031385        7.5973327718
S             0.0007826250        3.6391763476        4.6239735360
S            -0.0001212860        3.6389277793        1.4880498653
S            -1.5815106561        4.5450131703       10.7361572491
Mo           -3.1512226931        7.2774749019       -9.1672481230    0   0   0
Mo           -1.5755910988        6.3678216792       -3.0555115988    0   0   0
S            -3.1512162438        7.2774954350       -4.6232578178    0   0   0
S            -1.5756025210        6.3677884239       -7.6014065489    0   0   0
S            -1.5756020673        6.3677895528      -10.7330757790    0   0   0
S            -3.1512127704        7.2774877076       -1.4877200710    0   0   0
Mo           -3.1509817969        7.2773334748        3.0557003805
Mo           -1.5911941115        6.3663099471        9.1706635381
S            -3.1491256445        7.2773337757        7.5893802069
S            -1.5748334332        6.3682252510        4.6239740129
S            -1.5754997023        6.3675686135        1.4880545580
S            -3.1674792062        7.2808546006       10.7322910732
Mo           -4.7268400355       10.0065304219       -9.1672481230    0   0   0
Mo           -3.1512405618        9.0968403586       -3.0554816746    0   0   0
S            -4.7268341792       10.0065523623       -4.6232463762    0   0   0
S            -3.1512198634        9.0968439439       -7.6014065489    0   0   0
S            -3.1512194097        9.0968450728      -10.7330757790    0   0   0
S            -4.7268370797       10.0065537885       -1.4877176751    0   0   0
Mo           -4.7268114491       10.0065323747        3.0552376528
Mo           -3.1526863190        9.0977400771        9.1589778465
S            -4.7267896256       10.0065602101        7.5897916313
S            -3.1511861525        9.0968442445        4.6228537043
S            -3.1509998706        9.0967394890        1.4877926544
S            -4.7268008825       10.0065536973       10.7288215308
Mo            3.1512517547        1.8193638619       -9.1672481230    0   0   0
Mo            4.7269020221        0.9097289540       -3.0554823951    0   0   0
S             3.1512612351        1.8193882564       -4.6232320683    0   0   0
S             4.7268719268        0.9096773839       -7.6014065489    0   0   0
S             4.7268723805        0.9096785128      -10.7330757790    0   0   0
S             3.1512592485        1.8193890201       -1.4877261251    0   0   0
Mo            3.1513082772        1.8196441413        3.0557085891
Mo            4.7259501722        0.9091487481        9.1562307678
S             3.1504122714        1.8212456771        7.5893806715
S             4.7272584287        0.9099012532        4.6229906422
S             4.7267641931        0.9096294072        1.4878209931
S             3.1565331265        1.8035990111       10.7322909491
Mo            1.5756344123        4.5484193819       -9.1672481230    0   0   0
Mo            3.1512756394        3.6387769522       -3.0554814834    0   0   0
S             1.5756504879        4.5484423799       -4.6232390542    0   0   0
S             3.1512545844        3.6387329039       -7.6014065489    0   0   0
S             3.1512550381        3.6387340328      -10.7330757790    0   0   0
S             1.5756466253        4.5484431864       -1.4877251801    0   0   0
Mo            1.5756682425        4.5486927738        3.0553954275
Mo            3.1604205327        3.6259734523        9.1706593237
S             1.5756772639        4.5720324120        7.6410610534
S             3.1505602450        3.6391971864        4.6239696295
S             3.1514555625        3.6389251969        1.4880689995
S             1.5756784408        4.4358151167       10.7870785958
Mo            0.0000170699        7.2774749019       -9.1672481230    0   0   0
Mo            1.5756764447        6.3678236689       -3.0554877708    0   0   0
S             0.0000381981        7.2774979204       -4.6232454413    0   0   0
S             1.5756372420        6.3677884239       -7.6014065489    0   0   0
S             1.5756376957        6.3677895528      -10.7330757790    0   0   0
S             0.0000328088        7.2774946042       -1.4877307940    0   0   0
Mo            0.0002800024        7.2773469049        3.0553967386
Mo            1.5756796389        6.3678190708        9.2285695647
S             0.0204847987        7.2657121245        7.6410585565
S             1.5756786032        6.3677922058        4.6232181560
S             1.5756807936        6.3677963924        1.4873369104
S            -0.0974803621        7.3338199680       10.7870800974
Mo           -1.5756002725       10.0065304219       -9.1672481230    0   0   0
Mo            0.0000873425        9.0968676911       -3.0554912329    0   0   0
S            -1.5755883952       10.0065504530       -4.6232240150    0   0   0
S             0.0000198996        9.0968439439       -7.6014065489    0   0   0
S             0.0000203533        9.0968450728      -10.7330757790    0   0   0
S            -1.5755859047       10.0065492576       -1.4877362381    0   0   0
Mo           -1.5753347472       10.0064387390        3.0557027429
Mo           -0.0064493036        9.1111683425        9.1706590462
S            -1.5743926784       10.0048660520        7.5893799956
S             0.0000539584        9.0960015757        4.6239541466
S             0.0002842766        9.0969079102        1.4880776710
S            -1.5866128990       10.0189900891       10.7322920408
Mo            6.3024915177        1.8193638619       -9.1672481230    0   0   0
Mo            7.8781001445        0.9096521684       -3.0554919963    0   0   0
S             6.3025008696        1.8193826232       -4.6232480596    0   0   0
S             7.8781116898        0.9096773839       -7.6014065489    0   0   0
S             7.8781121435        0.9096785128      -10.7330757790    0   0   0
S             6.3025042007        1.8193849068       -1.4877147524    0   0   0
Mo            6.3025735657        1.8194139362        3.0551809680
Mo            7.8781516582        0.9117656078        9.1643897944
S             6.3054621016        1.8210800277        7.5927160829
S             7.8781354151        0.9098097123        4.6229468591
S             7.8781496493        0.9091453621        1.4877826645
S             6.3009067269        1.8184518133       10.7303109350
Mo            4.7268741753        4.5484193819       -9.1672481230    0   0   0
Mo            6.3024679138        3.6387501714       -3.0554895197    0   0   0
S             4.7268748770        4.5484386753       -4.6232519432    0   0   0
S             6.3024943474        3.6387329039       -7.6014065489    0   0   0
S             6.3024948011        3.6387340328      -10.7330757790    0   0   0
S             4.7268770533        4.5484432419       -1.4877137856    0   0   0
Mo            4.7266017479        4.5486218749        3.0561991092
Mo            6.3043211863        3.6377294274        9.1643898445
S             4.7283788131        4.5476057953        7.5973286906
S             6.3026122261        3.6387004186        4.6229550443
S             6.3020445703        3.6390379530        1.4877589219
S             4.7328658509        4.5450187931       10.7361497282
Mo            3.1512568329        7.2774749019       -9.1672481230    0   0   0
Mo            4.7268384135        6.3678043337       -3.0554959052    0   0   0
S             3.1512606125        7.2774972547       -4.6232589675    0   0   0
S             4.7268770050        6.3677884239       -7.6014065489    0   0   0
S             4.7268774587        6.3677895528      -10.7330757790    0   0   0
S             3.1512629079        7.2774963749       -1.4877081835    0   0   0
Mo            3.1510675963        7.2773499473        3.0553981547
Mo            4.7425583461        6.3663132266        9.1706531500
S             3.1308746801        7.2657111780        7.6410548282
S             4.7261562136        6.3682249503        4.6240025722
S             4.7268236621        6.3675838310        1.4880284392
S             3.2488494891        7.3338218120       10.7870674664
Mo            1.5756394905       10.0065304219       -9.1672481230    0   0   0
Mo            3.1512330605        9.0968514907       -3.0554878870    0   0   0
S             1.5756499830       10.0065443759       -4.6232632674    0   0   0
S             3.1512596626        9.0968439439       -7.6014065489    0   0   0
S             3.1512601163        9.0968450728      -10.7330757790    0   0   0
S             1.5756503041       10.0065459699       -1.4877044377    0   0   0
Mo            1.5756792208       10.0061869567        3.0562052831
Mo            3.1578192095        9.1111680417        9.1706531352
S             1.5756860941       10.0082442502        7.5973261943
S             3.1513005534        9.0959905175        4.6239872364
S             3.1510684429        9.0968917517        1.4880458726
S             1.5756883060       10.0134213368       10.7361502825
Mo            9.4537312807        1.8193638619       -9.1672481230    0   0   0
Mo           11.0293863460        0.9096952246       -3.0554894007    0   0   0
S             9.4537395970        1.8193770750       -4.6232328036    0   0   0
S            11.0293514528        0.9096773839       -7.6014065489    0   0   0
S            11.0293519066        0.9096785128      -10.7330757790    0   0   0
S             9.4537393632        1.8193794783       -1.4877366147    0   0   0
Mo            9.4537014364        1.8194116354        3.0551925134
Mo           11.0303521043        0.9091531844        9.1562263290
S             9.4508365682        1.8210862581        7.5927131398
S            11.0290337901        0.9098858527        4.6229888178
S            11.0294985710        0.9096140492        1.4878163482
S             9.4553965878        1.8184508515       10.7303118238
Mo            7.8781139383        4.5484193819       -9.1672481230    0   0   0
Mo            9.4537539161        3.6387607911       -3.0554933032    0   0   0
S             7.8781175448        4.5484378232       -4.6232366318    0   0   0
S             9.4537341104        3.6387329039       -7.6014065489    0   0   0
S             9.4537345641        3.6387340328      -10.7330757790    0   0   0
S             7.8781194018        4.5484411585       -1.4877377057    0   0   0
Mo            7.8781399570        4.5483617310        3.0551859626
Mo            9.4519881944        3.6377297451        9.1643931754
S             7.8781577333        4.5450564051        7.5927108765
S             9.4536477953        3.6386874902        4.6229550021
S             9.4542225694        3.6390134196        1.4877865829
S             7.8781534412        4.5503231188       10.7303110652
Mo            6.3024965959        7.2774749019       -9.1672481230    0   0   0
Mo            7.8781361655        6.3678242352       -3.0555014130    0   0   0
S             6.3024973331        7.2774953556       -4.6232392528    0   0   0
S             7.8781167680        6.3677884239       -7.6014065489    0   0   0
S             7.8781172217        6.3677895528      -10.7330757790    0   0   0
S             6.3024989866        7.2774929744       -1.4877349119    0   0   0
Mo            6.3022965024        7.2773254486        3.0557029558
Mo            7.8781611253        6.3689237573        9.1562248705
S             6.3004973425        7.2773333136        7.5893716991
S             7.8781370364        6.3673951680        4.6229797158
S             7.8781303389        6.3679433204        1.4878271120
S             6.3188388492        7.2808641028       10.7322807365
Mo            4.7268792535       10.0065304219       -9.1672481230    0   0   0
Mo            6.3025111524        9.0968738021       -3.0554915260    0   0   0
S             4.7268840634       10.0065452125       -4.6232380477    0   0   0
S             6.3024994256        9.0968439439       -7.6014065489    0   0   0
S             6.3024998793        9.0968450728      -10.7330757790    0   0   0
S             4.7268847312       10.0065459141       -1.4877283294    0   0   0
Mo            4.7266684423       10.0064304989        3.0557018703
Mo            6.3040536855        9.0977438816        9.1589646921
S             4.7257563340       10.0048719113        7.5893730283
S             6.3025056132        9.0968322139        4.6228337915
S             6.3023202977        9.0967213348        1.4878216173
S             4.7379843974       10.0189902366       10.7322807733
Pd            1.5756990442        6.3678255483       12.1024753336
End final coordinates



     Writing all to output data dir ./outdir/pwscf.save/
 
     init_run     :    195.15s CPU    198.75s WALL (       1 calls)
     electrons    : 123162.44s CPU 124392.32s WALL (      15 calls)
     update_pot   :     75.62s CPU     76.06s WALL (      14 calls)
     forces       :   1872.52s CPU   1917.65s WALL (      15 calls)
     force_dftd3  :     11.45s CPU     12.25s WALL (      15 calls)

     Called by init_run:
     wfcinit      :    169.98s CPU    172.11s WALL (       1 calls)
     potinit      :      2.22s CPU      2.30s WALL (       1 calls)
     hinit0       :     16.15s CPU     16.18s WALL (       1 calls)

     Called by electrons:
     c_bands      : 110807.17s CPU 111518.02s WALL (     175 calls)
     sum_band     :  11608.68s CPU  11904.48s WALL (     175 calls)
     v_of_rho     :     89.52s CPU     91.39s WALL (     177 calls)
     newd         :    492.65s CPU    728.68s WALL (     177 calls)
     PAW_pot      :    126.62s CPU    126.65s WALL (     191 calls)
     mix_rho      :     21.43s CPU     21.46s WALL (     175 calls)
     energy_dftd3 :      5.55s CPU      5.55s WALL (      15 calls)

     Called by c_bands:
     init_us_2    :    438.75s CPU    439.00s WALL (    1520 calls)
     init_us_2:cp :    438.74s CPU    438.99s WALL (    1520 calls)
     cegterg      : 109338.74s CPU 110023.82s WALL (     714 calls)

     Called by *egterg:
     cdiaghg      :   6261.96s CPU   6281.99s WALL (    8480 calls)
     h_psi        :  57103.63s CPU  57312.07s WALL (    8592 calls)
     s_psi        :  11957.99s CPU  12002.41s WALL (    8592 calls)
     g_psi        :    109.65s CPU    109.66s WALL (    7874 calls)

     Called by h_psi:
     h_psi:calbec :  12522.31s CPU  12524.26s WALL (    8592 calls)
     vloc_psi     :  32438.56s CPU  32507.47s WALL (    8592 calls)
     add_vuspsi   :  12018.28s CPU  12062.36s WALL (    8592 calls)

     General routines
     calbec       :  17897.74s CPU  17900.57s WALL (    9588 calls)
     fft          :     95.60s CPU     97.64s WALL (    2463 calls)
     ffts         :      4.58s CPU      4.62s WALL (     352 calls)
     fftw         :  26747.15s CPU  26808.25s WALL ( 5128962 calls)
     interpolate  :      9.37s CPU      9.47s WALL (     177 calls)
 
     Parallel routines
 
     PWSCF        :   1d10h57m CPU   1d11h20m WALL

 
   This run was terminated on:   2:34:49  16Aug2023            

=------------------------------------------------------------------------------=
   JOB DONE.
=------------------------------------------------------------------------------=
Application 11039970 resources: utime ~4532570s, stime ~47263s, Rss ~3489448, inblocks ~0, outblocks ~55320560
