
     Program PWSCF v.7.3 starts on 15Mar2024 at  8:38:58 

     This program is part of the open-source Quantum ESPRESSO suite
     for quantum simulation of materials; please cite
         "P. Giannozzi et al., J. Phys.:Condens. Matter 21 395502 (2009);
         "P. Giannozzi et al., J. Phys.:Condens. Matter 29 465901 (2017);
         "P. Giannozzi et al., J. Chem. Phys. 152 154105 (2020);
          URL http://www.quantum-espresso.org", 
     in publications or presentations arising from this work. More details at
     http://www.quantum-espresso.org/quote

     Parallel version (MPI & OpenMP), running on      36 processor cores
     Number of MPI processes:                36
     Threads/MPI process:                     1

     MPI processes distributed on     1 nodes
     548536 MiB available memory on the printing compute node when the environment starts
 
     Waiting for input...
     Reading input from standard input
Warning: card &CELL ignored
Warning: card / ignored

     Current dimensions of program PWSCF are:
     Max number of different atomic species (ntypx) = 10
     Max number of k-points (npk) =  40000
     Max angular momentum in pseudopotentials (lmaxx) =  4
     file Mo.pbe-spn-kjpaw_psl.1.0.0.UPF: wavefunction(s)  4S 4D renormalized
     file S.pbe-n-kjpaw_psl.1.0.0.UPF: wavefunction(s)  3S 3P renormalized
     file Pd.pbe-spn-kjpaw_psl.1.0.0.UPF: wavefunction(s)  4S 5S 4D renormalized
     file Pt.pbe-spfn-kjpaw_psl.1.0.0.UPF: wavefunction(s)  5P 4F renormalized
 
     R & G space division:  proc/nbgrp/npool/nimage =      36
     Subspace diagonalization in iterative solution of the eigenvalue problem:
     one sub-group per band group will be used
     scalapack distributed-memory algorithm (size of sub-group:  6*  6 procs)

 
     Parallelization info
     --------------------
     sticks:   dense  smooth     PW     G-vecs:    dense   smooth      PW
     Min         585     334     89               198743    85850   11735
     Max         586     335     90               198750    85861   11748
     Sum       21073   12049   3205              7154885  3090769  422587
 
     Using Slab Decomposition
 


     bravais-lattice index     =            0
     lattice parameter (alat)  =      23.8199  a.u.
     unit-cell volume          =   33861.0370 (a.u.)^3
     number of atoms/cell      =          194
     number of atomic types    =            4
     number of electrons       =      1714.00
     number of Kohn-Sham states=         1028
     kinetic-energy cutoff     =      77.0000  Ry
     charge density cutoff     =     539.0000  Ry
     scf convergence threshold =      1.0E-06
     mixing beta               =       0.2000
     number of iterations used =            8  plain     mixing
     energy convergence thresh.=      1.0E-04
     force convergence thresh. =      1.0E-03
     Exchange-correlation= SLA  PW   PBX  PBC
                           (   1   4   3   4   0   0   0)
     nstep                     =         1000


     Effective Screening Medium Method
     =================================
     Boundary Conditions: Vacuum-Slab-Vacuum
     total charge in unit cell        =   0.0000
     grid points for fit at edges     =        4 
 

     celldm(1)=  23.819920  celldm(2)=   0.000000  celldm(3)=   0.000000
     celldm(4)=   0.000000  celldm(5)=   0.000000  celldm(6)=   0.000000

     crystal axes: (cart. coord. in units of alat)
               a(1) = (   1.000000   0.000000   0.000000 )  
               a(2) = (  -0.499999   0.866026   0.000000 )  
               a(3) = (   0.000000   0.000000   2.893000 )  

     reciprocal axes: (cart. coord. in units 2 pi/alat)
               b(1) = (  1.000000  0.577349  0.000000 )  
               b(2) = (  0.000000  1.154700  0.000000 )  
               b(3) = (  0.000000  0.000000  0.345662 )  


     PseudoPot. # 1 for Mo read from file:
     ./pseudo/Mo.pbe-spn-kjpaw_psl.1.0.0.UPF
     MD5 check sum: 317bf72632116215fd98f72de1686f13
     Pseudo is Projector augmented-wave + core cor, Zval = 14.0
     Generated using 'atomic' code by A. Dal Corso  v.7.2
     Shape of augmentation charge: PSQ
     Using radial grid of 1229 points,  6 beta functions with: 
                l(1) =   0
                l(2) =   0
                l(3) =   1
                l(4) =   1
                l(5) =   2
                l(6) =   2
     Q(r) pseudized with 0 coefficients 


     PseudoPot. # 2 for S  read from file:
     ./pseudo/S.pbe-n-kjpaw_psl.1.0.0.UPF
     MD5 check sum: 8b7b5302570d38d5e87fed6a1065abda
     Pseudo is Projector augmented-wave + core cor, Zval =  6.0
     Generated using 'atomic' code by A. Dal Corso  v.7.2
     Shape of augmentation charge: PSQ
     Using radial grid of 1151 points,  6 beta functions with: 
                l(1) =   0
                l(2) =   0
                l(3) =   1
                l(4) =   1
                l(5) =   2
                l(6) =   2
     Q(r) pseudized with 0 coefficients 


     PseudoPot. # 3 for Pd read from file:
     ./pseudo/Pd.pbe-spn-kjpaw_psl.1.0.0.UPF
     MD5 check sum: a60571a671f2502b8a6a4569d20a6edb
     Pseudo is Projector augmented-wave + core cor, Zval = 18.0
     Generated using 'atomic' code by A. Dal Corso  v.7.2
     Shape of augmentation charge: PSQ
     Using radial grid of 1235 points,  6 beta functions with: 
                l(1) =   0
                l(2) =   0
                l(3) =   1
                l(4) =   1
                l(5) =   2
                l(6) =   2
     Q(r) pseudized with 0 coefficients 


     PseudoPot. # 4 for Pt read from file:
     ./pseudo/Pt.pbe-spfn-kjpaw_psl.1.0.0.UPF
     MD5 check sum: 620096ebf4e6ebacc94de60fd67efcb5
     Pseudo is Projector augmented-wave + core cor, Zval = 32.0
     Generated using 'atomic' code by A. Dal Corso  v.7.2
     Shape of augmentation charge: PSQ
     Using radial grid of 1277 points,  8 beta functions with: 
                l(1) =   0
                l(2) =   0
                l(3) =   1
                l(4) =   1
                l(5) =   2
                l(6) =   2
                l(7) =   3
                l(8) =   3
     Q(r) pseudized with 0 coefficients 


     atomic species   valence    mass     pseudopotential
     Mo               14.00    95.95000     Mo( 1.00)
     S                 6.00    32.06000     S ( 1.00)
     Pd               18.00   106.42000     Pd( 1.00)
     Pt               32.00   195.08400     Pt( 1.00)

     No symmetry found



   Cartesian axes

     site n.     atom                  positions (alat units)
         1        Mo     tau(   1) = (   0.0000010   0.1443372  -0.7272732  )
         2        Mo     tau(   2) = (   0.1249995   0.0721706  -0.2424038  )
         3        S      tau(   3) = (   0.0000015   0.1443386  -0.3667807  )
         4        S      tau(   4) = (   0.1250010   0.0721682  -0.6030489  )
         5        S      tau(   5) = (   0.1250010   0.0721683  -0.8514963  )
         6        S      tau(   6) = (   0.0000015   0.1443389  -0.1180260  )
         7        Mo     tau(   7) = (   0.0000007   0.1443589   0.2424205  )
         8        Mo     tau(   8) = (   0.1250041   0.0720322   0.7266168  )
         9        S      tau(   9) = (   0.0000742   0.1444871   0.6020949  )
        10        S      tau(  10) = (   0.1250024   0.0721701   0.3667478  )
        11        S      tau(  11) = (   0.1250035   0.0721876   0.1180348  )
        12        S      tau(  12) = (  -0.0004118   0.1430864   0.8514340  )
        13        Mo     tau(  13) = (  -0.1249989   0.3608437  -0.7272732  )
        14        Mo     tau(  14) = (   0.0000030   0.2886752  -0.2424042  )
        15        S      tau(  15) = (  -0.1249977   0.3608450  -0.3667802  )
        16        S      tau(  16) = (   0.0000012   0.2886747  -0.6030489  )
        17        S      tau(  17) = (   0.0000012   0.2886748  -0.8514963  )
        18        S      tau(  18) = (  -0.1249977   0.3608454  -0.1180274  )
        19        Mo     tau(  19) = (  -0.1249729   0.3608584   0.2424608  )
        20        Mo     tau(  20) = (  -0.0007193   0.2876626   0.7275440  )
        21        S      tau(  21) = (  -0.1251115   0.3607789   0.6027257  )
        22        S      tau(  22) = (   0.0000621   0.2887099   0.3668377  )
        23        S      tau(  23) = (  -0.0000096   0.2886902   0.1180527  )
        24        S      tau(  24) = (  -0.1254673   0.3605734   0.8517408  )
        25        Mo     tau(  25) = (  -0.2499987   0.5773502  -0.7272732  )
        26        Mo     tau(  26) = (  -0.1249977   0.5051839  -0.2424055  )
        27        S      tau(  27) = (  -0.2499981   0.5773518  -0.3667809  )
        28        S      tau(  28) = (  -0.1249986   0.5051812  -0.6030489  )
        29        S      tau(  29) = (  -0.1249986   0.5051813  -0.8514963  )
        30        S      tau(  30) = (  -0.2499979   0.5773512  -0.1180266  )
        31        Mo     tau(  31) = (  -0.2499795   0.5773389   0.2424205  )
        32        Mo     tau(  32) = (  -0.1262356   0.5050639   0.7275441  )
        33        S      tau(  33) = (  -0.2498323   0.5773390   0.6020948  )
        34        S      tau(  34) = (  -0.1249376   0.5052159   0.3668377  )
        35        S      tau(  35) = (  -0.1249905   0.5051638   0.1180531  )
        36        S      tau(  36) = (  -0.2512883   0.5776183   0.8514340  )
        37        Mo     tau(  37) = (  -0.3749985   0.7938567  -0.7272732  )
        38        Mo     tau(  38) = (  -0.2500001   0.7216874  -0.2424031  )
        39        S      tau(  39) = (  -0.3749980   0.7938584  -0.3667800  )
        40        S      tau(  40) = (  -0.2499984   0.7216877  -0.6030489  )
        41        S      tau(  41) = (  -0.2499984   0.7216878  -0.8514963  )
        42        S      tau(  42) = (  -0.3749982   0.7938585  -0.1180264  )
        43        Mo     tau(  43) = (  -0.3749962   0.7938568   0.2423838  )
        44        Mo     tau(  44) = (  -0.2501148   0.7217588   0.7266170  )
        45        S      tau(  45) = (  -0.3749945   0.7938590   0.6021274  )
        46        S      tau(  46) = (  -0.2499958   0.7216877   0.3667488  )
        47        S      tau(  47) = (  -0.2499810   0.7216794   0.1180323  )
        48        S      tau(  48) = (  -0.3749953   0.7938585   0.8511588  )
        49        Mo     tau(  49) = (   0.2500010   0.1443372  -0.7272732  )
        50        Mo     tau(  50) = (   0.3750034   0.0721723  -0.2424032  )
        51        S      tau(  51) = (   0.2500017   0.1443391  -0.3667788  )
        52        S      tau(  52) = (   0.3750010   0.0721682  -0.6030489  )
        53        S      tau(  53) = (   0.3750010   0.0721683  -0.8514963  )
        54        S      tau(  54) = (   0.2500016   0.1443391  -0.1180271  )
        55        Mo     tau(  55) = (   0.2500054   0.1443594   0.2424211  )
        56        Mo     tau(  56) = (   0.3749279   0.0721263   0.7263991  )
        57        S      tau(  57) = (   0.2499344   0.1444864   0.6020948  )
        58        S      tau(  58) = (   0.3750316   0.0721860   0.3667597  )
        59        S      tau(  59) = (   0.3749924   0.0721644   0.1180346  )
        60        S      tau(  60) = (   0.2504199   0.1430865   0.8514340  )
        61        Mo     tau(  61) = (   0.1250012   0.3608437  -0.7272732  )
        62        Mo     tau(  62) = (   0.2500029   0.2886782  -0.2424031  )
        63        S      tau(  63) = (   0.1250024   0.3608455  -0.3667794  )
        64        S      tau(  64) = (   0.2500012   0.2886747  -0.6030489  )
        65        S      tau(  65) = (   0.2500012   0.2886748  -0.8514963  )
        66        S      tau(  66) = (   0.1250021   0.3608455  -0.1180270  )
        67        Mo     tau(  67) = (   0.1250038   0.3608653   0.2423963  )
        68        Mo     tau(  68) = (   0.2507284   0.2876625   0.7275438  )
        69        S      tau(  69) = (   0.1250046   0.3627170   0.6061948  )
        70        S      tau(  70) = (   0.2499461   0.2887116   0.3668373  )
        71        S      tau(  71) = (   0.2500171   0.2886900   0.1180543  )
        72        S      tau(  72) = (   0.1250046   0.3519103   0.8557806  )
        73        Mo     tau(  73) = (   0.0000014   0.5773502  -0.7272732  )
        74        Mo     tau(  74) = (   0.1250045   0.5051840  -0.2424036  )
        75        S      tau(  75) = (   0.0000030   0.5773520  -0.3667799  )
        76        S      tau(  76) = (   0.1250014   0.5051812  -0.6030489  )
        77        S      tau(  77) = (   0.1250014   0.5051813  -0.8514963  )
        78        S      tau(  78) = (   0.0000026   0.5773517  -0.1180274  )
        79        Mo     tau(  79) = (   0.0000222   0.5773400   0.2423964  )
        80        Mo     tau(  80) = (   0.1250047   0.5051836   0.7321380  )
        81        S      tau(  81) = (   0.0016251   0.5764170   0.6061946  )
        82        S      tau(  82) = (   0.1250047   0.5051815   0.3667777  )
        83        S      tau(  83) = (   0.1250048   0.5051819   0.1179962  )
        84        S      tau(  84) = (  -0.0077335   0.5818202   0.8557807  )
        85        Mo     tau(  85) = (  -0.1249984   0.7938567  -0.7272732  )
        86        Mo     tau(  86) = (   0.0000069   0.7216896  -0.2424039  )
        87        S      tau(  87) = (  -0.1249975   0.7938582  -0.3667782  )
        88        S      tau(  88) = (   0.0000016   0.7216877  -0.6030489  )
        89        S      tau(  89) = (   0.0000016   0.7216878  -0.8514963  )
        90        S      tau(  90) = (  -0.1249973   0.7938582  -0.1180279  )
        91        Mo     tau(  91) = (  -0.1249774   0.7938494   0.2424207  )
        92        Mo     tau(  92) = (  -0.0005116   0.7228241   0.7275438  )
        93        S      tau(  93) = (  -0.1249026   0.7937246   0.6020948  )
        94        S      tau(  94) = (   0.0000043   0.7216209   0.3668361  )
        95        S      tau(  95) = (   0.0000226   0.7216928   0.1180549  )
        96        S      tau(  96) = (  -0.1258721   0.7948451   0.8514341  )
        97        Mo     tau(  97) = (   0.5000010   0.1443372  -0.7272732  )
        98        Mo     tau(  98) = (   0.6250001   0.0721662  -0.2424040  )
        99        S      tau(  99) = (   0.5000017   0.1443386  -0.3667801  )
       100        S      tau( 100) = (   0.6250010   0.0721682  -0.6030489  )
       101        S      tau( 101) = (   0.6250010   0.0721683  -0.8514963  )
       102        S      tau( 102) = (   0.5000020   0.1443388  -0.1180261  )
       103        Mo     tau( 103) = (   0.5000075   0.1443411   0.2423793  )
       104        Mo     tau( 104) = (   0.6250042   0.0723339   0.7270464  )
       105        S      tau( 105) = (   0.5002366   0.1444733   0.6023595  )
       106        S      tau( 106) = (   0.6250029   0.0721787   0.3667562  )
       107        S      tau( 107) = (   0.6250040   0.0721260   0.1180315  )
       108        S      tau( 108) = (   0.4998752   0.1442648   0.8512770  )
       109        Mo     tau( 109) = (   0.3750012   0.3608437  -0.7272732  )
       110        Mo     tau( 110) = (   0.4999991   0.2886761  -0.2424038  )
       111        S      tau( 111) = (   0.3750012   0.3608452  -0.3667804  )
       112        S      tau( 112) = (   0.5000012   0.2886747  -0.6030489  )
       113        S      tau( 113) = (   0.5000012   0.2886748  -0.8514963  )
       114        S      tau( 114) = (   0.3750014   0.3608455  -0.1180261  )
       115        Mo     tau( 115) = (   0.3749795   0.3608597   0.2424601  )
       116        Mo     tau( 116) = (   0.5001461   0.2885951   0.7270464  )
       117        S      tau( 117) = (   0.3751205   0.3607791   0.6027254  )
       118        S      tau( 118) = (   0.5000105   0.2886721   0.3667569  )
       119        S      tau( 119) = (   0.4999655   0.2886989   0.1180297  )
       120        S      tau( 120) = (   0.3754765   0.3605739   0.8517402  )
       121        Mo     tau( 121) = (   0.2500014   0.5773502  -0.7272732  )
       122        Mo     tau( 122) = (   0.3749983   0.5051825  -0.2424043  )
       123        S      tau( 123) = (   0.2500017   0.5773519  -0.3667810  )
       124        S      tau( 124) = (   0.3750014   0.5051812  -0.6030489  )
       125        S      tau( 125) = (   0.3750014   0.5051813  -0.8514963  )
       126        S      tau( 126) = (   0.2500018   0.5773519  -0.1180256  )
       127        Mo     tau( 127) = (   0.2499863   0.5773402   0.2423965  )
       128        Mo     tau( 128) = (   0.3762454   0.5050642   0.7275433  )
       129        S      tau( 129) = (   0.2483844   0.5764169   0.6061944  )
       130        S      tau( 130) = (   0.3749442   0.5052158   0.3668400  )
       131        S      tau( 131) = (   0.3749972   0.5051650   0.1180510  )
       132        S      tau( 132) = (   0.2577438   0.5818204   0.8557797  )
       133        Mo     tau( 133) = (   0.1250016   0.7938567  -0.7272732  )
       134        Mo     tau( 134) = (   0.2499995   0.7216883  -0.2424036  )
       135        S      tau( 135) = (   0.1250024   0.7938578  -0.3667813  )
       136        S      tau( 136) = (   0.2500016   0.7216877  -0.6030489  )
       137        S      tau( 137) = (   0.2500016   0.7216878  -0.8514963  )
       138        S      tau( 138) = (   0.1250024   0.7938579  -0.1180253  )
       139        Mo     tau( 139) = (   0.1250047   0.7938294   0.2424606  )
       140        Mo     tau( 140) = (   0.2505220   0.7228241   0.7275433  )
       141        S      tau( 141) = (   0.1250053   0.7939926   0.6027252  )
       142        S      tau( 142) = (   0.2500048   0.7216200   0.3668387  )
       143        S      tau( 143) = (   0.2499864   0.7216915   0.1180524  )
       144        S      tau( 144) = (   0.1250054   0.7944033   0.8517402  )
       145        Mo     tau( 145) = (   0.7500010   0.1443372  -0.7272732  )
       146        Mo     tau( 146) = (   0.8750038   0.0721696  -0.2424038  )
       147        S      tau( 147) = (   0.7500016   0.1443382  -0.3667789  )
       148        S      tau( 148) = (   0.8750010   0.0721682  -0.6030489  )
       149        S      tau( 149) = (   0.8750010   0.0721683  -0.8514963  )
       150        S      tau( 150) = (   0.7500016   0.1443384  -0.1180279  )
       151        Mo     tau( 151) = (   0.7499986   0.1443409   0.2423802  )
       152        Mo     tau( 152) = (   0.8750804   0.0721266   0.7263988  )
       153        S      tau( 153) = (   0.7497713   0.1444738   0.6023592  )
       154        S      tau( 154) = (   0.8749758   0.0721848   0.3667595  )
       155        S      tau( 155) = (   0.8750127   0.0721632   0.1180342  )
       156        S      tau( 156) = (   0.7501331   0.1442647   0.8512770  )
       157        Mo     tau( 157) = (   0.6250012   0.3608437  -0.7272732  )
       158        Mo     tau( 158) = (   0.7500028   0.2886769  -0.2424041  )
       159        S      tau( 159) = (   0.6250015   0.3608451  -0.3667792  )
       160        S      tau( 160) = (   0.7500012   0.2886747  -0.6030489  )
       161        S      tau( 161) = (   0.7500012   0.2886748  -0.8514963  )
       162        S      tau( 162) = (   0.6250016   0.3608454  -0.1180280  )
       163        Mo     tau( 163) = (   0.6250032   0.3608391   0.2423797  )
       164        Mo     tau( 164) = (   0.7498627   0.2885951   0.7270467  )
       165        S      tau( 165) = (   0.6250046   0.3605769   0.6023590  )
       166        S      tau( 166) = (   0.7499943   0.2886711   0.3667569  )
       167        S      tau( 167) = (   0.7500399   0.2886970   0.1180318  )
       168        S      tau( 168) = (   0.6250043   0.3609947   0.8512770  )
       169        Mo     tau( 169) = (   0.5000014   0.5773502  -0.7272732  )
       170        Mo     tau( 170) = (   0.6250029   0.5051841  -0.2424047  )
       171        S      tau( 171) = (   0.5000014   0.5773518  -0.3667794  )
       172        S      tau( 172) = (   0.6250014   0.5051812  -0.6030489  )
       173        S      tau( 173) = (   0.6250014   0.5051813  -0.8514963  )
       174        S      tau( 174) = (   0.5000016   0.5773516  -0.1180277  )
       175        Mo     tau( 175) = (   0.4999855   0.5773383   0.2424207  )
       176        Mo     tau( 176) = (   0.6250049   0.5052713   0.7263986  )
       177        S      tau( 177) = (   0.4998428   0.5773389   0.6020941  )
       178        S      tau( 178) = (   0.6250030   0.5051500   0.3667588  )
       179        S      tau( 179) = (   0.6250025   0.5051935   0.1180351  )
       180        S      tau( 180) = (   0.5012979   0.5776190   0.8514332  )
       181        Mo     tau( 181) = (   0.3750016   0.7938567  -0.7272732  )
       182        Mo     tau( 182) = (   0.5000025   0.7216901  -0.2424039  )
       183        S      tau( 183) = (   0.3750019   0.7938578  -0.3667793  )
       184        S      tau( 184) = (   0.5000016   0.7216877  -0.6030489  )
       185        S      tau( 185) = (   0.5000016   0.7216878  -0.8514963  )
       186        S      tau( 186) = (   0.3750020   0.7938579  -0.1180272  )
       187        Mo     tau( 187) = (   0.3749848   0.7938487   0.2424206  )
       188        Mo     tau( 188) = (   0.5001249   0.7217591   0.7266160  )
       189        S      tau( 189) = (   0.3749125   0.7937251   0.6020942  )
       190        S      tau( 190) = (   0.5000021   0.7216868   0.3667472  )
       191        S      tau( 191) = (   0.4999874   0.7216780   0.1180346  )
       192        S      tau( 192) = (   0.3758826   0.7948451   0.8514332  )
       193        Pd     tau( 193) = (   0.1250063   0.5051842   0.9601361  )
       194        Pt     tau( 194) = (  -0.0007140   0.2876646   0.9707291  )

     --------------------------------------------
     DFT-D3 Dispersion Correction (3-body terms):
     --------------------------------------------
       Reference C6 values for interpolation: 

         atom   Coordination number   C6
         S          0.000           268.01
         S          0.995           261.99
         S          1.990           251.62
         Mo         0.000          1691.79
         Mo         1.942          1004.01
         Mo        11.056           674.22
         Pd         0.000          1217.01
         Pd         1.863           573.90
         Pd         5.710           531.75
         Pt         0.000           782.29
         Pt         1.919           692.72
         Pt         6.667           673.75

       Values used:

         atom   Coordination number  R0_AB[au]  C6      C8
         Mo        10.208            3.547    674.22  77634.20
         Mo        10.221            3.547    674.22  77634.20
         S          3.858            3.128    251.62  12327.25
         S          3.859            3.128    251.62  12327.25
         S          3.758            3.128    251.62  12327.25
         S          3.859            3.128    251.62  12327.25
         Mo        10.220            3.547    674.22  77634.20
         Mo        10.244            3.547    674.22  77634.20
         S          3.848            3.128    251.62  12327.25
         S          3.861            3.128    251.62  12327.25
         S          3.859            3.128    251.62  12327.25
         S          4.770            3.128    251.62  12327.25
         Mo        10.208            3.547    674.22  77634.20
         Mo        10.221            3.547    674.22  77634.20
         S          3.858            3.128    251.62  12327.25
         S          3.859            3.128    251.62  12327.25
         S          3.758            3.128    251.62  12327.25
         S          3.859            3.128    251.62  12327.25
         Mo        10.221            3.547    674.22  77634.20
         Mo        10.795            3.547    674.22  77634.20
         S          3.856            3.128    251.62  12327.25
         S          3.856            3.128    251.62  12327.25
         S          3.859            3.128    251.62  12327.25
         S          4.722            3.128    251.62  12327.25
         Mo        10.208            3.547    674.22  77634.20
         Mo        10.221            3.547    674.22  77634.20
         S          3.858            3.128    251.62  12327.25
         S          3.859            3.128    251.62  12327.25
         S          3.758            3.128    251.62  12327.25
         S          3.859            3.128    251.62  12327.25
         Mo        10.220            3.547    674.22  77634.20
         Mo        10.201            3.547    674.22  77634.20
         S          3.847            3.128    251.62  12327.25
         S          3.856            3.128    251.62  12327.25
         S          3.859            3.128    251.62  12327.25
         S          3.806            3.128    251.62  12327.25
         Mo        10.208            3.547    674.22  77634.20
         Mo        10.221            3.547    674.22  77634.20
         S          3.858            3.128    251.62  12327.25
         S          3.859            3.128    251.62  12327.25
         S          3.758            3.128    251.62  12327.25
         S          3.859            3.128    251.62  12327.25
         Mo        10.219            3.547    674.22  77634.20
         Mo        10.234            3.547    674.22  77634.20
         S          3.856            3.128    251.62  12327.25
         S          3.861            3.128    251.62  12327.25
         S          3.859            3.128    251.62  12327.25
         S          3.782            3.128    251.62  12327.25
         Mo        10.208            3.547    674.22  77634.20
         Mo        10.221            3.547    674.22  77634.20
         S          3.858            3.128    251.62  12327.25
         S          3.859            3.128    251.62  12327.25
         S          3.758            3.128    251.62  12327.25
         S          3.859            3.128    251.62  12327.25
         Mo        10.220            3.547    674.22  77634.20
         Mo        10.244            3.547    674.22  77634.20
         S          3.847            3.128    251.62  12327.25
         S          3.860            3.128    251.62  12327.25
         S          3.859            3.128    251.62  12327.25
         S          3.816            3.128    251.62  12327.25
         Mo        10.208            3.547    674.22  77634.20
         Mo        10.221            3.547    674.22  77634.20
         S          3.858            3.128    251.62  12327.25
         S          3.859            3.128    251.62  12327.25
         S          3.758            3.128    251.62  12327.25
         S          3.859            3.128    251.62  12327.25
         Mo        10.222            3.547    674.22  77634.20
         Mo        10.201            3.547    674.22  77634.20
         S          3.866            3.128    251.62  12327.25
         S          3.856            3.128    251.62  12327.25
         S          3.859            3.128    251.62  12327.25
         S          5.633            3.128    251.62  12327.25
         Mo        10.208            3.547    674.22  77634.20
         Mo        10.221            3.547    674.22  77634.20
         S          3.858            3.128    251.62  12327.25
         S          3.859            3.128    251.62  12327.25
         S          3.758            3.128    251.62  12327.25
         S          3.859            3.128    251.62  12327.25
         Mo        10.222            3.547    674.22  77634.20
         Mo        10.832            3.547    674.22  77634.20
         S          3.865            3.128    251.62  12327.25
         S          3.853            3.128    251.62  12327.25
         S          3.859            3.128    251.62  12327.25
         S          4.663            3.128    251.62  12327.25
         Mo        10.208            3.547    674.22  77634.20
         Mo        10.221            3.547    674.22  77634.20
         S          3.858            3.128    251.62  12327.25
         S          3.859            3.128    251.62  12327.25
         S          3.758            3.128    251.62  12327.25
         S          3.859            3.128    251.62  12327.25
         Mo        10.220            3.547    674.22  77634.20
         Mo        10.191            3.547    674.22  77634.20
         S          3.847            3.128    251.62  12327.25
         S          3.856            3.128    251.62  12327.25
         S          3.859            3.128    251.62  12327.25
         S          3.805            3.128    251.62  12327.25
         Mo        10.208            3.547    674.22  77634.20
         Mo        10.221            3.547    674.22  77634.20
         S          3.858            3.128    251.62  12327.25
         S          3.859            3.128    251.62  12327.25
         S          3.758            3.128    251.62  12327.25
         S          3.859            3.128    251.62  12327.25
         Mo        10.220            3.547    674.22  77634.20
         Mo        10.230            3.547    674.22  77634.20
         S          3.862            3.128    251.62  12327.25
         S          3.860            3.128    251.62  12327.25
         S          3.859            3.128    251.62  12327.25
         S          3.765            3.128    251.62  12327.25
         Mo        10.208            3.547    674.22  77634.20
         Mo        10.221            3.547    674.22  77634.20
         S          3.858            3.128    251.62  12327.25
         S          3.859            3.128    251.62  12327.25
         S          3.758            3.128    251.62  12327.25
         S          3.859            3.128    251.62  12327.25
         Mo        10.221            3.547    674.22  77634.20
         Mo        10.230            3.547    674.22  77634.20
         S          3.855            3.128    251.62  12327.25
         S          3.860            3.128    251.62  12327.25
         S          3.859            3.128    251.62  12327.25
         S          3.757            3.128    251.62  12327.25
         Mo        10.208            3.547    674.22  77634.20
         Mo        10.221            3.547    674.22  77634.20
         S          3.858            3.128    251.62  12327.25
         S          3.859            3.128    251.62  12327.25
         S          3.758            3.128    251.62  12327.25
         S          3.859            3.128    251.62  12327.25
         Mo        10.222            3.547    674.22  77634.20
         Mo        10.191            3.547    674.22  77634.20
         S          3.865            3.128    251.62  12327.25
         S          3.856            3.128    251.62  12327.25
         S          3.859            3.128    251.62  12327.25
         S          4.653            3.128    251.62  12327.25
         Mo        10.208            3.547    674.22  77634.20
         Mo        10.221            3.547    674.22  77634.20
         S          3.858            3.128    251.62  12327.25
         S          3.859            3.128    251.62  12327.25
         S          3.758            3.128    251.62  12327.25
         S          3.859            3.128    251.62  12327.25
         Mo        10.221            3.547    674.22  77634.20
         Mo        10.191            3.547    674.22  77634.20
         S          3.855            3.128    251.62  12327.25
         S          3.856            3.128    251.62  12327.25
         S          3.859            3.128    251.62  12327.25
         S          3.756            3.128    251.62  12327.25
         Mo        10.208            3.547    674.22  77634.20
         Mo        10.221            3.547    674.22  77634.20
         S          3.858            3.128    251.62  12327.25
         S          3.859            3.128    251.62  12327.25
         S          3.758            3.128    251.62  12327.25
         S          3.859            3.128    251.62  12327.25
         Mo        10.220            3.547    674.22  77634.20
         Mo        10.254            3.547    674.22  77634.20
         S          3.862            3.128    251.62  12327.25
         S          3.860            3.128    251.62  12327.25
         S          3.859            3.128    251.62  12327.25
         S          3.778            3.128    251.62  12327.25
         Mo        10.208            3.547    674.22  77634.20
         Mo        10.220            3.547    674.22  77634.20
         S          3.858            3.128    251.62  12327.25
         S          3.859            3.128    251.62  12327.25
         S          3.758            3.128    251.62  12327.25
         S          3.859            3.128    251.62  12327.25
         Mo        10.220            3.547    674.22  77634.20
         Mo        10.240            3.547    674.22  77634.20
         S          3.862            3.128    251.62  12327.25
         S          3.860            3.128    251.62  12327.25
         S          3.859            3.128    251.62  12327.25
         S          3.766            3.128    251.62  12327.25
         Mo        10.208            3.547    674.22  77634.20
         Mo        10.221            3.547    674.22  77634.20
         S          3.858            3.128    251.62  12327.25
         S          3.859            3.128    251.62  12327.25
         S          3.758            3.128    251.62  12327.25
         S          3.859            3.128    251.62  12327.25
         Mo        10.220            3.547    674.22  77634.20
         Mo        10.244            3.547    674.22  77634.20
         S          3.847            3.128    251.62  12327.25
         S          3.860            3.128    251.62  12327.25
         S          3.859            3.128    251.62  12327.25
         S          3.805            3.128    251.62  12327.25
         Mo        10.208            3.547    674.22  77634.20
         Mo        10.221            3.547    674.22  77634.20
         S          3.858            3.128    251.62  12327.25
         S          3.859            3.128    251.62  12327.25
         S          3.758            3.128    251.62  12327.25
         S          3.859            3.128    251.62  12327.25
         Mo        10.220            3.547    674.22  77634.20
         Mo        10.234            3.547    674.22  77634.20
         S          3.847            3.128    251.62  12327.25
         S          3.861            3.128    251.62  12327.25
         S          3.859            3.128    251.62  12327.25
         S          3.806            3.128    251.62  12327.25
         Pd         3.999            3.168    531.81  48726.00
         Pt         3.865            3.168    692.72  72035.25

         Molecular C6 ( Ry / a.u.^6 ) =  13979851.91


     number of k points=     4  Gaussian smearing, width (Ry)=  0.0100
                       cart. coord. in units 2pi/alat
        k(    1) = (   0.0000000   0.0000000   0.0000000), wk =   0.5000000
        k(    2) = (   0.0000000  -0.5773499   0.0000000), wk =   0.5000000
        k(    3) = (  -0.5000000  -0.2886744   0.0000000), wk =   0.5000000
        k(    4) = (  -0.5000000  -0.8660242   0.0000000), wk =   0.5000000

     Dense  grid:  7154885 G-vectors     FFT dimensions: ( 180, 180, 512)

     Smooth grid:  3090769 G-vectors     FFT dimensions: ( 135, 135, 400)

     Estimated max dynamical RAM per process >       4.31 GB

     Estimated total dynamical RAM >     155.10 GB

     Initial potential from superposition of free atoms

     starting charge    1713.9389, renormalised to    1714.0000

     negative rho (up, down):  8.906E-04 0.000E+00
     Starting wfcs are 1179 randomized atomic wfcs
     Checking if some PAW data can be deallocated... 

     total cpu time spent up to now is      176.9 secs

     Self-consistent Calculation

     iteration #  1     ecut=    77.00 Ry     beta= 0.20
     Davidson diagonalization with overlap
     ethr =  1.00E-02,  avg # of iterations =  2.0

     Threshold (ethr) on eigenvalues was too large:
     Diagonalizing with lowered threshold

     Davidson diagonalization with overlap
     ethr =  1.62E-04,  avg # of iterations = 15.5

     negative rho (up, down):  2.400E-04 0.000E+00

     total cpu time spent up to now is     2210.1 secs

     total energy              =  -33980.24643290 Ry
     estimated scf accuracy    <       6.51981714 Ry

     iteration #  2     ecut=    77.00 Ry     beta= 0.20
     Davidson diagonalization with overlap
     ethr =  3.80E-04,  avg # of iterations =  1.8

     negative rho (up, down):  2.517E-05 0.000E+00

     total cpu time spent up to now is     2603.3 secs

     total energy              =  -33978.90273927 Ry
     estimated scf accuracy    <       3.41086177 Ry

     iteration #  3     ecut=    77.00 Ry     beta= 0.20
     Davidson diagonalization with overlap
     ethr =  1.99E-04,  avg # of iterations = 14.8

     negative rho (up, down):  1.643E-05 0.000E+00

     total cpu time spent up to now is     3145.1 secs

     total energy              =  -33979.30333799 Ry
     estimated scf accuracy    <       0.87756112 Ry

     iteration #  4     ecut=    77.00 Ry     beta= 0.20
     Davidson diagonalization with overlap
     c_bands:  5 eigenvalues not converged
     ethr =  5.12E-05,  avg # of iterations = 18.5

     negative rho (up, down):  1.872E-05 0.000E+00

     total cpu time spent up to now is     4316.6 secs

     total energy              =  -33980.07939520 Ry
     estimated scf accuracy    <       0.35667035 Ry

     iteration #  5     ecut=    77.00 Ry     beta= 0.20
     Davidson diagonalization with overlap
     ethr =  2.08E-05,  avg # of iterations = 13.5

     negative rho (up, down):  4.963E-05 0.000E+00

     total cpu time spent up to now is     5027.0 secs

     total energy              =  -33980.19484010 Ry
     estimated scf accuracy    <       0.20506719 Ry

     iteration #  6     ecut=    77.00 Ry     beta= 0.20
     Davidson diagonalization with overlap
     ethr =  1.20E-05,  avg # of iterations = 12.2

     negative rho (up, down):  1.882E-04 0.000E+00

     total cpu time spent up to now is     5513.7 secs

     total energy              =  -33980.18519912 Ry
     estimated scf accuracy    <       0.12078652 Ry

     iteration #  7     ecut=    77.00 Ry     beta= 0.20
     Davidson diagonalization with overlap
     c_bands:  3 eigenvalues not converged
     c_bands:  3 eigenvalues not converged
     ethr =  7.05E-06,  avg # of iterations = 18.2

     negative rho (up, down):  6.218E-04 0.000E+00

     total cpu time spent up to now is     6267.6 secs

     total energy              =  -33980.24756384 Ry
     estimated scf accuracy    <       0.05807579 Ry

     iteration #  8     ecut=    77.00 Ry     beta= 0.20
     Davidson diagonalization with overlap
     c_bands:  4 eigenvalues not converged
     c_bands:  4 eigenvalues not converged
     c_bands:  3 eigenvalues not converged
     c_bands:  4 eigenvalues not converged
     ethr =  3.39E-06,  avg # of iterations = 35.0

     negative rho (up, down):  4.748E-04 0.000E+00

     total cpu time spent up to now is     7407.2 secs

     total energy              =  -33980.25169117 Ry
     estimated scf accuracy    <       0.04377957 Ry

     iteration #  9     ecut=    77.00 Ry     beta= 0.20
     Davidson diagonalization with overlap
     c_bands:  2 eigenvalues not converged
     c_bands:  5 eigenvalues not converged
     c_bands:  2 eigenvalues not converged
     ethr =  2.55E-06,  avg # of iterations = 52.5

     negative rho (up, down):  4.547E-04 0.000E+00

     total cpu time spent up to now is     8657.0 secs

     total energy              =  -33980.26478105 Ry
     estimated scf accuracy    <       0.00270254 Ry

     iteration # 10     ecut=    77.00 Ry     beta= 0.20
     Davidson diagonalization with overlap
     c_bands:  4 eigenvalues not converged
     c_bands:  5 eigenvalues not converged
     c_bands:  4 eigenvalues not converged
     c_bands:  4 eigenvalues not converged
     ethr =  1.58E-07,  avg # of iterations = 20.0

     negative rho (up, down):  4.972E-04 0.000E+00

     total cpu time spent up to now is    10807.9 secs

     total energy              =  -33980.27666117 Ry
     estimated scf accuracy    <       0.00670520 Ry

     iteration # 11     ecut=    77.00 Ry     beta= 0.20
     Davidson diagonalization with overlap
     c_bands:  4 eigenvalues not converged
     c_bands:  4 eigenvalues not converged
     ethr =  1.58E-07,  avg # of iterations = 26.0

     negative rho (up, down):  7.761E-04 0.000E+00

     total cpu time spent up to now is    11543.7 secs

     total energy              =  -33980.27451748 Ry
     estimated scf accuracy    <       0.00338224 Ry

     iteration # 12     ecut=    77.00 Ry     beta= 0.20
     Davidson diagonalization with overlap
     ethr =  1.58E-07,  avg # of iterations =  9.2

     negative rho (up, down):  8.022E-04 0.000E+00

     total cpu time spent up to now is    12481.7 secs

     total energy              =  -33980.27654548 Ry
     estimated scf accuracy    <       0.00480812 Ry

     iteration # 13     ecut=    77.00 Ry     beta= 0.20
     Davidson diagonalization with overlap
     ethr =  1.58E-07,  avg # of iterations =  1.2

     negative rho (up, down):  7.922E-04 0.000E+00

     total cpu time spent up to now is    12857.2 secs

     total energy              =  -33980.27590506 Ry
     estimated scf accuracy    <       0.00148422 Ry

     iteration # 14     ecut=    77.00 Ry     beta= 0.20
     Davidson diagonalization with overlap
     ethr =  8.66E-08,  avg # of iterations =  7.5

     negative rho (up, down):  8.043E-04 0.000E+00

     total cpu time spent up to now is    13445.3 secs

     total energy              =  -33980.27650950 Ry
     estimated scf accuracy    <       0.00006871 Ry

     iteration # 15     ecut=    77.00 Ry     beta= 0.20
     Davidson diagonalization with overlap
     c_bands:  2 eigenvalues not converged
     c_bands:  1 eigenvalues not converged
     ethr =  4.01E-09,  avg # of iterations = 26.0

     negative rho (up, down):  8.297E-04 0.000E+00

     total cpu time spent up to now is    16238.8 secs

     total energy              =  -33980.27671454 Ry
     estimated scf accuracy    <       0.00075522 Ry

     iteration # 16     ecut=    77.00 Ry     beta= 0.20
     Davidson diagonalization with overlap
     ethr =  4.01E-09,  avg # of iterations = 14.5

     negative rho (up, down):  8.770E-04 0.000E+00

     total cpu time spent up to now is    17129.8 secs

     total energy              =  -33980.27674160 Ry
     estimated scf accuracy    <       0.00007127 Ry

     iteration # 17     ecut=    77.00 Ry     beta= 0.20
     Davidson diagonalization with overlap
     ethr =  4.01E-09,  avg # of iterations = 15.8

     negative rho (up, down):  8.846E-04 0.000E+00

     total cpu time spent up to now is    18230.1 secs

     total energy              =  -33980.27679519 Ry
     estimated scf accuracy    <       0.00014846 Ry

     iteration # 18     ecut=    77.00 Ry     beta= 0.20
     Davidson diagonalization with overlap
     ethr =  4.01E-09,  avg # of iterations =  1.8

     negative rho (up, down):  8.792E-04 0.000E+00

     total cpu time spent up to now is    18623.1 secs

     total energy              =  -33980.27677366 Ry
     estimated scf accuracy    <       0.00005086 Ry

     iteration # 19     ecut=    77.00 Ry     beta= 0.20
     Davidson diagonalization with overlap
     ethr =  2.97E-09,  avg # of iterations = 13.0

     negative rho (up, down):  8.828E-04 0.000E+00

     total cpu time spent up to now is    19293.4 secs

     total energy              =  -33980.27679285 Ry
     estimated scf accuracy    <       0.00000187 Ry

     iteration # 20     ecut=    77.00 Ry     beta= 0.20
     Davidson diagonalization with overlap
     c_bands:  3 eigenvalues not converged
     ethr =  1.09E-10,  avg # of iterations = 20.0

     negative rho (up, down):  8.851E-04 0.000E+00

     total cpu time spent up to now is    21477.5 secs

     total energy              =  -33980.27679843 Ry
     estimated scf accuracy    <       0.00000961 Ry

     iteration # 21     ecut=    77.00 Ry     beta= 0.20
     Davidson diagonalization with overlap
     ethr =  1.09E-10,  avg # of iterations =  6.0

     negative rho (up, down):  8.873E-04 0.000E+00

     total cpu time spent up to now is    22110.0 secs

     total energy              =  -33980.27679770 Ry
     estimated scf accuracy    <       0.00000163 Ry

     iteration # 22     ecut=    77.00 Ry     beta= 0.20
     Davidson diagonalization with overlap
     ethr =  9.50E-11,  avg # of iterations =  6.5

     negative rho (up, down):  8.920E-04 0.000E+00

     total cpu time spent up to now is    22636.3 secs

     End of self-consistent calculation

          k = 0.0000 0.0000 0.0000 (386245 PWs)   bands (ev):

  -102.4534 -88.8845 -70.7850 -70.7838 -70.7600 -70.7552 -70.7411 -70.7301
   -70.7171 -66.6570 -66.6569 -66.6557 -66.6514 -66.6374 -66.6359 -66.6358
   -66.6357 -66.6357 -66.6357 -66.6357 -66.6356 -66.6356 -66.6356 -66.6355
   -66.6355 -66.6353 -66.6344 -66.6344 -66.6344 -66.6343 -66.6343 -66.6343
   -66.6331 -66.6300 -66.6234 -66.6184 -66.6161 -66.6146 -66.6145 -66.6144
   -66.6143 -66.6143 -66.6143 -66.6143 -66.6143 -66.6142 -66.6142 -66.6142
   -66.6142 -66.6142 -66.6142 -66.6141 -66.6141 -66.6140 -66.6138 -66.6130
   -66.6130 -66.6129 -66.6129 -66.6129 -66.6129 -66.6129 -66.6129 -66.6129
   -66.6107 -66.6036 -66.6006 -66.5982 -66.5962 -66.5937 -66.5849 -66.5694
   -66.5582 -56.7489 -56.6721 -56.6313 -54.7083 -54.6992 -54.6252 -40.9845
   -40.9844 -40.9844 -40.9844 -40.9844 -40.9843 -40.9837 -40.9837 -40.9837
   -40.9716 -40.9695 -40.9632 -40.9092 -40.9091 -40.9091 -40.9091 -40.9091
   -40.9091 -40.9091 -40.9090 -40.9090 -40.9090 -40.9090 -40.9089 -40.9084
   -40.9084 -40.9084 -40.9084 -40.9084 -40.9084 -40.8997 -40.8962 -40.8912
   -40.8854 -40.8808 -40.8792 -40.8201 -40.8166 -40.8166 -40.8160 -40.7974
   -40.7829 -40.7828 -40.7827 -40.7827 -40.7827 -40.7827 -40.7827 -40.7827
   -40.7827 -40.7827 -40.7826 -40.7825 -40.7819 -40.7819 -40.7819 -40.7819
   -40.7819 -40.7819 -40.7790 -40.7759 -40.7755 -40.7751 -40.7750 -40.7750
   -40.7749 -40.7749 -40.7749 -40.7749 -40.7749 -40.7748 -40.7747 -40.7747
   -40.7746 -40.7742 -40.7742 -40.7742 -40.7742 -40.7742 -40.7742 -40.7742
   -40.7718 -40.7691 -40.7665 -40.7634 -40.7604 -40.7568 -40.7485 -40.7479
   -40.7478 -40.7477 -40.7477 -40.7477 -40.7477 -40.7477 -40.7477 -40.7477
   -40.7477 -40.7476 -40.7475 -40.7468 -40.7468 -40.7468 -40.7468 -40.7468
   -40.7468 -40.7427 -40.7411 -40.7385 -40.7380 -40.7333 -40.7332 -40.7331
   -40.7330 -40.7330 -40.7330 -40.7330 -40.7329 -40.7329 -40.7329 -40.7329
   -40.7329 -40.7329 -40.7328 -40.7328 -40.7328 -40.7327 -40.7326 -40.7324
   -40.7322 -40.7322 -40.7322 -40.7322 -40.7322 -40.7322 -40.7321 -40.7321
   -40.7321 -40.7306 -40.7284 -40.7281 -40.7274 -40.7233 -40.7192 -40.7171
   -40.7163 -40.7144 -40.7092 -40.6694 -40.6694 -40.6693 -40.6693 -40.6693
   -40.6692 -40.6684 -40.6684 -40.6684 -40.6540 -40.6501 -40.6476 -40.6224
   -40.6223 -40.6223 -40.6222 -40.6222 -40.6222 -40.6222 -40.6222 -40.6222
   -40.6222 -40.6221 -40.6220 -40.6212 -40.6212 -40.6212 -40.6212 -40.6212
   -40.6212 -40.6076 -40.6022 -40.6006 -40.5974 -40.5955 -40.5903 -40.5746
   -40.5746 -40.5746 -40.5746 -40.5736 -40.5736 -40.5503 -40.5434 -20.2124
   -20.1302 -20.0285 -19.9219 -19.6011 -19.3583 -19.3219 -19.2857 -19.2829
   -19.2800 -19.2705 -19.2642 -19.2594 -19.2333 -19.2259 -19.2164 -19.1839
   -19.1737 -19.1695 -19.1514 -19.1439 -19.1307 -19.0789 -19.0731 -19.0715
   -19.0655 -19.0626 -19.0560 -18.9376 -18.8325 -18.7607 -18.6582 -18.5988
   -18.5854 -18.5421 -18.5357 -18.5098 -18.5014 -18.4813 -18.4650 -18.4514
   -18.4439 -18.4267 -18.3936 -18.3686 -18.3603 -18.3211 -18.3164 -18.3100
   -18.2829 -18.2731 -18.2703 -18.2238 -18.2178 -18.2157 -18.2066 -18.2055
   -18.2043 -18.1711 -18.1577 -18.1550 -18.1541 -18.1528 -18.1520 -18.1504
   -18.1344 -18.1243 -18.1209 -18.1177 -18.1146 -18.1141 -18.1098 -18.1094
   -18.1076 -18.0977 -18.0829 -18.0821 -18.0813 -18.0783 -18.0748 -18.0660
   -18.0610 -18.0600 -18.0481 -18.0419 -18.0368 -18.0365 -18.0313 -18.0292
   -18.0194 -18.0162 -18.0155 -17.9898 -17.9783 -17.9749 -17.9637 -17.9516
   -17.9500 -17.9487 -17.9468 -17.9453 -17.9282 -17.9251 -17.9214 -17.9108
   -17.9066 -17.9019 -17.9006 -17.8968 -17.8941 -17.8900 -17.8882 -17.8873
   -17.8738 -17.8734 -17.8724 -17.8613 -17.8597 -17.8567 -17.8551 -17.8529
   -17.8503 -17.8297 -17.8295 -17.8283 -17.8278 -17.8269 -17.8257 -12.2161
   -12.0328 -11.9772 -11.9093 -11.8460 -11.8296 -11.8173 -11.8030 -11.7174
   -11.7062 -11.6970 -11.6085 -11.5906 -11.5855 -11.5610 -11.4118 -11.3753
   -11.3619 -11.2868 -11.2725 -11.2708 -11.2684 -11.2633 -11.2528 -11.2053
   -11.1820 -11.1690 -11.1664 -11.1621 -11.1613 -11.1564 -11.1449 -11.1312
   -11.1228 -11.1052 -11.1044 -11.0981 -11.0912 -11.0906 -11.0872 -11.0779
   -11.0741 -11.0667 -11.0571 -11.0517 -11.0253 -11.0107 -10.9954 -10.9906
   -10.9810 -10.9729 -10.9664 -10.9496 -10.9307 -10.9268 -10.9241 -10.9164
   -10.9152 -10.9068 -10.8889 -10.8828 -10.8817 -10.8779 -10.8754 -10.8653
   -10.8636 -10.8624 -10.8604 -10.8593 -10.8513 -10.8410 -10.8394 -10.8366
   -10.8365 -10.8343 -10.8317 -10.8123 -10.8112 -10.8097 -10.8075 -10.8048
   -10.8015 -10.7968 -10.7859 -10.7825 -10.7705 -10.7704 -10.7695 -10.7683
   -10.7654 -10.7636 -10.7021 -10.6951 -10.6902 -10.6532 -10.6357 -10.6276
   -10.6158 -10.6111 -10.6084 -10.5597 -10.4371 -10.3664 -10.2080 -10.1992
   -10.1653 -10.1194  -9.9985  -9.9821  -9.9603  -9.9260  -9.8612  -9.8505
    -9.8408  -9.8376  -9.8365  -9.8266  -9.8127  -9.8056  -9.8037  -9.8030
    -9.7991  -9.7952  -9.7936  -9.7898  -9.7845  -9.7808  -9.7779  -9.7715
    -9.7673  -9.7575  -9.7395  -9.7281  -9.6888  -9.6633  -9.6617  -9.6601
    -9.6586  -9.6570  -9.6511  -9.6508  -9.6502  -9.6497  -9.6491  -9.6476
    -9.6420  -9.6335  -9.6252  -9.6106  -9.5832  -9.5746  -9.5743  -9.5742
    -9.5738  -9.5736  -9.5726  -9.5693  -9.5589  -9.5486  -9.5471  -9.5345
    -9.5333  -9.5096  -9.5018  -9.4835  -9.4775  -9.4232  -9.3992  -9.3935
    -9.3862  -9.3827  -9.3797  -9.3731  -9.3631  -9.3613  -9.3560  -9.3430
    -9.3357  -9.3219  -9.2848  -9.2773  -9.2730  -9.2614  -9.2568  -9.2392
    -9.2314  -9.2171  -9.2152  -9.2135  -9.2122  -9.2104  -9.2058  -9.1787
    -9.1650  -9.1614  -9.1407  -9.1318  -9.1197  -9.0998  -9.0740  -9.0328
    -9.0149  -9.0143  -9.0120  -8.9900  -8.9868  -8.9814  -8.9796  -8.9756
    -8.9663  -8.9575  -8.9500  -8.9494  -8.9476  -8.9409  -8.9265  -8.9242
    -8.9150  -8.9099  -8.8913  -8.8540  -8.8539  -8.8535  -8.8534  -8.8533
    -8.8528  -8.7901  -8.7830  -8.7824  -8.7747  -8.7685  -8.7598  -8.7078
    -8.7017  -8.6985  -8.6940  -8.6875  -8.6817  -8.6762  -8.6291  -8.6261
    -8.6248  -8.6242  -8.6221  -8.6204  -8.5820  -8.5594  -8.4451  -8.4202
    -8.3992  -8.3992  -8.3945  -8.3944  -8.3882  -8.3879  -8.3852  -8.3775
    -8.3650  -8.3216  -8.3138  -8.3090  -8.3086  -8.3083  -8.3082  -8.3040
    -8.2971  -8.2837  -8.2823  -8.2815  -8.2813  -8.2773  -8.2730  -8.2559
    -8.2540  -8.2535  -8.2533  -8.2519  -8.2507  -8.2327  -8.1962  -8.1473
    -8.0240  -7.9589  -7.8927  -7.8911  -7.8893  -7.8162  -7.8088  -7.8000
    -7.7762  -7.7429  -7.7250  -7.7165  -7.6798  -7.6740  -7.6732  -7.6579
    -7.6558  -7.6524  -7.6456  -7.6337  -7.6325  -7.6115  -7.6067  -7.6004
    -7.5911  -7.5769  -7.5734  -7.5716  -7.5672  -7.5667  -7.5659  -7.5656
    -7.5621  -7.5556  -7.5410  -7.5408  -7.5390  -7.5389  -7.5373  -7.5322
    -7.5229  -7.5173  -7.5152  -7.5148  -7.5145  -7.5139  -7.5123  -7.5064
    -7.4950  -7.4816  -7.4619  -7.4553  -7.4481  -7.4451  -7.4435  -7.4394
    -7.4370  -7.4312  -7.3889  -7.3824  -7.3779  -7.3619  -7.3470  -7.3421
    -7.3416  -7.3359  -7.3280  -7.3248  -7.3200  -7.3188  -7.3166  -7.2994
    -7.2831  -7.2824  -7.2716  -7.2644  -7.2631  -7.2463  -7.2460  -7.2047
    -7.1929  -7.1669  -7.1472  -7.1392  -7.1223  -7.1001  -7.0638  -7.0188
    -6.9943  -6.9617  -6.9160  -6.8972  -6.8920  -6.8761  -6.8580  -6.8232
    -6.8124  -6.8115  -6.8078  -6.7718  -6.7531  -6.7328  -6.7303  -6.7241
    -6.7031  -6.6877  -6.6704  -6.6623  -6.6554  -6.6543  -6.6442  -6.6400
    -6.6190  -6.6094  -6.6014  -6.5967  -6.5870  -6.5724  -6.5655  -6.5534
    -6.5503  -6.5470  -6.5457  -6.5428  -6.5397  -6.5390  -6.5383  -6.5361
    -6.5302  -6.5299  -6.5299  -6.5297  -6.5295  -6.5290  -6.5140  -6.5083
    -6.4895  -6.4754  -6.4690  -6.4519  -6.4422  -6.4416  -6.4371  -6.4248
    -6.3855  -6.3737  -6.3713  -6.3666  -6.3649  -6.3626  -6.3585  -6.3526
    -6.3457  -6.3333  -6.3265  -6.3220  -6.3202  -6.3174  -6.3115  -6.3004
    -6.2887  -6.2856  -6.2852  -6.2840  -6.2824  -6.2788  -6.2636  -6.2084
    -6.0792  -5.9341  -5.8474  -5.6767  -5.5669  -5.4470  -5.4048  -5.3360
    -5.1830  -4.3792  -3.9351  -3.8855  -3.8808  -3.8781  -3.8774  -3.8633
    -3.8601  -3.8579  -3.8576  -3.8533  -3.8522  -3.8362  -3.7916  -3.7361
    -3.7287  -3.7168  -3.7157  -3.7146  -3.7099  -3.7061  -3.7036  -3.7030
    -3.7002  -3.6153  -3.5740  -3.5444  -3.5390  -3.5321  -3.5235  -3.5232
    -3.5114  -3.5096  -3.5063  -3.5040  -3.5034  -3.5009  -3.4966  -3.4867
    -3.4813  -3.4776  -3.4769  -3.4746  -3.4742  -3.4742  -3.4630  -3.4597
    -3.4593  -3.4554  -3.4486  -3.4428  -3.4427  -3.4417  -3.4376  -3.4362
    -3.4329  -3.4316  -3.4295  -3.4206  -3.4178  -3.3873  -3.3809  -3.3790
    -3.3779  -3.3752  -3.3739  -3.3709  -3.3679  -3.3638  -3.3593  -3.3485
    -3.3387  -3.3287  -3.3177  -3.3159  -3.3116  -3.3073  -3.2984  -3.2943
    -3.2479  -3.2449  -3.2330  -3.2302  -3.2276  -3.1172  -3.0975  -3.0955
    -3.0918  -3.0907  -3.0888  -3.0822  -3.0769  -3.0744  -3.0723  -3.0406
    -3.0200  -3.0150  -3.0074  -3.0046  -3.0029  -3.0012  -3.0010  -2.9978
    -2.9952  -2.9950  -2.9941  -2.9918  -2.9869  -2.9863  -2.9808  -2.9771
    -2.9707  -2.9673  -2.9665  -2.9622  -2.9598  -2.9579  -2.9576  -2.9571
    -2.9569  -2.9543  -2.9521  -2.9274  -2.9165  -2.9112  -2.9019  -2.8954
    -2.8880  -2.8777  -2.8701  -2.8562  -2.8367  -2.8352  -2.8349  -2.8342
    -2.8340  -2.8338  -2.8333  -2.8330  -2.8324  -2.8188  -2.8173  -2.8130
    -2.7868  -2.7794  -2.7677  -2.7642  -2.7594  -2.7523  -2.7473  -2.7024
    -2.6966  -2.6709  -2.6680  -2.6591  -2.6557  -2.6535  -2.6509  -2.6460
    -2.6444  -2.6268  -2.5965  -2.5856  -2.5749  -2.5726  -2.5661  -2.4631
    -2.4495  -2.4437  -2.4391  -2.4367

          k = 0.0000-0.5773 0.0000 (386352 PWs)   bands (ev):

  -102.4534 -88.8845 -70.7850 -70.7838 -70.7600 -70.7552 -70.7411 -70.7301
   -70.7171 -66.6508 -66.6507 -66.6507 -66.6506 -66.6494 -66.6494 -66.6491
   -66.6430 -66.6401 -66.6401 -66.6401 -66.6400 -66.6388 -66.6388 -66.6320
   -66.6272 -66.6251 -66.6250 -66.6250 -66.6250 -66.6250 -66.6250 -66.6249
   -66.6248 -66.6237 -66.6237 -66.6237 -66.6237 -66.6221 -66.6206 -66.6205
   -66.6205 -66.6204 -66.6198 -66.6192 -66.6192 -66.6177 -66.6144 -66.6143
   -66.6143 -66.6142 -66.6142 -66.6142 -66.6142 -66.6141 -66.6130 -66.6129
   -66.6129 -66.6129 -66.6098 -66.6098 -66.6098 -66.6097 -66.6090 -66.6085
   -66.6085 -66.6034 -66.6009 -66.5984 -66.5955 -66.5947 -66.5849 -66.5694
   -66.5582 -56.7489 -56.6721 -56.6313 -54.7083 -54.6992 -54.6252 -40.9530
   -40.9528 -40.9528 -40.9527 -40.9527 -40.9527 -40.9527 -40.9526 -40.9521
   -40.9521 -40.9521 -40.9521 -40.9454 -40.9419 -40.9349 -40.9260 -40.9260
   -40.9259 -40.9259 -40.9253 -40.9252 -40.9238 -40.9179 -40.9139 -40.9139
   -40.9139 -40.9138 -40.9132 -40.9132 -40.9122 -40.8927 -40.8769 -40.8632
   -40.8632 -40.8632 -40.8632 -40.8632 -40.8632 -40.8632 -40.8631 -40.8624
   -40.8624 -40.8624 -40.8624 -40.8454 -40.8409 -40.8390 -40.8362 -40.8117
   -40.8064 -40.8045 -40.8044 -40.8044 -40.8043 -40.8038 -40.8038 -40.7949
   -40.7949 -40.7949 -40.7949 -40.7940 -40.7940 -40.7906 -40.7836 -40.7836
   -40.7835 -40.7835 -40.7829 -40.7829 -40.7778 -40.7765 -40.7719 -40.7682
   -40.7568 -40.7540 -40.7540 -40.7539 -40.7539 -40.7539 -40.7539 -40.7539
   -40.7538 -40.7532 -40.7532 -40.7532 -40.7532 -40.7525 -40.7496 -40.7453
   -40.7452 -40.7452 -40.7451 -40.7447 -40.7445 -40.7445 -40.7413 -40.7334
   -40.7334 -40.7334 -40.7334 -40.7331 -40.7329 -40.7329 -40.7329 -40.7329
   -40.7328 -40.7328 -40.7328 -40.7326 -40.7326 -40.7322 -40.7322 -40.7322
   -40.7322 -40.7322 -40.7288 -40.7270 -40.7242 -40.7242 -40.7242 -40.7242
   -40.7236 -40.7235 -40.7235 -40.7186 -40.7164 -40.7118 -40.7078 -40.7025
   -40.7025 -40.7025 -40.7025 -40.7025 -40.7025 -40.7025 -40.7024 -40.7016
   -40.7016 -40.7015 -40.7015 -40.6888 -40.6877 -40.6823 -40.6802 -40.6678
   -40.6677 -40.6677 -40.6677 -40.6677 -40.6677 -40.6677 -40.6677 -40.6668
   -40.6668 -40.6668 -40.6668 -40.6557 -40.6556 -40.6556 -40.6555 -40.6546
   -40.6546 -40.6527 -40.6499 -40.6454 -40.6386 -40.6363 -40.6363 -40.6363
   -40.6362 -40.6353 -40.6353 -40.6350 -40.6232 -40.6196 -40.6193 -40.6193
   -40.6193 -40.6192 -40.6183 -40.6183 -40.6139 -40.5958 -40.5887 -40.5886
   -40.5886 -40.5885 -40.5876 -40.5876 -40.5789 -40.5705 -40.5575 -20.0763
   -19.9204 -19.9003 -19.8611 -19.8020 -19.7702 -19.6919 -19.6794 -19.5195
   -19.4984 -19.4577 -19.4465 -19.3670 -19.3555 -19.2649 -19.2585 -19.0966
   -18.9080 -18.8614 -18.8085 -18.7894 -18.7703 -18.7566 -18.7525 -18.7509
   -18.7384 -18.7145 -18.6930 -18.6875 -18.6793 -18.6682 -18.6537 -18.6230
   -18.6131 -18.6016 -18.5872 -18.5859 -18.5779 -18.5610 -18.5469 -18.5433
   -18.5147 -18.5109 -18.5038 -18.5008 -18.4696 -18.4440 -18.4399 -18.4364
   -18.4166 -18.4106 -18.3827 -18.3657 -18.3539 -18.3533 -18.3133 -18.2876
   -18.2814 -18.2740 -18.2621 -18.2318 -18.2236 -18.2140 -18.1922 -18.1647
   -18.1498 -18.1478 -18.1398 -18.1352 -18.1332 -18.1302 -18.1276 -18.1213
   -18.1066 -18.1034 -18.0997 -18.0975 -18.0962 -18.0872 -18.0800 -18.0757
   -18.0718 -18.0695 -18.0604 -18.0417 -18.0388 -18.0369 -18.0326 -18.0314
   -18.0270 -18.0252 -18.0191 -18.0169 -18.0082 -17.9771 -17.9744 -17.9675
   -17.9659 -17.9599 -17.9499 -17.9231 -17.9202 -17.9146 -17.9050 -17.8825
   -17.8790 -17.8760 -17.8699 -17.8630 -17.8528 -17.8510 -17.8508 -17.8505
   -17.8489 -17.8477 -17.8414 -17.8360 -17.8312 -17.8160 -17.8126 -17.7920
   -17.7898 -17.7728 -17.7697 -17.7586 -17.7562 -17.7512 -17.7508 -12.1416
   -11.8574 -11.7533 -11.7413 -11.7009 -11.6076 -11.5903 -11.5509 -11.5309
   -11.5277 -11.5250 -11.5160 -11.5073 -11.4991 -11.4775 -11.4404 -11.4269
   -11.4203 -11.4078 -11.3968 -11.3774 -11.3737 -11.3520 -11.3407 -11.3274
   -11.3107 -11.3054 -11.3012 -11.2933 -11.2899 -11.2887 -11.2800 -11.2738
   -11.2443 -11.2340 -11.2249 -11.2207 -11.2083 -11.2048 -11.2008 -11.1978
   -11.1879 -11.1773 -11.1770 -11.1672 -11.1468 -11.1225 -11.1065 -11.0954
   -11.0893 -11.0701 -11.0395 -11.0146 -10.9740 -10.9717 -10.9689 -10.9500
   -10.9454 -10.9291 -10.9246 -10.9106 -10.8994 -10.8880 -10.8677 -10.8648
   -10.8577 -10.8537 -10.8442 -10.8433 -10.8432 -10.8413 -10.8388 -10.8316
   -10.8288 -10.8255 -10.8252 -10.8232 -10.8224 -10.8155 -10.8152 -10.8124
   -10.8105 -10.7757 -10.7751 -10.7746 -10.7744 -10.7024 -10.6156 -10.5778
   -10.5672 -10.5595 -10.5361 -10.5157 -10.4953 -10.4602 -10.4253 -10.4102
   -10.3204 -10.2902 -10.2671 -10.2059 -10.1751 -10.1645 -10.1611 -10.1430
   -10.1345 -10.1157 -10.1150 -10.0861 -10.0798 -10.0653 -10.0618 -10.0608
   -10.0582 -10.0497 -10.0388 -10.0167 -10.0006  -9.9631  -9.9602  -9.9567
    -9.9380  -9.9351  -9.9297  -9.9235  -9.9151  -9.8925  -9.8857  -9.8795
    -9.8685  -9.8419  -9.8265  -9.8108  -9.8047  -9.7972  -9.7930  -9.7724
    -9.7569  -9.7459  -9.7276  -9.7119  -9.7095  -9.6881  -9.6796  -9.6523
    -9.6489  -9.6414  -9.6385  -9.6170  -9.6001  -9.5911  -9.5765  -9.5724
    -9.5673  -9.5637  -9.5548  -9.5239  -9.5218  -9.5183  -9.5036  -9.5031
    -9.4975  -9.4925  -9.4905  -9.4859  -9.4687  -9.4638  -9.4593  -9.4249
    -9.3910  -9.3844  -9.3615  -9.3265  -9.2944  -9.2811  -9.2584  -9.2453
    -9.2449  -9.2375  -9.2280  -9.2190  -9.1992  -9.1850  -9.1720  -9.1661
    -9.1488  -9.1379  -9.1287  -9.1113  -9.1079  -9.0853  -9.0744  -9.0683
    -9.0657  -9.0635  -9.0554  -9.0202  -9.0148  -9.0093  -9.0036  -8.9861
    -8.9787  -8.9737  -8.9704  -8.9581  -8.9301  -8.9239  -8.9221  -8.9186
    -8.9174  -8.9139  -8.9101  -8.9054  -8.9016  -8.9000  -8.8946  -8.8909
    -8.8890  -8.8838  -8.8771  -8.8754  -8.8715  -8.8713  -8.8662  -8.8464
    -8.8384  -8.8248  -8.8219  -8.8196  -8.8174  -8.8144  -8.8138  -8.7949
    -8.7920  -8.7695  -8.7651  -8.7623  -8.7586  -8.7508  -8.7391  -8.7263
    -8.6887  -8.6783  -8.6573  -8.6430  -8.6171  -8.5362  -8.5352  -8.5008
    -8.4897  -8.4746  -8.4438  -8.3918  -8.3821  -8.3777  -8.3149  -8.3015
    -8.2876  -8.2154  -8.1756  -8.1593  -8.1589  -8.1505  -8.1495  -8.1390
    -8.1385  -8.1130  -8.0967  -8.0683  -8.0641  -8.0057  -8.0016  -7.9749
    -7.9487  -7.9195  -7.8864  -7.8807  -7.8763  -7.8702  -7.8652  -7.8618
    -7.8508  -7.8441  -7.8392  -7.8328  -7.8320  -7.8301  -7.8247  -7.8221
    -7.8212  -7.8182  -7.8136  -7.8127  -7.8047  -7.8042  -7.8010  -7.7994
    -7.7971  -7.7961  -7.7921  -7.7900  -7.7895  -7.7886  -7.7746  -7.7675
    -7.7642  -7.7582  -7.7570  -7.7513  -7.7478  -7.7285  -7.7276  -7.7273
    -7.7264  -7.6990  -7.6984  -7.6975  -7.6959  -7.6860  -7.6830  -7.6784
    -7.6675  -7.6571  -7.6475  -7.6409  -7.6393  -7.6386  -7.6318  -7.6294
    -7.6266  -7.6169  -7.6138  -7.6075  -7.5959  -7.5948  -7.5923  -7.5811
    -7.5757  -7.5632  -7.5166  -7.4947  -7.4911  -7.4852  -7.4825  -7.4658
    -7.4317  -7.3828  -7.3144  -7.2498  -7.2216  -7.2040  -7.2023  -7.2003
    -7.1897  -7.1729  -7.1566  -7.1495  -7.1465  -7.1338  -7.1294  -7.0968
    -7.0775  -7.0746  -7.0728  -7.0540  -7.0533  -7.0335  -7.0225  -7.0098
    -7.0064  -6.9955  -6.9710  -6.9493  -6.9458  -6.9300  -6.9214  -6.9151
    -6.9066  -6.8911  -6.8894  -6.8629  -6.8613  -6.8533  -6.8184  -6.8045
    -6.7947  -6.7729  -6.7651  -6.7178  -6.7139  -6.6824  -6.6734  -6.6529
    -6.6523  -6.6416  -6.6391  -6.6371  -6.6352  -6.6332  -6.6227  -6.6194
    -6.6185  -6.6179  -6.6115  -6.6105  -6.6104  -6.6102  -6.6042  -6.5905
    -6.5675  -6.5366  -6.5228  -6.5013  -6.4586  -6.4420  -6.3960  -6.3599
    -6.3543  -6.3508  -6.3473  -6.3303  -6.3230  -6.3122  -6.3084  -6.3078
    -6.3039  -6.3037  -6.3000  -6.2877  -6.2811  -6.2765  -6.2636  -6.2603
    -6.2464  -6.2366  -6.2335  -6.2290  -6.2241  -6.1004  -6.0575  -6.0315
    -6.0138  -6.0015  -5.9663  -5.9474  -5.9333  -5.8889  -5.8827  -5.8714
    -5.7786  -5.7597  -5.7199  -5.6658  -5.6305  -5.6178  -5.5107  -5.4291
    -5.3702  -4.3825  -4.1278  -4.1207  -4.1172  -4.0931  -3.9819  -3.9598
    -3.9553  -3.9449  -3.9367  -3.8897  -3.8741  -3.8719  -3.8598  -3.8550
    -3.8427  -3.8384  -3.8299  -3.8283  -3.8277  -3.7798  -3.7420  -3.7158
    -3.7071  -3.6691  -3.6481  -3.6319  -3.6316  -3.6300  -3.6264  -3.5907
    -3.5835  -3.5807  -3.5671  -3.5536  -3.5490  -3.5472  -3.5425  -3.5399
    -3.5250  -3.5104  -3.5095  -3.5039  -3.5024  -3.5005  -3.4927  -3.4862
    -3.4772  -3.4745  -3.4641  -3.4532  -3.4491  -3.4462  -3.4362  -3.4139
    -3.3962  -3.3838  -3.3769  -3.3749  -3.3745  -3.3723  -3.3697  -3.3675
    -3.3448  -3.3315  -3.3202  -3.3160  -3.3145  -3.3104  -3.3087  -3.3064
    -3.3053  -3.3019  -3.2766  -3.2727  -3.2683  -3.2661  -3.2604  -3.2548
    -3.2481  -3.2420  -3.2390  -3.2326  -3.2243  -3.2232  -3.2143  -3.2059
    -3.2004  -3.1942  -3.1935  -3.1918  -3.1918  -3.1850  -3.1737  -3.1364
    -3.1296  -3.1212  -3.1015  -3.0996  -3.0954  -3.0906  -3.0898  -3.0552
    -3.0535  -3.0521  -3.0520  -3.0518  -3.0504  -3.0415  -3.0402  -3.0370
    -3.0366  -3.0340  -3.0266  -3.0202  -3.0177  -3.0124  -3.0070  -3.0021
    -3.0007  -2.9982  -2.9966  -2.9895  -2.9865  -2.9805  -2.9766  -2.9749
    -2.9698  -2.9627  -2.9609  -2.9532  -2.9426  -2.9261  -2.9189  -2.9176
    -2.9131  -2.9068  -2.9028  -2.8917  -2.8767  -2.8278  -2.8228  -2.8184
    -2.8151  -2.7805  -2.7627  -2.7444  -2.7387  -2.6458  -2.6396  -2.6218
    -2.6074  -2.5993  -2.5780  -2.5761  -2.5710  -2.5574  -2.5556  -2.5537
    -2.5480  -2.5471  -2.5378  -2.4638  -2.4321  -2.4271  -2.4225  -2.4185
    -2.4145  -2.4015  -2.3805  -2.3696

          k =-0.5000-0.2887 0.0000 (386352 PWs)   bands (ev):

  -102.4534 -88.8845 -70.7850 -70.7838 -70.7600 -70.7552 -70.7411 -70.7301
   -70.7171 -66.6508 -66.6507 -66.6507 -66.6506 -66.6494 -66.6494 -66.6492
   -66.6429 -66.6401 -66.6401 -66.6401 -66.6400 -66.6388 -66.6388 -66.6317
   -66.6269 -66.6250 -66.6250 -66.6250 -66.6250 -66.6250 -66.6249 -66.6249
   -66.6249 -66.6239 -66.6237 -66.6237 -66.6237 -66.6237 -66.6206 -66.6205
   -66.6205 -66.6204 -66.6196 -66.6192 -66.6192 -66.6166 -66.6144 -66.6143
   -66.6143 -66.6143 -66.6142 -66.6142 -66.6141 -66.6141 -66.6129 -66.6129
   -66.6129 -66.6129 -66.6098 -66.6098 -66.6098 -66.6097 -66.6092 -66.6085
   -66.6085 -66.6023 -66.6011 -66.5987 -66.5977 -66.5930 -66.5850 -66.5694
   -66.5582 -56.7489 -56.6721 -56.6313 -54.7083 -54.6992 -54.6252 -40.9529
   -40.9528 -40.9528 -40.9528 -40.9527 -40.9527 -40.9527 -40.9526 -40.9521
   -40.9521 -40.9521 -40.9521 -40.9474 -40.9376 -40.9321 -40.9290 -40.9260
   -40.9260 -40.9259 -40.9258 -40.9253 -40.9252 -40.9187 -40.9139 -40.9139
   -40.9139 -40.9139 -40.9132 -40.9132 -40.9114 -40.8945 -40.8755 -40.8632
   -40.8632 -40.8632 -40.8632 -40.8632 -40.8632 -40.8632 -40.8631 -40.8624
   -40.8624 -40.8624 -40.8624 -40.8489 -40.8395 -40.8362 -40.8356 -40.8139
   -40.8045 -40.8044 -40.8044 -40.8043 -40.8038 -40.8038 -40.8001 -40.7954
   -40.7949 -40.7949 -40.7949 -40.7949 -40.7940 -40.7940 -40.7836 -40.7836
   -40.7835 -40.7835 -40.7829 -40.7829 -40.7813 -40.7763 -40.7714 -40.7615
   -40.7581 -40.7540 -40.7539 -40.7539 -40.7539 -40.7539 -40.7539 -40.7539
   -40.7539 -40.7532 -40.7532 -40.7532 -40.7532 -40.7528 -40.7500 -40.7481
   -40.7453 -40.7452 -40.7452 -40.7451 -40.7445 -40.7445 -40.7366 -40.7360
   -40.7334 -40.7334 -40.7334 -40.7334 -40.7331 -40.7330 -40.7329 -40.7329
   -40.7329 -40.7329 -40.7327 -40.7326 -40.7326 -40.7326 -40.7322 -40.7322
   -40.7322 -40.7322 -40.7312 -40.7260 -40.7242 -40.7242 -40.7242 -40.7242
   -40.7235 -40.7235 -40.7209 -40.7178 -40.7171 -40.7131 -40.7080 -40.7027
   -40.7025 -40.7025 -40.7025 -40.7025 -40.7024 -40.7024 -40.7022 -40.7016
   -40.7016 -40.7016 -40.7015 -40.6898 -40.6887 -40.6825 -40.6785 -40.6678
   -40.6678 -40.6677 -40.6677 -40.6677 -40.6677 -40.6677 -40.6677 -40.6668
   -40.6668 -40.6668 -40.6668 -40.6557 -40.6556 -40.6556 -40.6555 -40.6546
   -40.6546 -40.6533 -40.6475 -40.6441 -40.6408 -40.6365 -40.6364 -40.6363
   -40.6363 -40.6361 -40.6353 -40.6353 -40.6246 -40.6205 -40.6193 -40.6193
   -40.6193 -40.6192 -40.6183 -40.6183 -40.6104 -40.5923 -40.5887 -40.5886
   -40.5886 -40.5885 -40.5876 -40.5876 -40.5821 -40.5728 -40.5557 -20.0769
   -19.9198 -19.9004 -19.8596 -19.8022 -19.7689 -19.6922 -19.6790 -19.5388
   -19.4900 -19.4605 -19.4389 -19.3689 -19.3504 -19.2652 -19.2567 -19.0915
   -18.9296 -18.8424 -18.8117 -18.7878 -18.7718 -18.7565 -18.7532 -18.7509
   -18.7391 -18.7159 -18.6922 -18.6856 -18.6792 -18.6703 -18.6533 -18.6290
   -18.6090 -18.6030 -18.5871 -18.5836 -18.5788 -18.5607 -18.5527 -18.5407
   -18.5101 -18.5076 -18.5061 -18.4995 -18.4696 -18.4452 -18.4393 -18.4354
   -18.4107 -18.4031 -18.3948 -18.3659 -18.3541 -18.3511 -18.3201 -18.2847
   -18.2795 -18.2758 -18.2623 -18.2321 -18.2295 -18.2088 -18.1979 -18.1639
   -18.1529 -18.1452 -18.1424 -18.1342 -18.1327 -18.1305 -18.1293 -18.1164
   -18.1060 -18.1022 -18.1002 -18.0972 -18.0963 -18.0859 -18.0798 -18.0775
   -18.0717 -18.0690 -18.0595 -18.0420 -18.0407 -18.0354 -18.0328 -18.0298
   -18.0282 -18.0252 -18.0178 -18.0174 -18.0077 -17.9787 -17.9763 -17.9681
   -17.9655 -17.9583 -17.9486 -17.9233 -17.9222 -17.9131 -17.9034 -17.8819
   -17.8801 -17.8750 -17.8676 -17.8639 -17.8533 -17.8513 -17.8506 -17.8503
   -17.8492 -17.8475 -17.8414 -17.8359 -17.8322 -17.8162 -17.8131 -17.7922
   -17.7899 -17.7730 -17.7697 -17.7587 -17.7561 -17.7512 -17.7508 -12.1374
   -11.8789 -11.7579 -11.7440 -11.6926 -11.5967 -11.5618 -11.5466 -11.5398
   -11.5319 -11.5256 -11.5107 -11.5007 -11.4931 -11.4774 -11.4487 -11.4275
   -11.4224 -11.4087 -11.3906 -11.3878 -11.3624 -11.3544 -11.3484 -11.3280
   -11.3147 -11.3086 -11.3028 -11.2933 -11.2902 -11.2871 -11.2839 -11.2781
   -11.2409 -11.2358 -11.2286 -11.2232 -11.2182 -11.2014 -11.2004 -11.1980
   -11.1889 -11.1782 -11.1772 -11.1607 -11.1496 -11.1289 -11.1039 -11.0930
   -11.0925 -11.0708 -11.0273 -11.0049 -10.9977 -10.9679 -10.9576 -10.9539
   -10.9534 -10.9322 -10.9217 -10.9097 -10.8907 -10.8842 -10.8672 -10.8644
   -10.8591 -10.8533 -10.8451 -10.8432 -10.8426 -10.8411 -10.8399 -10.8322
   -10.8276 -10.8256 -10.8249 -10.8233 -10.8224 -10.8157 -10.8152 -10.8120
   -10.8098 -10.7757 -10.7753 -10.7745 -10.7742 -10.7052 -10.6284 -10.5726
   -10.5685 -10.5627 -10.5381 -10.5134 -10.5006 -10.4681 -10.4198 -10.3804
   -10.3104 -10.2785 -10.2657 -10.2041 -10.1818 -10.1648 -10.1633 -10.1461
   -10.1361 -10.1191 -10.1174 -10.0866 -10.0784 -10.0676 -10.0642 -10.0612
   -10.0555 -10.0479 -10.0434 -10.0189 -10.0017  -9.9703  -9.9598  -9.9587
    -9.9444  -9.9372  -9.9296  -9.9227  -9.9128  -9.8934  -9.8851  -9.8777
    -9.8675  -9.8434  -9.8251  -9.8112  -9.8054  -9.7959  -9.7953  -9.7648
    -9.7619  -9.7369  -9.7298  -9.7162  -9.7110  -9.6865  -9.6806  -9.6496
    -9.6461  -9.6437  -9.6378  -9.6203  -9.6003  -9.5899  -9.5807  -9.5713
    -9.5687  -9.5629  -9.5541  -9.5239  -9.5216  -9.5162  -9.5039  -9.5027
    -9.4975  -9.4923  -9.4904  -9.4856  -9.4703  -9.4624  -9.4533  -9.4155
    -9.3884  -9.3876  -9.3690  -9.3210  -9.3045  -9.2925  -9.2513  -9.2476
    -9.2389  -9.2366  -9.2316  -9.2195  -9.1970  -9.1846  -9.1729  -9.1615
    -9.1557  -9.1464  -9.1324  -9.1109  -9.1004  -9.0871  -9.0758  -9.0726
    -9.0671  -9.0579  -9.0525  -9.0232  -9.0135  -9.0090  -9.0001  -8.9853
    -8.9782  -8.9755  -8.9712  -8.9535  -8.9390  -8.9241  -8.9213  -8.9206
    -8.9176  -8.9138  -8.9065  -8.9028  -8.9010  -8.8998  -8.8954  -8.8900
    -8.8873  -8.8843  -8.8799  -8.8744  -8.8717  -8.8712  -8.8620  -8.8493
    -8.8364  -8.8249  -8.8210  -8.8203  -8.8185  -8.8142  -8.8130  -8.7948
    -8.7917  -8.7667  -8.7649  -8.7610  -8.7584  -8.7530  -8.7440  -8.7300
    -8.6884  -8.6782  -8.6581  -8.6248  -8.6190  -8.5368  -8.5343  -8.4909
    -8.4866  -8.4729  -8.4405  -8.3975  -8.3893  -8.3766  -8.3325  -8.3034
    -8.2819  -8.2166  -8.1637  -8.1595  -8.1586  -8.1511  -8.1495  -8.1397
    -8.1386  -8.1256  -8.0977  -8.0943  -8.0421  -8.0070  -8.0022  -7.9799
    -7.9532  -7.9232  -7.8854  -7.8775  -7.8722  -7.8698  -7.8636  -7.8583
    -7.8487  -7.8434  -7.8388  -7.8332  -7.8317  -7.8293  -7.8248  -7.8233
    -7.8200  -7.8169  -7.8148  -7.8129  -7.8083  -7.8016  -7.8011  -7.7986
    -7.7967  -7.7960  -7.7950  -7.7900  -7.7894  -7.7843  -7.7759  -7.7690
    -7.7661  -7.7590  -7.7572  -7.7506  -7.7458  -7.7282  -7.7277  -7.7269
    -7.7264  -7.6989  -7.6982  -7.6978  -7.6958  -7.6884  -7.6835  -7.6781
    -7.6665  -7.6544  -7.6456  -7.6394  -7.6388  -7.6372  -7.6313  -7.6271
    -7.6247  -7.6166  -7.6136  -7.6050  -7.5955  -7.5945  -7.5863  -7.5836
    -7.5732  -7.5645  -7.5108  -7.4929  -7.4892  -7.4860  -7.4842  -7.4661
    -7.4250  -7.3778  -7.3228  -7.2629  -7.2308  -7.2030  -7.2025  -7.1995
    -7.1917  -7.1756  -7.1543  -7.1514  -7.1442  -7.1371  -7.1312  -7.1020
    -7.0776  -7.0744  -7.0663  -7.0588  -7.0530  -7.0277  -7.0176  -7.0156
    -7.0079  -7.0001  -6.9716  -6.9493  -6.9463  -6.9293  -6.9206  -6.9107
    -6.9012  -6.8914  -6.8894  -6.8717  -6.8622  -6.8467  -6.8313  -6.8033
    -6.7970  -6.7805  -6.7470  -6.7103  -6.7006  -6.6865  -6.6822  -6.6599
    -6.6528  -6.6412  -6.6386  -6.6368  -6.6359  -6.6354  -6.6232  -6.6196
    -6.6187  -6.6184  -6.6119  -6.6105  -6.6104  -6.6103  -6.6060  -6.5664
    -6.5631  -6.5416  -6.5126  -6.4873  -6.4621  -6.4416  -6.4231  -6.3580
    -6.3557  -6.3511  -6.3489  -6.3380  -6.3316  -6.3093  -6.3087  -6.3060
    -6.3045  -6.3033  -6.3012  -6.2887  -6.2834  -6.2773  -6.2674  -6.2570
    -6.2423  -6.2369  -6.2349  -6.2263  -6.2197  -6.1297  -6.0441  -6.0264
    -6.0074  -5.9983  -5.9619  -5.9424  -5.9303  -5.8881  -5.8819  -5.8680
    -5.7797  -5.7668  -5.7106  -5.6758  -5.6290  -5.6227  -5.5068  -5.4332
    -5.3672  -4.4013  -4.1286  -4.1202  -4.1171  -4.0967  -3.9770  -3.9601
    -3.9532  -3.9447  -3.9384  -3.8942  -3.8736  -3.8718  -3.8592  -3.8551
    -3.8426  -3.8386  -3.8292  -3.8279  -3.8252  -3.7711  -3.7388  -3.7149
    -3.7108  -3.6714  -3.6460  -3.6332  -3.6302  -3.6292  -3.6249  -3.5835
    -3.5815  -3.5779  -3.5736  -3.5516  -3.5484  -3.5455  -3.5430  -3.5350
    -3.5272  -3.5118  -3.5078  -3.5050  -3.5013  -3.5002  -3.4980  -3.4854
    -3.4754  -3.4736  -3.4625  -3.4539  -3.4494  -3.4442  -3.4329  -3.4035
    -3.4008  -3.3840  -3.3790  -3.3762  -3.3730  -3.3724  -3.3689  -3.3664
    -3.3375  -3.3324  -3.3207  -3.3179  -3.3131  -3.3109  -3.3101  -3.3062
    -3.3047  -3.3014  -3.2875  -3.2748  -3.2657  -3.2649  -3.2626  -3.2539
    -3.2517  -3.2432  -3.2399  -3.2389  -3.2286  -3.2219  -3.2157  -3.2096
    -3.1988  -3.1960  -3.1941  -3.1918  -3.1918  -3.1861  -3.1628  -3.1345
    -3.1254  -3.1176  -3.1021  -3.0985  -3.0936  -3.0921  -3.0897  -3.0545
    -3.0541  -3.0526  -3.0518  -3.0513  -3.0506  -3.0412  -3.0401  -3.0396
    -3.0355  -3.0345  -3.0258  -3.0208  -3.0167  -3.0087  -3.0066  -3.0018
    -3.0009  -2.9980  -2.9958  -2.9893  -2.9874  -2.9790  -2.9766  -2.9748
    -2.9697  -2.9619  -2.9602  -2.9564  -2.9426  -2.9284  -2.9224  -2.9161
    -2.9114  -2.9066  -2.9014  -2.8942  -2.8841  -2.8285  -2.8249  -2.8204
    -2.8159  -2.7748  -2.7654  -2.7450  -2.7434  -2.6501  -2.6429  -2.6362
    -2.6221  -2.6013  -2.6006  -2.5903  -2.5789  -2.5702  -2.5692  -2.5561
    -2.5555  -2.5518  -2.5496  -2.5087  -2.4471  -2.4303  -2.4242  -2.4224
    -2.4164  -2.4026  -2.3843  -2.3739

          k =-0.5000-0.8660 0.0000 (386352 PWs)   bands (ev):

  -102.4534 -88.8845 -70.7850 -70.7838 -70.7600 -70.7552 -70.7411 -70.7301
   -70.7171 -66.6508 -66.6507 -66.6507 -66.6506 -66.6502 -66.6494 -66.6494
   -66.6401 -66.6401 -66.6401 -66.6400 -66.6389 -66.6388 -66.6388 -66.6351
   -66.6294 -66.6252 -66.6251 -66.6250 -66.6250 -66.6250 -66.6250 -66.6248
   -66.6247 -66.6237 -66.6237 -66.6237 -66.6237 -66.6231 -66.6206 -66.6205
   -66.6205 -66.6204 -66.6192 -66.6192 -66.6172 -66.6159 -66.6144 -66.6144
   -66.6143 -66.6143 -66.6142 -66.6142 -66.6142 -66.6139 -66.6129 -66.6129
   -66.6129 -66.6129 -66.6098 -66.6098 -66.6098 -66.6098 -66.6098 -66.6085
   -66.6085 -66.6036 -66.6003 -66.5990 -66.5956 -66.5951 -66.5846 -66.5694
   -66.5582 -56.7489 -56.6721 -56.6313 -54.7083 -54.6992 -54.6252 -40.9553
   -40.9529 -40.9528 -40.9528 -40.9528 -40.9528 -40.9527 -40.9527 -40.9525
   -40.9521 -40.9521 -40.9521 -40.9521 -40.9384 -40.9278 -40.9260 -40.9260
   -40.9259 -40.9258 -40.9253 -40.9252 -40.9212 -40.9139 -40.9139 -40.9139
   -40.9139 -40.9132 -40.9132 -40.9128 -40.9079 -40.8957 -40.8861 -40.8632
   -40.8632 -40.8632 -40.8632 -40.8632 -40.8632 -40.8632 -40.8631 -40.8624
   -40.8624 -40.8624 -40.8624 -40.8477 -40.8447 -40.8410 -40.8348 -40.8115
   -40.8070 -40.8045 -40.8044 -40.8044 -40.8043 -40.8038 -40.8038 -40.7949
   -40.7949 -40.7949 -40.7949 -40.7941 -40.7940 -40.7875 -40.7836 -40.7836
   -40.7835 -40.7835 -40.7829 -40.7829 -40.7807 -40.7737 -40.7700 -40.7679
   -40.7575 -40.7541 -40.7541 -40.7539 -40.7539 -40.7539 -40.7539 -40.7538
   -40.7537 -40.7532 -40.7532 -40.7532 -40.7532 -40.7530 -40.7466 -40.7453
   -40.7452 -40.7452 -40.7451 -40.7445 -40.7445 -40.7438 -40.7389 -40.7342
   -40.7334 -40.7334 -40.7334 -40.7334 -40.7330 -40.7330 -40.7330 -40.7329
   -40.7329 -40.7329 -40.7329 -40.7326 -40.7326 -40.7325 -40.7323 -40.7322
   -40.7322 -40.7322 -40.7322 -40.7276 -40.7242 -40.7242 -40.7242 -40.7242
   -40.7235 -40.7235 -40.7235 -40.7167 -40.7144 -40.7100 -40.7080 -40.7027
   -40.7025 -40.7025 -40.7025 -40.7025 -40.7025 -40.7024 -40.7023 -40.7016
   -40.7016 -40.7015 -40.7015 -40.6957 -40.6872 -40.6812 -40.6722 -40.6678
   -40.6677 -40.6677 -40.6677 -40.6677 -40.6677 -40.6677 -40.6677 -40.6668
   -40.6668 -40.6668 -40.6668 -40.6557 -40.6556 -40.6556 -40.6555 -40.6546
   -40.6546 -40.6530 -40.6459 -40.6456 -40.6422 -40.6402 -40.6363 -40.6363
   -40.6363 -40.6362 -40.6353 -40.6353 -40.6221 -40.6193 -40.6193 -40.6193
   -40.6192 -40.6183 -40.6183 -40.6179 -40.6142 -40.5956 -40.5886 -40.5886
   -40.5886 -40.5885 -40.5883 -40.5876 -40.5876 -40.5732 -40.5491 -20.0812
   -19.9178 -19.9003 -19.8545 -19.8018 -19.7638 -19.6918 -19.6771 -19.5378
   -19.4992 -19.4603 -19.4469 -19.3687 -19.3558 -19.2652 -19.2587 -19.0919
   -18.8934 -18.8456 -18.8139 -18.7944 -18.7719 -18.7565 -18.7519 -18.7513
   -18.7406 -18.7232 -18.6921 -18.6864 -18.6781 -18.6730 -18.6545 -18.6156
   -18.6097 -18.6007 -18.5859 -18.5809 -18.5795 -18.5732 -18.5505 -18.5258
   -18.5174 -18.5105 -18.5073 -18.4987 -18.4658 -18.4438 -18.4424 -18.4330
   -18.4290 -18.4056 -18.3859 -18.3644 -18.3528 -18.3501 -18.3400 -18.2918
   -18.2777 -18.2658 -18.2609 -18.2429 -18.2253 -18.2074 -18.1941 -18.1769
   -18.1534 -18.1455 -18.1397 -18.1333 -18.1332 -18.1311 -18.1292 -18.1070
   -18.1040 -18.1038 -18.1018 -18.0977 -18.0960 -18.0914 -18.0787 -18.0761
   -18.0696 -18.0616 -18.0614 -18.0440 -18.0393 -18.0343 -18.0319 -18.0313
   -18.0273 -18.0203 -18.0185 -18.0168 -18.0060 -17.9848 -17.9703 -17.9680
   -17.9644 -17.9514 -17.9492 -17.9258 -17.9196 -17.9063 -17.9049 -17.8847
   -17.8807 -17.8706 -17.8696 -17.8660 -17.8560 -17.8517 -17.8507 -17.8493
   -17.8491 -17.8483 -17.8467 -17.8359 -17.8342 -17.8154 -17.8142 -17.7912
   -17.7908 -17.7718 -17.7709 -17.7580 -17.7572 -17.7511 -17.7510 -12.1574
   -11.8801 -11.7541 -11.7429 -11.6848 -11.5953 -11.5486 -11.5467 -11.5320
   -11.5285 -11.5163 -11.5100 -11.4975 -11.4771 -11.4705 -11.4496 -11.4284
   -11.4224 -11.4214 -11.3804 -11.3712 -11.3679 -11.3613 -11.3484 -11.3223
   -11.3214 -11.3112 -11.3034 -11.2945 -11.2896 -11.2893 -11.2864 -11.2784
   -11.2416 -11.2365 -11.2275 -11.2187 -11.2115 -11.2031 -11.1995 -11.1980
   -11.1838 -11.1803 -11.1769 -11.1711 -11.1521 -11.1270 -11.1077 -11.0968
   -11.0935 -11.0740 -11.0299 -11.0096 -10.9974 -10.9712 -10.9628 -10.9600
   -10.9555 -10.9292 -10.9215 -10.9041 -10.8973 -10.8762 -10.8681 -10.8665
   -10.8593 -10.8558 -10.8442 -10.8430 -10.8426 -10.8420 -10.8364 -10.8316
   -10.8284 -10.8263 -10.8240 -10.8220 -10.8214 -10.8164 -10.8145 -10.8125
   -10.7989 -10.7766 -10.7749 -10.7746 -10.7730 -10.7510 -10.6371 -10.5735
   -10.5686 -10.5615 -10.5512 -10.5117 -10.5020 -10.4811 -10.4151 -10.3882
   -10.2807 -10.2783 -10.2258 -10.2025 -10.1866 -10.1744 -10.1520 -10.1450
   -10.1314 -10.1262 -10.1019 -10.0867 -10.0821 -10.0680 -10.0656 -10.0591
   -10.0547 -10.0484 -10.0431 -10.0346 -10.0064  -9.9762  -9.9713  -9.9519
    -9.9447  -9.9441  -9.9321  -9.9275  -9.9247  -9.9044  -9.8926  -9.8769
    -9.8572  -9.8471  -9.8324  -9.8249  -9.8062  -9.8007  -9.7937  -9.7773
    -9.7504  -9.7501  -9.7361  -9.7263  -9.7052  -9.6941  -9.6844  -9.6578
    -9.6552  -9.6449  -9.6348  -9.6115  -9.5937  -9.5785  -9.5776  -9.5754
    -9.5689  -9.5621  -9.5507  -9.5236  -9.5206  -9.5123  -9.5094  -9.5055
    -9.4937  -9.4906  -9.4882  -9.4712  -9.4644  -9.4592  -9.4548  -9.4019
    -9.3932  -9.3516  -9.3380  -9.3226  -9.3009  -9.2831  -9.2484  -9.2439
    -9.2396  -9.2322  -9.2198  -9.2088  -9.2009  -9.1786  -9.1778  -9.1638
    -9.1559  -9.1384  -9.1257  -9.1139  -9.0941  -9.0897  -9.0830  -9.0723
    -9.0649  -9.0593  -9.0529  -9.0317  -9.0281  -9.0126  -8.9906  -8.9878
    -8.9805  -8.9784  -8.9682  -8.9530  -8.9462  -8.9253  -8.9222  -8.9197
    -8.9168  -8.9139  -8.9115  -8.9075  -8.9069  -8.9016  -8.9000  -8.8958
    -8.8898  -8.8796  -8.8743  -8.8717  -8.8712  -8.8704  -8.8555  -8.8536
    -8.8339  -8.8255  -8.8217  -8.8196  -8.8142  -8.8130  -8.8130  -8.7954
[...]
     atom  170 type  1   force =    -0.00001171   -0.00001639    0.00000687
     atom  171 type  2   force =    -0.00000451   -0.00000015    0.00000530
     atom  172 type  2   force =    -0.00000086    0.00000009    0.00161501
     atom  173 type  2   force =    -0.00000099   -0.00000043   -0.00235895
     atom  174 type  2   force =    -0.00000349   -0.00000076   -0.00000566
     atom  175 type  1   force =     0.00000213   -0.00000478    0.00001739
     atom  176 type  1   force =    -0.00006576   -0.00005228   -0.00005776
     atom  177 type  2   force =    -0.00013137   -0.00003254   -0.00010697
     atom  178 type  2   force =     0.00000978   -0.00000558    0.00001968
     atom  179 type  2   force =    -0.00001862    0.00000302    0.00000617
     atom  180 type  2   force =     0.00002120    0.00002614    0.00005746
     atom  181 type  1   force =     0.00000085   -0.00000084    0.00068872
     atom  182 type  1   force =    -0.00000972   -0.00000871   -0.00000143
     atom  183 type  2   force =    -0.00000254   -0.00000172    0.00000553
     atom  184 type  2   force =    -0.00000083    0.00000008    0.00161512
     atom  185 type  2   force =    -0.00000101   -0.00000047   -0.00235902
     atom  186 type  2   force =    -0.00000211   -0.00000206   -0.00001041
     atom  187 type  1   force =     0.00000566   -0.00000449   -0.00000570
     atom  188 type  1   force =     0.00002390   -0.00006193   -0.00002459
     atom  189 type  2   force =     0.00000967   -0.00007594    0.00006713
     atom  190 type  2   force =     0.00000445    0.00001640    0.00001057
     atom  191 type  2   force =    -0.00000069   -0.00001405    0.00000149
     atom  192 type  2   force =     0.00016737   -0.00015034    0.00013669
     atom  193 type  3   force =     0.00013352   -0.00047387   -0.00052512
     atom  194 type  4   force =     0.00035061    0.00038401   -0.00030586

     Total force =     0.001777     Total SCF correction =     0.000499
     SCF correction compared to forces is large: reduce conv_thr to get better values
     Energy error            =      3.2E-06 Ry
     Gradient error          =      5.3E-04 Ry/Bohr

     bfgs converged in  21 scf cycles and  20 bfgs steps
     (criteria: energy <  1.0E-04 Ry, force <  1.0E-03 Ry/Bohr)

     End of BFGS Geometry Optimization

     Final energy             =  -33980.2985009595 Ry

     File ./outdir/pwscf.bfgs deleted, as requested
Begin final coordinates

ATOMIC_POSITIONS (angstrom)
Mo               0.0000119917        1.8193638619       -9.1672481230    0   0   0
Mo               1.5756136568        0.9097075315       -3.0554901653    0   0   0
S                0.0000188998        1.8193822938       -4.6232556019    0   0   0
S                1.5756321638        0.9096773839       -7.6014065489    0   0   0
S                1.5756326175        0.9096785128      -10.7330757790    0   0   0
S                0.0000189190        1.8193860094       -1.4877129945    0   0   0
Mo              -0.0000941619        1.8197966451        3.0558324951
Mo               1.5809390108        0.9005116193        9.1711437674
S               -0.0044556282        1.8422645292        7.6390660944
S                1.5748728127        0.9101029769        4.6236178664
S                1.5756063595        0.9098292170        1.4882503471
S               -0.0023281098        1.7123441216       10.8175923408
Mo              -1.5756053507        4.5484193819       -9.1672481230    0   0   0
Mo               0.0000378379        3.6387394919       -3.0554952701    0   0   0
S               -1.5755913433        4.5484363582       -4.6232494962    0   0   0
S                0.0000148214        3.6387329039       -7.6014065489    0   0   0
S                0.0000152751        3.6387340328      -10.7330757790    0   0   0
S               -1.5755906502        4.5484413613       -1.4877305502    0   0   0
Mo              -1.5751405107        4.5483659941        3.0564827550
Mo              -0.0039152677        3.6290236787        9.2160690704
S               -1.5588395481        4.5403663105        7.6414545665
S                0.0003218435        3.6387313658        4.6248154425
S                0.0000660164        3.6390254729        1.4882688941
S               -1.6929625827        4.6087051578       10.7961535263
Mo              -3.1512226931        7.2774749019       -9.1672481230    0   0   0
Mo              -1.5755910988        6.3678216792       -3.0555115988    0   0   0
S               -3.1512162438        7.2774954350       -4.6232578178    0   0   0
S               -1.5756025210        6.3677884239       -7.6014065489    0   0   0
S               -1.5756020673        6.3677895528      -10.7330757790    0   0   0
S               -3.1512127704        7.2774877076       -1.4877200710    0   0   0
Mo              -3.1509996984        7.2773220780        3.0563101430
Mo              -1.5987301690        6.3844862617        9.1771784335
S               -3.1541691471        7.2786025774        7.5843966429
S               -1.5751849035        6.3674767051        4.6247149823
S               -1.5754460050        6.3676402310        1.4886498850
S               -3.1798506942        7.2970180566       10.7313557001
Mo              -4.7268400355       10.0065304219       -9.1672481230    0   0   0
Mo              -3.1512405618        9.0968403586       -3.0554816746    0   0   0
S               -4.7268341792       10.0065523623       -4.6232463762    0   0   0
S               -3.1512198634        9.0968439439       -7.6014065489    0   0   0
S               -3.1512194097        9.0968450728      -10.7330757790    0   0   0
S               -4.7268370797       10.0065537885       -1.4877176751    0   0   0
Mo              -4.7269815677       10.0066716303        3.0559748640
Mo              -3.1558795498        9.0994967042        9.1518943568
S               -4.7342364890       10.0116919577        7.5891327594
S               -3.1511507829        9.0970423186        4.6234300093
S               -3.1512790424        9.0966271139        1.4883222514
S               -4.7216384931        9.9959043645       10.7318559132
Mo               3.1512517547        1.8193638619       -9.1672481230    0   0   0
Mo               4.7269020221        0.9097289540       -3.0554823951    0   0   0
S                3.1512612351        1.8193882564       -4.6232320683    0   0   0
S                4.7268719268        0.9096773839       -7.6014065489    0   0   0
S                4.7268723805        0.9096785128      -10.7330757790    0   0   0
S                3.1512592485        1.8193890201       -1.4877261251    0   0   0
Mo               3.1511332853        1.8193716380        3.0562532521
Mo               4.7311497012        0.9029709151        9.1478473843
S                3.1513362388        1.8030545802        7.5784897947
S                4.7274507353        0.9095273523        4.6229516316
S                4.7266233459        0.9095636918        1.4880337394
S                3.1707327480        1.8028905410       10.7225430895
Mo               1.5756344123        4.5484193819       -9.1672481230    0   0   0
Mo               3.1512756394        3.6387769522       -3.0554814834    0   0   0
S                1.5756504879        4.5484423799       -4.6232390542    0   0   0
S                3.1512545844        3.6387329039       -7.6014065489    0   0   0
S                3.1512550381        3.6387340328      -10.7330757790    0   0   0
S                1.5756466253        4.5484431864       -1.4877251801    0   0   0
Mo               1.5754595599        4.5484018030        3.0562984799
Mo               3.1960953652        3.6123809279        9.1485495764
S                1.5613929629        4.5522442353        7.6593219438
S                3.1508334652        3.6388276980        4.6243216590
S                3.1511792639        3.6387065327        1.4885779301
S                1.7246935506        4.5069347428       10.7656744518
Mo               0.0000170699        7.2774749019       -9.1672481230    0   0   0
Mo               1.5756764447        6.3678236689       -3.0554877708    0   0   0
S                0.0000381981        7.2774979204       -4.6232454413    0   0   0
S                1.5756372420        6.3677884239       -7.6014065489    0   0   0
S                1.5756376957        6.3677895528      -10.7330757790    0   0   0
S                0.0000328088        7.2774946042       -1.4877307940    0   0   0
Mo               0.0001762125        7.2770764175        3.0564459988
Mo               1.5866580952        6.3840299531        9.2108237541
S                0.0099916095        7.2689323841        7.6313169869
S                1.5757310195        6.3674623971        4.6245891411
S                1.5753756635        6.3675404957        1.4883110455
S               -0.0741157647        7.3278628463       10.7688894914
Mo              -1.5756002725       10.0065304219       -9.1672481230    0   0   0
Mo               0.0000873425        9.0968676911       -3.0554912329    0   0   0
S               -1.5755883952       10.0065504530       -4.6232240150    0   0   0
S                0.0000198996        9.0968439439       -7.6014065489    0   0   0
S                0.0000203533        9.0968450728      -10.7330757790    0   0   0
S               -1.5755859047       10.0065492576       -1.4877362381    0   0   0
Mo              -1.5753915656       10.0062810721        3.0557878766
Mo              -0.0060717458        9.1099265944        9.1657213544
S               -1.5731940619       10.0002392682        7.5814712468
S                0.0002257133        9.0963825275        4.6238829395
S                0.0001792061        9.0963289358        1.4883267883
S               -1.5851245992       10.0152722003       10.7261629719
Mo               6.3024915177        1.8193638619       -9.1672481230    0   0   0
Mo               7.8781001445        0.9096521684       -3.0554919963    0   0   0
S                6.3025008696        1.8193826232       -4.6232480596    0   0   0
S                7.8781116898        0.9096773839       -7.6014065489    0   0   0
S                7.8781121435        0.9096785128      -10.7330757790    0   0   0
S                6.3025042007        1.8193849068       -1.4877147524    0   0   0
Mo               6.3027843945        1.8191467327        3.0552561124
Mo               7.8790966514        0.9083922315        9.1619338313
S                6.3112266765        1.8132143841        7.5809433707
S                7.8782793633        0.9094826298        4.6232977579
S                7.8786200739        0.9094543601        1.4880306948
S                6.3016852564        1.8202552852       10.7186758382
Mo               4.7268741753        4.5484193819       -9.1672481230    0   0   0
Mo               6.3024679138        3.6387501714       -3.0554895197    0   0   0
S                4.7268748770        4.5484386753       -4.6232519432    0   0   0
S                6.3024943474        3.6387329039       -7.6014065489    0   0   0
S                6.3024948011        3.6387340328      -10.7330757790    0   0   0
S                4.7268770533        4.5484432419       -1.4877137856    0   0   0
Mo               4.7267621492        4.5484113307        3.0562747496
Mo               6.3099303768        3.6383745362        9.1448262719
S                4.7394575788        4.5555901427        7.5760157421
S                6.3028245523        3.6381586306        4.6231098970
S                6.3025524222        3.6389848070        1.4881424066
S                4.7545248541        4.5390269993       10.7216390782
Mo               3.1512568329        7.2774749019       -9.1672481230    0   0   0
Mo               4.7268384135        6.3678043337       -3.0554959052    0   0   0
S                3.1512606125        7.2774972547       -4.6232589675    0   0   0
S                4.7268770050        6.3677884239       -7.6014065489    0   0   0
S                4.7268774587        6.3677895528      -10.7330757790    0   0   0
S                3.1512629079        7.2774963749       -1.4877081835    0   0   0
Mo               3.1508878373        7.2773633608        3.0558185783
Mo               4.7344331994        6.3682639948        9.1692208671
S                3.1374431587        7.2732995958        7.6268613382
S                4.7263887788        6.3682556349        4.6234003146
S                4.7266147353        6.3676054436        1.4881351234
S                3.2161930530        7.3209156236       10.7939055730
Mo               1.5756394905       10.0065304219       -9.1672481230    0   0   0
Mo               3.1512330605        9.0968514907       -3.0554878870    0   0   0
S                1.5756499830       10.0065443759       -4.6232632674    0   0   0
S                3.1512596626        9.0968439439       -7.6014065489    0   0   0
S                3.1512601163        9.0968450728      -10.7330757790    0   0   0
S                1.5756503041       10.0065459699       -1.4877044377    0   0   0
Mo               1.5757381829       10.0062697328        3.0560322428
Mo               3.1570085960        9.1029994232        9.1744212594
S                1.5800949475       10.0038448024        7.5955698091
S                3.1511180730        9.0964401349        4.6240100409
S                3.1512825177        9.0968506276        1.4882577434
S                1.5719528236       10.0113791787       10.7339730634
Mo               9.4537312807        1.8193638619       -9.1672481230    0   0   0
Mo              11.0293863460        0.9096952246       -3.0554894007    0   0   0
S                9.4537395970        1.8193770750       -4.6232328036    0   0   0
S               11.0293514528        0.9096773839       -7.6014065489    0   0   0
S               11.0293519066        0.9096785128      -10.7330757790    0   0   0
S                9.4537393632        1.8193794783       -1.4877366147    0   0   0
Mo               9.4540258264        1.8193483539        3.0561974498
Mo              11.0235486462        0.9006483349        9.1791855348
S                9.4588078769        1.8164701048        7.5983211235
S               11.0297727403        0.9100547529        4.6241015770
S               11.0293038888        0.9096953084        1.4882899885
S                9.4453716938        1.8183497639       10.7366795032
Mo               7.8781139383        4.5484193819       -9.1672481230    0   0   0
Mo               9.4537539161        3.6387607911       -3.0554933032    0   0   0
S                7.8781175448        4.5484378232       -4.6232366318    0   0   0
S                9.4537341104        3.6387329039       -7.6014065489    0   0   0
S                9.4537345641        3.6387340328      -10.7330757790    0   0   0
S                7.8781194018        4.5484411585       -1.4877377057    0   0   0
Mo               7.8784584279        4.5483001099        3.0560060533
Mo               9.4361504570        3.6344600020        9.1693703083
S                7.8863405738        4.5499579391        7.5818120815
S                9.4543906949        3.6386965120        4.6240799746
S                9.4541816726        3.6387334389        1.4884800132
S                7.8608411922        4.5509602430       10.7265100279
Mo               6.3024965959        7.2774749019       -9.1672481230    0   0   0
Mo               7.8781361655        6.3678242352       -3.0555014130    0   0   0
S                6.3024973331        7.2774953556       -4.6232392528    0   0   0
S                7.8781167680        6.3677884239       -7.6014065489    0   0   0
S                7.8781172217        6.3677895528      -10.7330757790    0   0   0
S                6.3024989866        7.2774929744       -1.4877349119    0   0   0
Mo               6.3023339490        7.2774965328        3.0556206755
Mo               7.8741559085        6.3700556315        9.1542251958
S                6.2960400345        7.2806542336        7.5910469493
S                7.8778682323        6.3677810772        4.6233174649
S                7.8784082865        6.3677296556        1.4882566206
S                6.3111323930        7.2779049771       10.7317583066
Mo               4.7268792535       10.0065304219       -9.1672481230    0   0   0
Mo               6.3025111524        9.0968738021       -3.0554915260    0   0   0
S                4.7268840634       10.0065452125       -4.6232380477    0   0   0
S                6.3024994256        9.0968439439       -7.6014065489    0   0   0
S                6.3024998793        9.0968450728      -10.7330757790    0   0   0
S                4.7268847312       10.0065459141       -1.4877283294    0   0   0
Mo               4.7267638499       10.0066274776        3.0562184660
Mo               6.3009131238        9.0978238289        9.1629346512
S                4.7229636188       10.0109833675        7.5979902560
S                6.3023162980        9.0967698799        4.6233955306
S                6.3023549937        9.0970598774        1.4881537077
S                4.7306682829       10.0006655121       10.7446233095
Pd               1.4844949956        6.2775662590       12.1766792722
Pt               0.0325349834        3.7402998389       12.0384448465
End final coordinates



     Writing all to output data dir ./outdir/pwscf.save/ :
     XML data file, charge density, pseudopotentials, collected wavefunctions
 
     init_run     :    172.61s CPU    175.86s WALL (       1 calls)
     electrons    : 166487.45s CPU 168614.76s WALL (      21 calls)
     update_pot   :     33.81s CPU     34.92s WALL (      20 calls)
     forces       :   2691.24s CPU   2739.09s WALL (      21 calls)
     force_dftd3  :     14.01s CPU     14.63s WALL (      21 calls)

     Called by init_run:
     wfcinit      :    148.85s CPU    150.71s WALL (       1 calls)
     potinit      :      1.29s CPU      1.39s WALL (       1 calls)
     hinit0       :     12.86s CPU     12.93s WALL (       1 calls)

     Called by electrons:
     c_bands      : 147220.05s CPU 148657.93s WALL (     272 calls)
     sum_band     :  17195.44s CPU  17555.02s WALL (     272 calls)
     v_of_rho     :     98.96s CPU    111.31s WALL (     278 calls)
     newd         :   1752.62s CPU   2074.21s WALL (     278 calls)
     PAW_pot      :    258.38s CPU    260.97s WALL (     298 calls)
     mix_rho      :     26.68s CPU     30.89s WALL (     272 calls)
     energy_dftd3 :      8.07s CPU      8.12s WALL (      21 calls)

     Called by c_bands:
     init_us_2    :    583.81s CPU    586.88s WALL (    2344 calls)
     init_us_2:cp :    583.78s CPU    586.86s WALL (    2344 calls)
     cegterg      : 144802.19s CPU 146224.76s WALL (    1111 calls)

     Called by *egterg:
     cdiaghg      :   8434.99s CPU   8731.62s WALL (   13630 calls)
     h_psi        :  72706.84s CPU  73185.48s WALL (   13779 calls)
     s_psi        :  16213.18s CPU  16318.74s WALL (   13779 calls)
     g_psi        :    132.70s CPU    133.37s WALL (   12664 calls)

     Called by h_psi:
     h_psi:calbec :  16405.62s CPU  16464.17s WALL (   13779 calls)
     vloc_psi     :  39752.39s CPU  39963.60s WALL (   13779 calls)
     add_vuspsi   :  16246.29s CPU  16353.41s WALL (   13779 calls)

     General routines
     calbec       :  23519.77s CPU  23604.17s WALL (   15283 calls)
     fft          :    115.06s CPU    126.08s WALL (    3838 calls)
     ffts         :      5.07s CPU      5.42s WALL (     550 calls)
     fftw         :  29872.43s CPU  30027.70s WALL ( 7820960 calls)
     interpolate  :      8.61s CPU      9.47s WALL (     278 calls)
 
     Parallel routines
 
     PWSCF        :   1d23h16m CPU   1d23h54m WALL

 
   This run was terminated on:   8:33:42  17Mar2024            

=------------------------------------------------------------------------------=
   JOB DONE.
=------------------------------------------------------------------------------=
