
     Program PWSCF v.7.2 starts on 15Dec2023 at 14:30:22 

     This program is part of the open-source Quantum ESPRESSO suite
     for quantum simulation of materials; please cite
         "P. Giannozzi et al., J. Phys.:Condens. Matter 21 395502 (2009);
         "P. Giannozzi et al., J. Phys.:Condens. Matter 29 465901 (2017);
         "P. Giannozzi et al., J. Chem. Phys. 152 154105 (2020);
          URL http://www.quantum-espresso.org", 
     in publications or presentations arising from this work. More details at
     http://www.quantum-espresso.org/quote

     Parallel version (MPI), running on    48 processors

     MPI processes distributed on     1 nodes
     1413814 MiB available memory on the printing compute node when the environment starts
 
     Waiting for input...
     Reading input from standard input

     Current dimensions of program PWSCF are:
     Max number of different atomic species (ntypx) = 10
     Max number of k-points (npk) =  40000
     Max angular momentum in pseudopotentials (lmaxx) =  4
     file Mo.pbe-spn-kjpaw_psl.1.0.0.UPF: wavefunction(s)  4S 4D renormalized
     file C.pbe-n-kjpaw_psl.1.0.0.UPF: wavefunction(s)  2S 2P renormalized
 
     K-points division:     npool     =       2
     R & G space division:  proc/nbgrp/npool/nimage =      24
     Subspace diagonalization in iterative solution of the eigenvalue problem:
     a serial algorithm will be used

 
     Parallelization info
     --------------------
     sticks:   dense  smooth     PW     G-vecs:    dense   smooth      PW
     Min          51      29      9                 2229      959     171
     Max          52      30     10                 2236      964     176
     Sum        1237     703    223                53573    23059    4161
 
     Using Slab Decomposition
 


     bravais-lattice index     =            0
     lattice parameter (alat)  =       5.7751  a.u.
     unit-cell volume          =     253.2027 (a.u.)^3
     number of atoms/cell      =            3
     number of atomic types    =            2
     number of electrons       =        32.00
     number of Kohn-Sham states=           20
     kinetic-energy cutoff     =      77.0000  Ry
     charge density cutoff     =     539.0000  Ry
     scf convergence threshold =      1.0E-06
     mixing beta               =       0.2000
     number of iterations used =            8  plain     mixing
     energy convergence thresh.=      1.0E-04
     force convergence thresh. =      1.0E-03
     press convergence thresh. =      5.0E-01
     Exchange-correlation= SLA  PW   PBX  PBC
                           (   1   4   3   4   0   0   0)
     nstep                     =         1000


     celldm(1)=   5.775097  celldm(2)=   0.000000  celldm(3)=   0.000000
     celldm(4)=   0.000000  celldm(5)=   0.000000  celldm(6)=   0.000000

     crystal axes: (cart. coord. in units of alat)
               a(1) = (   1.000000   0.000000   0.000000 )  
               a(2) = (  -0.500000   0.866025   0.000000 )  
               a(3) = (   0.000000   0.000000   1.517959 )  

     reciprocal axes: (cart. coord. in units 2 pi/alat)
               b(1) = (  1.000000  0.577350  0.000000 )  
               b(2) = (  0.000000  1.154701  0.000000 )  
               b(3) = (  0.000000  0.000000  0.658780 )  


     PseudoPot. # 1 for Mo read from file:
     ./pseudo/Mo.pbe-spn-kjpaw_psl.1.0.0.UPF
     MD5 check sum: 317bf72632116215fd98f72de1686f13
     Pseudo is Projector augmented-wave + core cor, Zval = 14.0
     Generated using 'atomic' code by A. Dal Corso  v.7.2
     Shape of augmentation charge: PSQ
     Using radial grid of 1229 points,  6 beta functions with: 
                l(1) =   0
                l(2) =   0
                l(3) =   1
                l(4) =   1
                l(5) =   2
                l(6) =   2
     Q(r) pseudized with 0 coefficients 


     PseudoPot. # 2 for C  read from file:
     ./pseudo/C.pbe-n-kjpaw_psl.1.0.0.UPF
     MD5 check sum: 6b0792899573946bb42fe395835041da
     Pseudo is Projector augmented-wave + core cor, Zval =  4.0
     Generated using 'atomic' code by A. Dal Corso  v.7.2
     Shape of augmentation charge: PSQ
     Using radial grid of 1073 points,  4 beta functions with: 
                l(1) =   0
                l(2) =   0
                l(3) =   1
                l(4) =   1
     Q(r) pseudized with 0 coefficients 


     atomic species   valence    mass     pseudopotential
        Mo            14.00    95.95000     Mo( 1.00)
        C              4.00    12.01100     C ( 1.00)

     No symmetry found



   Cartesian axes

     site n.     atom                  positions (alat units)
         1           Mo  tau(   1) = (  -0.0000000   0.5773503   0.3791381  )
         2           Mo  tau(   2) = (   0.5000000   0.2886751   1.1388204  )
         3           C   tau(   3) = (   0.0000000   0.0000000   0.7589793  )

     --------------------------------------------
     DFT-D3 Dispersion Correction (3-body terms):
     --------------------------------------------
       Reference C6 values for interpolation: 

         atom   Coordination number   C6
         C          0.000            98.23
         C          0.987            86.49
         C          1.998            58.72
         C          2.999            51.56
         C          3.984            36.41
         Mo         0.000          1691.79
         Mo         1.942          1004.01
         Mo        11.056           674.22

       Values used:

         atom   Coordination number  R0_AB[au]  C6      C8
         Mo        13.409            3.547    674.22  77634.20
         Mo        13.409            3.547    674.22  77634.20
         C          6.049            2.750     36.41   1053.14

         Molecular C6 ( Ry / a.u.^6 ) =      3344.37


     number of k points=    36  Gaussian smearing, width (Ry)=  0.0100
                       cart. coord. in units 2pi/alat
        k(    1) = (   0.0000000   0.0000000   0.0000000), wk =   0.0312500
        k(    2) = (   0.0000000   0.0000000   0.1646949), wk =   0.0625000
        k(    3) = (   0.0000000   0.0000000  -0.3293898), wk =   0.0312500
        k(    4) = (   0.0000000   0.2886751   0.0000000), wk =   0.0625000
        k(    5) = (   0.0000000   0.2886751   0.1646949), wk =   0.0625000
        k(    6) = (   0.0000000   0.2886751  -0.3293898), wk =   0.0625000
        k(    7) = (   0.0000000   0.2886751  -0.1646949), wk =   0.0625000
        k(    8) = (   0.0000000  -0.5773503   0.0000000), wk =   0.0312500
        k(    9) = (   0.0000000  -0.5773503   0.1646949), wk =   0.0625000
        k(   10) = (   0.0000000  -0.5773503  -0.3293898), wk =   0.0312500
        k(   11) = (   0.2500000   0.1443376   0.0000000), wk =   0.0625000
        k(   12) = (   0.2500000   0.1443376   0.1646949), wk =   0.0625000
        k(   13) = (   0.2500000   0.1443376  -0.3293898), wk =   0.0625000
        k(   14) = (   0.2500000   0.1443376  -0.1646949), wk =   0.0625000
        k(   15) = (   0.2500000   0.4330127   0.0000000), wk =   0.0625000
        k(   16) = (   0.2500000   0.4330127   0.1646949), wk =   0.0625000
        k(   17) = (   0.2500000   0.4330127  -0.3293898), wk =   0.0625000
        k(   18) = (   0.2500000   0.4330127  -0.1646949), wk =   0.0625000
        k(   19) = (   0.2500000  -0.4330127   0.0000000), wk =   0.0625000
        k(   20) = (   0.2500000  -0.4330127   0.1646949), wk =   0.0625000
        k(   21) = (   0.2500000  -0.4330127  -0.3293898), wk =   0.0625000
        k(   22) = (   0.2500000  -0.4330127  -0.1646949), wk =   0.0625000
        k(   23) = (   0.2500000  -0.1443376   0.0000000), wk =   0.0625000
        k(   24) = (   0.2500000  -0.1443376   0.1646949), wk =   0.0625000
        k(   25) = (   0.2500000  -0.1443376  -0.3293898), wk =   0.0625000
        k(   26) = (   0.2500000  -0.1443376  -0.1646949), wk =   0.0625000
        k(   27) = (  -0.5000000  -0.2886751   0.0000000), wk =   0.0312500
        k(   28) = (  -0.5000000  -0.2886751   0.1646949), wk =   0.0625000
        k(   29) = (  -0.5000000  -0.2886751  -0.3293898), wk =   0.0312500
        k(   30) = (  -0.5000000   0.0000000   0.0000000), wk =   0.0625000
        k(   31) = (  -0.5000000   0.0000000   0.1646949), wk =   0.0625000
        k(   32) = (  -0.5000000   0.0000000  -0.3293898), wk =   0.0625000
        k(   33) = (  -0.5000000   0.0000000  -0.1646949), wk =   0.0625000
        k(   34) = (  -0.5000000  -0.8660254   0.0000000), wk =   0.0312500
        k(   35) = (  -0.5000000  -0.8660254   0.1646949), wk =   0.0625000
        k(   36) = (  -0.5000000  -0.8660254  -0.3293898), wk =   0.0312500

     Dense  grid:    53573 G-vectors     FFT dimensions: (  45,  45,  72)

     Smooth grid:    23059 G-vectors     FFT dimensions: (  36,  36,  50)

     Estimated max dynamical RAM per process >      13.07 MB

     Estimated total dynamical RAM >     614.30 MB

     Check: negative core charge=   -0.000001

     Initial potential from superposition of free atoms

     starting charge      31.9982, renormalised to      32.0000
     Starting wfcs are   24 randomized atomic wfcs
     Checking if some PAW data can be deallocated... 

     total cpu time spent up to now is        0.4 secs

     Self-consistent Calculation

     iteration #  1     ecut=    77.00 Ry     beta= 0.20
     Davidson diagonalization with overlap
     ethr =  1.00E-02,  avg # of iterations =  2.0

     total cpu time spent up to now is        0.9 secs

     total energy              =    -746.32987247 Ry
     estimated scf accuracy    <       0.57520227 Ry

     iteration #  2     ecut=    77.00 Ry     beta= 0.20
     Davidson diagonalization with overlap
     ethr =  1.80E-03,  avg # of iterations =  2.0

     total cpu time spent up to now is        1.1 secs

     total energy              =    -746.36469282 Ry
     estimated scf accuracy    <       0.06905781 Ry

     iteration #  3     ecut=    77.00 Ry     beta= 0.20
     Davidson diagonalization with overlap
     ethr =  2.16E-04,  avg # of iterations =  4.7

     total cpu time spent up to now is        1.3 secs

     total energy              =    -746.38088481 Ry
     estimated scf accuracy    <       0.01975209 Ry

     iteration #  4     ecut=    77.00 Ry     beta= 0.20
     Davidson diagonalization with overlap
     ethr =  6.17E-05,  avg # of iterations =  4.2

     total cpu time spent up to now is        1.5 secs

     total energy              =    -746.38795585 Ry
     estimated scf accuracy    <       0.01621126 Ry

     iteration #  5     ecut=    77.00 Ry     beta= 0.20
     Davidson diagonalization with overlap
     ethr =  5.07E-05,  avg # of iterations =  1.0

     total cpu time spent up to now is        1.7 secs

     total energy              =    -746.38484267 Ry
     estimated scf accuracy    <       0.00908110 Ry

     iteration #  6     ecut=    77.00 Ry     beta= 0.20
     Davidson diagonalization with overlap
     ethr =  2.84E-05,  avg # of iterations =  3.0

     total cpu time spent up to now is        1.9 secs

     total energy              =    -746.38715502 Ry
     estimated scf accuracy    <       0.00062455 Ry

     iteration #  7     ecut=    77.00 Ry     beta= 0.20
     Davidson diagonalization with overlap
     ethr =  1.95E-06,  avg # of iterations =  5.3

     total cpu time spent up to now is        2.1 secs

     total energy              =    -746.38585623 Ry
     estimated scf accuracy    <       0.00538583 Ry

     iteration #  8     ecut=    77.00 Ry     beta= 0.20
     Davidson diagonalization with overlap
     ethr =  1.95E-06,  avg # of iterations =  4.9

     total cpu time spent up to now is        2.3 secs

     total energy              =    -746.38672660 Ry
     estimated scf accuracy    <       0.00001062 Ry

     iteration #  9     ecut=    77.00 Ry     beta= 0.20
     Davidson diagonalization with overlap
     ethr =  3.32E-08,  avg # of iterations =  4.4

     total cpu time spent up to now is        2.6 secs

     total energy              =    -746.38672673 Ry
     estimated scf accuracy    <       0.00002682 Ry

     iteration # 10     ecut=    77.00 Ry     beta= 0.20
     Davidson diagonalization with overlap
     ethr =  3.32E-08,  avg # of iterations =  4.0

     total cpu time spent up to now is        2.8 secs

     End of self-consistent calculation

          k = 0.0000 0.0000 0.0000 (  2881 PWs)   bands (ev):

   -41.5033 -41.3385 -16.0725 -15.3491 -15.3491 -15.2012 -15.2012 -15.0591
     6.9917  12.8399  15.0513  15.0513  17.5562  18.8038  18.8451  18.8451
    19.0232  19.0232  20.6279  20.6279

          k = 0.0000 0.0000 0.1647 (  2838 PWs)   bands (ev):

   -41.4796 -41.3628 -15.9338 -15.3276 -15.3276 -15.2230 -15.2230 -15.2129
     7.1879  12.7156  14.8901  14.8901  17.4730  18.3513  18.3514  18.3581
    19.7262  19.7262  21.2345  21.2345

          k = 0.0000 0.0000-0.3294 (  2820 PWs)   bands (ev):

   -41.4272 -41.4157 -15.6406 -15.5212 -15.2772 -15.2772 -15.2736 -15.2736
     7.4014  12.5519  14.7543  14.7543  17.4365  18.0112  18.0112  18.0416
    20.8077  20.8077  21.3979  21.3979

          k = 0.0000 0.2887 0.0000 (  2882 PWs)   bands (ev):

   -41.4513 -41.3282 -15.9098 -15.6338 -15.4643 -15.4531 -15.2240 -15.1488
     7.6759  13.4437  14.1474  15.0626  16.5833  17.3240  18.3307  19.1097
    20.1860  20.2048  21.9621  22.4912

          k = 0.0000 0.2887 0.1647 (  2893 PWs)   bands (ev):

   -41.4336 -41.3463 -15.8700 -15.6206 -15.4898 -15.4257 -15.2522 -15.1797
     7.7603  13.2778  14.3170  14.9132  16.2837  17.4157  18.7182  19.8384
    20.1184  20.1609  21.7791  22.0962

          k = 0.0000 0.2887-0.3294 (  2888 PWs)   bands (ev):

   -41.3944 -41.3857 -15.8017 -15.7161 -15.3543 -15.3254 -15.3248 -15.3199
     7.7511  13.4919  14.4218  15.1103  16.7958  17.0559  17.9442  19.0592
    20.6306  20.9518  21.0852  21.3746

          k = 0.0000 0.2887-0.1647 (  2893 PWs)   bands (ev):

   -41.4335 -41.3463 -15.8974 -15.5561 -15.5154 -15.4153 -15.2630 -15.1907
     7.6672  13.7546  14.1694  15.2895  16.7910  17.2113  17.8767  18.6431
    20.0233  20.2740  22.0133  22.0350

          k = 0.0000-0.5774 0.0000 (  2898 PWs)   bands (ev):

   -41.3857 -41.3312 -15.9235 -15.7240 -15.6433 -15.5446 -15.3197 -15.2576
     8.0730  13.0609  14.7471  14.9962  15.2727  17.3905  18.8037  21.2282
    22.0549  22.5664  22.6415  22.9104

          k = 0.0000-0.5774 0.1647 (  2894 PWs)   bands (ev):

   -41.3777 -41.3391 -15.9997 -15.8409 -15.5045 -15.4914 -15.2995 -15.2707
     8.0257  12.9886  14.7380  14.9842  15.8890  17.7254  18.7250  20.5460
    21.5488  21.7147  22.2437  22.7667

          k = 0.0000-0.5774-0.3294 (  2888 PWs)   bands (ev):

   -41.3604 -41.3563 -16.0072 -15.9719 -15.4240 -15.3818 -15.3217 -15.2939
     7.9816  12.9198  14.6029  15.2711  16.4645  18.2242  18.5851  19.6710
    20.7493  21.6058  22.1187  22.6747

          k = 0.2500 0.1443 0.0000 (  2882 PWs)   bands (ev):

   -41.4513 -41.3282 -15.9098 -15.6338 -15.4643 -15.4531 -15.2240 -15.1488
     7.6759  13.4437  14.1475  15.0626  16.5833  17.3240  18.3307  19.1097
    20.1860  20.2048  21.9621  22.4912

          k = 0.2500 0.1443 0.1647 (  2893 PWs)   bands (ev):

   -41.4335 -41.3463 -15.8974 -15.5561 -15.5154 -15.4153 -15.2630 -15.1907
     7.6672  13.7546  14.1694  15.2895  16.7910  17.2113  17.8767  18.6431
    20.0233  20.2740  22.0133  22.0350

          k = 0.2500 0.1443-0.3294 (  2888 PWs)   bands (ev):

   -41.3944 -41.3857 -15.8017 -15.7161 -15.3543 -15.3254 -15.3248 -15.3199
     7.7511  13.4919  14.4218  15.1103  16.7958  17.0559  17.9442  19.0592
    20.6306  20.9518  21.0852  21.3746

          k = 0.2500 0.1443-0.1647 (  2893 PWs)   bands (ev):

   -41.4336 -41.3463 -15.8700 -15.6206 -15.4898 -15.4257 -15.2522 -15.1797
     7.7603  13.2778  14.3170  14.9132  16.2837  17.4157  18.7182  19.8384
    20.1184  20.1609  21.7791  22.0962

          k = 0.2500 0.4330 0.0000 (  2900 PWs)   bands (ev):

   -41.3860 -41.3309 -15.8293 -15.7033 -15.6569 -15.5239 -15.3934 -15.3158
     8.0835  13.5875  14.5454  15.1602  16.3459  16.5383  17.6274  20.9043
    21.0750  21.9272  22.3506  23.5225

          k = 0.2500 0.4330 0.1647 (  2892 PWs)   bands (ev):

   -41.3779 -41.3389 -15.8725 -15.8202 -15.6167 -15.4809 -15.3890 -15.2376
     8.0882  13.5972  14.3198  14.9932  16.8069  17.0289  17.7897  19.9220
    20.9490  21.6194  22.5635  22.9936

          k = 0.2500 0.4330-0.3294 (  2908 PWs)   bands (ev):

   -41.3604 -41.3564 -15.9151 -15.8753 -15.5865 -15.5439 -15.2473 -15.2429
     8.0926  13.7512  13.9582  14.8770  17.5083  17.7029  17.8582  19.0102
    20.2408  21.7527  22.2405  22.8285

          k = 0.2500 0.4330-0.1647 (  2892 PWs)   bands (ev):

   -41.3779 -41.3389 -15.8725 -15.8202 -15.6167 -15.4810 -15.3890 -15.2376
     8.0882  13.5972  14.3198  14.9932  16.8069  17.0289  17.7897  19.9220
    20.9490  21.6194  22.5635  22.9936

          k = 0.2500-0.4330 0.0000 (  2900 PWs)   bands (ev):

   -41.3860 -41.3309 -15.8293 -15.7033 -15.6569 -15.5239 -15.3934 -15.3158
     8.0835  13.5875  14.5454  15.1602  16.3459  16.5383  17.6274  20.9043
    21.0750  21.9272  22.3506  23.5225

          k = 0.2500-0.4330 0.1647 (  2892 PWs)   bands (ev):

   -41.3779 -41.3389 -15.8725 -15.8202 -15.6167 -15.4810 -15.3890 -15.2376
     8.0882  13.5972  14.3198  14.9932  16.8069  17.0289  17.7897  19.9220
    20.9490  21.6194  22.5635  22.9936

          k = 0.2500-0.4330-0.3294 (  2908 PWs)   bands (ev):

   -41.3604 -41.3564 -15.9151 -15.8753 -15.5865 -15.5439 -15.2473 -15.2429
     8.0926  13.7512  13.9582  14.8770  17.5083  17.7029  17.8582  19.0102
    20.2408  21.7527  22.2405  22.8285

          k = 0.2500-0.4330-0.1647 (  2892 PWs)   bands (ev):

   -41.3779 -41.3389 -15.8725 -15.8202 -15.6167 -15.4809 -15.3890 -15.2376
     8.0882  13.5972  14.3198  14.9932  16.8069  17.0289  17.7897  19.9220
    20.9490  21.6194  22.5635  22.9936

          k = 0.2500-0.1443 0.0000 (  2882 PWs)   bands (ev):

   -41.4513 -41.3282 -15.9098 -15.6338 -15.4643 -15.4531 -15.2240 -15.1488
     7.6759  13.4437  14.1475  15.0626  16.5833  17.3240  18.3307  19.1097
    20.1860  20.2048  21.9621  22.4912

          k = 0.2500-0.1443 0.1647 (  2893 PWs)   bands (ev):

   -41.4336 -41.3463 -15.8700 -15.6206 -15.4898 -15.4257 -15.2522 -15.1797
     7.7603  13.2778  14.3170  14.9132  16.2837  17.4157  18.7182  19.8384
    20.1184  20.1609  21.7791  22.0962

          k = 0.2500-0.1443-0.3294 (  2888 PWs)   bands (ev):

   -41.3944 -41.3857 -15.8017 -15.7161 -15.3543 -15.3254 -15.3248 -15.3199
     7.7511  13.4919  14.4218  15.1103  16.7958  17.0559  17.9442  19.0592
    20.6306  20.9518  21.0852  21.3746

          k = 0.2500-0.1443-0.1647 (  2893 PWs)   bands (ev):

   -41.4335 -41.3463 -15.8974 -15.5561 -15.5154 -15.4153 -15.2630 -15.1907
     7.6672  13.7546  14.1694  15.2895  16.7910  17.2113  17.8767  18.6431
    20.0233  20.2740  22.0133  22.0350

          k =-0.5000-0.2887 0.0000 (  2898 PWs)   bands (ev):

   -41.3857 -41.3312 -15.9235 -15.7240 -15.6433 -15.5446 -15.3197 -15.2576
     8.0730  13.0609  14.7471  14.9962  15.2727  17.3905  18.8037  21.2282
    22.0549  22.5664  22.6415  22.9105

          k =-0.5000-0.2887 0.1647 (  2894 PWs)   bands (ev):

   -41.3777 -41.3391 -15.9997 -15.8409 -15.5045 -15.4914 -15.2995 -15.2707
     8.0257  12.9886  14.7380  14.9842  15.8890  17.7254  18.7250  20.5460
    21.5488  21.7147  22.2437  22.7667

          k =-0.5000-0.2887-0.3294 (  2888 PWs)   bands (ev):

   -41.3604 -41.3563 -16.0073 -15.9719 -15.4240 -15.3818 -15.3217 -15.2939
     7.9816  12.9198  14.6029  15.2711  16.4645  18.2242  18.5851  19.6710
    20.7493  21.6058  22.1187  22.6747

          k =-0.5000 0.0000 0.0000 (  2900 PWs)   bands (ev):

   -41.3860 -41.3309 -15.8293 -15.7033 -15.6569 -15.5239 -15.3934 -15.3158
     8.0835  13.5875  14.5454  15.1602  16.3459  16.5383  17.6274  20.9043
    21.0750  21.9272  22.3506  23.5225

          k =-0.5000 0.0000 0.1647 (  2892 PWs)   bands (ev):

   -41.3779 -41.3389 -15.8725 -15.8202 -15.6167 -15.4810 -15.3890 -15.2376
     8.0882  13.5972  14.3198  14.9932  16.8069  17.0289  17.7897  19.9220
    20.9490  21.6194  22.5635  22.9936

          k =-0.5000 0.0000-0.3294 (  2908 PWs)   bands (ev):

   -41.3604 -41.3564 -15.9151 -15.8753 -15.5865 -15.5439 -15.2473 -15.2429
     8.0926  13.7512  13.9582  14.8770  17.5083  17.7029  17.8582  19.0102
    20.2408  21.7527  22.2405  22.8285

          k =-0.5000 0.0000-0.1647 (  2892 PWs)   bands (ev):

   -41.3779 -41.3389 -15.8725 -15.8202 -15.6167 -15.4810 -15.3890 -15.2376
     8.0882  13.5972  14.3198  14.9932  16.8069  17.0289  17.7897  19.9220
    20.9490  21.6194  22.5635  22.9936

          k =-0.5000-0.8660 0.0000 (  2898 PWs)   bands (ev):

   -41.3857 -41.3312 -15.9235 -15.7240 -15.6433 -15.5446 -15.3197 -15.2576
     8.0730  13.0609  14.7471  14.9962  15.2727  17.3905  18.8037  21.2282
    22.0549  22.5665  22.6415  22.9106

          k =-0.5000-0.8660 0.1647 (  2894 PWs)   bands (ev):

   -41.3777 -41.3391 -15.9997 -15.8409 -15.5045 -15.4914 -15.2995 -15.2707
     8.0257  12.9886  14.7380  14.9842  15.8890  17.7254  18.7250  20.5460
    21.5488  21.7147  22.2437  22.7668

          k =-0.5000-0.8660-0.3294 (  2888 PWs)   bands (ev):

   -41.3604 -41.3563 -16.0073 -15.9719 -15.4240 -15.3818 -15.3217 -15.2939
     7.9816  12.9198  14.6029  15.2711  16.4645  18.2242  18.5851  19.6710
    20.7493  21.6058  22.1187  22.6747

     the Fermi energy is    20.0821 ev

!    total energy              =    -746.38673056 Ry
     total all-electron energy =    -16272.406770 Ry
     estimated scf accuracy    <       0.00000032 Ry
     smearing contrib. (-TS)   =      -0.00233368 Ry
     internal energy E=F+TS    =    -746.38439688 Ry

     The total energy is F=E-TS. E is the sum of the following terms:
     one-electron contribution =     -34.23956814 Ry
     hartree contribution      =      39.89229946 Ry
     xc contribution           =     -43.60226288 Ry
     ewald contribution        =    -247.41169672 Ry
     DFT-D3 Dispersion         =      -0.10589105 Ry
     one-center paw contrib.   =    -460.91727755 Ry

     convergence has been achieved in  10 iterations

     Forces acting on atoms (cartesian axes, Ry/au):

     atom    1 type  1   force =    -0.00000111   -0.00000512    0.01987593
     atom    2 type  1   force =    -0.00000316    0.00000888   -0.01989593
     atom    3 type  2   force =     0.00000427   -0.00000376    0.00001999
     The non-local contrib.  to forces
     atom    1 type  1   force =     0.00000693   -0.00000686   -0.08722156
     atom    2 type  1   force =     0.00000959   -0.00001174    0.08724134
     atom    3 type  2   force =    -0.00000123   -0.00000342    0.00001379
     The ionic contribution  to forces
     atom    1 type  1   force =     0.00000013   -0.00000008   -8.35560697
     atom    2 type  1   force =    -0.00000013    0.00000008    8.35560697
     atom    3 type  2   force =    -0.00000000    0.00000000    0.00000000
     The local contribution  to forces
     atom    1 type  1   force =    -0.00000632   -0.00001234    8.46131952
     atom    2 type  1   force =    -0.00000235    0.00000969   -8.46132380
     atom    3 type  2   force =    -0.00000425    0.00001017    0.00011421
     The core correction contribution to forces
     atom    1 type  1   force =    -0.00000042    0.00000023    0.00322026
     atom    2 type  1   force =    -0.00000059    0.00000078   -0.00322077
     atom    3 type  2   force =    -0.00000006    0.00000012   -0.00000030
     The Hubbard contrib.    to forces
     atom    1 type  1   force =     0.00000000    0.00000000    0.00000000
     atom    2 type  1   force =     0.00000000    0.00000000    0.00000000
     atom    3 type  2   force =     0.00000000    0.00000000    0.00000000
     The SCF correction term to forces
     atom    1 type  1   force =    -0.00000819    0.00002079   -0.00127391
     atom    2 type  1   force =    -0.00001643    0.00001692    0.00124266
     atom    3 type  2   force =     0.00000304   -0.00000378   -0.00010583

     DFT-D3 dispersion contribution to forces:
     atom    1 type  1   force =    -0.00000000    0.00000000   -0.00055954
     atom    2 type  1   force =     0.00000000   -0.00000000    0.00055954
     atom    3 type  2   force =    -0.00000000   -0.00000000    0.00000000

     Total force =     0.028123     Total SCF correction =     0.001783


     Computing stress (Cartesian axis) and pressure

          total   stress  (Ry/bohr**3)                   (kbar)     P=      -29.64
  -0.00004344   0.00000003   0.00000005           -6.39        0.00        0.01
   0.00000003  -0.00004345   0.00000002            0.00       -6.39        0.00
   0.00000005   0.00000002  -0.00051751            0.01        0.00      -76.13


     BFGS Geometry Optimization
     Energy error            =      0.0E+00 Ry
     Gradient error          =      2.0E-02 Ry/Bohr
     Cell gradient error     =      7.6E+01 kbar

     number of scf cycles    =   1
     number of bfgs steps    =   0

     enthalpy           new  =    -746.3867305555 Ry

     new trust radius        =       0.0411736803 bohr
     new conv_thr            =       0.0000010000 Ry

     new unit-cell volume =    249.38433 a.u.^3 (    36.95494 Ang^3 )
     density =      9.16257 g/cm^3

CELL_PARAMETERS (angstrom)
   3.052731105   0.000002092   0.000003527
  -1.526363741   2.643741049  -0.000000635
   0.000005353   0.000001977   4.578939636

ATOMIC_POSITIONS (angstrom)
Mo            0.0000019557        1.7624925308        1.1540571304
Mo            1.5263685060        0.8812545724        3.4248749547
C             0.0000049318       -0.0000009968        2.2894802611



     Writing config-only to output data dir ./outdir/pwscf.save/
     NEW-OLD atomic charge density approx. for the potential

     Check: negative core charge=   -0.000001
     extrapolated charge   31.51006, renormalised to   32.00000

     total cpu time spent up to now is        3.8 secs

     Self-consistent Calculation

     iteration #  1     ecut=    77.00 Ry     beta= 0.20
     Davidson diagonalization with overlap
     ethr =  1.00E-06,  avg # of iterations =  7.4

     total cpu time spent up to now is        4.4 secs

     total energy              =    -746.37057732 Ry
     estimated scf accuracy    <       0.01968295 Ry

     iteration #  2     ecut=    77.00 Ry     beta= 0.20
     Davidson diagonalization with overlap
     ethr =  6.15E-05,  avg # of iterations =  3.1

     total cpu time spent up to now is        4.6 secs

     total energy              =    -746.38870098 Ry
     estimated scf accuracy    <       0.00310456 Ry

     iteration #  3     ecut=    77.00 Ry     beta= 0.20
     Davidson diagonalization with overlap
     ethr =  9.70E-06,  avg # of iterations =  2.2

     total cpu time spent up to now is        4.8 secs

     total energy              =    -746.38826073 Ry
     estimated scf accuracy    <       0.00184670 Ry

     iteration #  4     ecut=    77.00 Ry     beta= 0.20
     Davidson diagonalization with overlap
     ethr =  5.77E-06,  avg # of iterations =  1.5

     total cpu time spent up to now is        5.0 secs

     total energy              =    -746.38790860 Ry
     estimated scf accuracy    <       0.00071727 Ry

     iteration #  5     ecut=    77.00 Ry     beta= 0.20
     Davidson diagonalization with overlap
     ethr =  2.24E-06,  avg # of iterations =  2.0

     total cpu time spent up to now is        5.1 secs

     total energy              =    -746.38801709 Ry
     estimated scf accuracy    <       0.00006592 Ry

     iteration #  6     ecut=    77.00 Ry     beta= 0.20
     Davidson diagonalization with overlap
     ethr =  2.06E-07,  avg # of iterations =  1.6

     total cpu time spent up to now is        5.3 secs

     total energy              =    -746.38797015 Ry
     estimated scf accuracy    <       0.00004849 Ry

     iteration #  7     ecut=    77.00 Ry     beta= 0.20
     Davidson diagonalization with overlap
     ethr =  1.52E-07,  avg # of iterations =  2.2

     total cpu time spent up to now is        5.5 secs

     total energy              =    -746.38796499 Ry
     estimated scf accuracy    <       0.00003871 Ry

     iteration #  8     ecut=    77.00 Ry     beta= 0.20
     Davidson diagonalization with overlap
     ethr =  1.21E-07,  avg # of iterations =  2.0

     total cpu time spent up to now is        5.6 secs

     total energy              =    -746.38796214 Ry
     estimated scf accuracy    <       0.00000643 Ry

     iteration #  9     ecut=    77.00 Ry     beta= 0.20
     Davidson diagonalization with overlap
     ethr =  2.01E-08,  avg # of iterations =  4.2

     total cpu time spent up to now is        5.9 secs

     total energy              =    -746.38796365 Ry
     estimated scf accuracy    <       0.00001412 Ry

     iteration # 10     ecut=    77.00 Ry     beta= 0.20
     Davidson diagonalization with overlap
     ethr =  2.01E-08,  avg # of iterations =  3.6

     total cpu time spent up to now is        6.1 secs

     End of self-consistent calculation

          k = 0.0000 0.0000 0.0000 (  2881 PWs)   bands (ev):

   -41.1577 -40.9734 -15.7649 -15.0092 -15.0092 -14.8446 -14.8446 -14.6738
     7.2869  13.0557  15.1849  15.1849  17.9677  19.1183  19.1183  19.2580
    19.3180  19.3180  21.0518  21.0518

          k =-0.0000-0.0000 0.1669 (  2838 PWs)   bands (ev):

   -41.1317 -41.0002 -15.6180 -14.9853 -14.9853 -14.8688 -14.8688 -14.8378
     7.4927  12.9504  15.0223  15.0223  17.9039  18.6066  18.6066  18.7467
    20.0485  20.0486  21.6772  21.6773

          k = 0.0000 0.0000-0.3337 (  2820 PWs)   bands (ev):

   -41.0790 -41.0537 -15.3228 -15.1500 -14.9312 -14.9312 -14.9231 -14.9231
     7.7171  12.8047  14.8851  14.8852  17.9017  18.2534  18.2534  18.3641
    21.1646  21.1647  21.8407  21.8407

          k =-0.0000 0.2890-0.0000 (  2882 PWs)   bands (ev):

   -41.1026 -40.9649 -15.5958 -15.3017 -15.1193 -15.1105 -14.8640 -14.7729
     7.9690  13.6444  14.4087  15.2307  16.8987  17.6442  18.6395  19.3629
    20.5200  20.6117  22.4017  22.9950

          k =-0.0000 0.2890 0.1669 (  2893 PWs)   bands (ev):

   -41.0831 -40.9847 -15.5547 -15.2950 -15.1294 -15.0893 -14.8951 -14.8056
     8.0570  13.4887  14.5855  15.0766  16.5636  17.7389  19.0990  20.1271
    20.4661  20.4696  22.2123  22.5925

          k = 0.0000 0.2890-0.3337 (  2888 PWs)   bands (ev):

   -41.0436 -41.0246 -15.4879 -15.3864 -15.0167 -14.9691 -14.9655 -14.9482
     8.0458  13.7156  14.6904  15.2749  17.0429  17.4154  18.3019  19.3083
    21.0099  21.3622  21.5274  21.7818

          k =-0.0000 0.2890-0.1669 (  2893 PWs)   bands (ev):

   -41.0830 -40.9848 -15.5859 -15.2101 -15.1735 -15.0785 -14.9063 -14.8146
     7.9584  13.9661  14.4332  15.4589  17.0889  17.5605  18.1737  18.8821
    20.3742  20.7297  22.4612  22.4815

          k = 0.0000-0.5780 0.0000 (  2898 PWs)   bands (ev):

   -41.0322 -40.9712 -15.6026 -15.3954 -15.2919 -15.2155 -14.9574 -14.8957
     8.3305  13.3423  14.9429  15.3722  15.5357  17.6903  19.1080  21.4869
    22.4052  23.1080  23.1605  23.2222

          k = 0.0000-0.5780 0.1669 (  2894 PWs)   bands (ev):

   -41.0234 -40.9799 -15.6870 -15.5142 -15.1722 -15.1365 -14.9412 -14.9006
     8.2821  13.2639  15.0928  15.1844  16.1737  18.0280  19.0587  20.9082
    21.8377  22.2819  22.6135  23.0706

          k = 0.0000-0.5780-0.3337 (  2888 PWs)   bands (ev):

   -41.0060 -40.9973 -15.6976 -15.6545 -15.0912 -15.0242 -14.9566 -14.9207
     8.2369  13.1946  14.9509  15.4754  16.7305  18.5462  18.9528  20.0400
    21.2969  21.8773  22.4799  22.9583

          k = 0.2503 0.1445-0.0000 (  2882 PWs)   bands (ev):

   -41.1026 -40.9649 -15.5958 -15.3017 -15.1193 -15.1105 -14.8640 -14.7729
     7.9690  13.6444  14.4087  15.2307  16.8987  17.6442  18.6395  19.3629
    20.5200  20.6117  22.4017  22.9951

          k = 0.2503 0.1445 0.1669 (  2893 PWs)   bands (ev):

   -41.0830 -40.9848 -15.5859 -15.2101 -15.1735 -15.0785 -14.9063 -14.8146
     7.9584  13.9661  14.4332  15.4589  17.0889  17.5605  18.1737  18.8821
    20.3742  20.7298  22.4612  22.4815

          k = 0.2503 0.1445-0.3337 (  2888 PWs)   bands (ev):

   -41.0436 -41.0246 -15.4879 -15.3865 -15.0167 -14.9691 -14.9655 -14.9482
     8.0458  13.7156  14.6904  15.2749  17.0429  17.4154  18.3019  19.3083
    21.0099  21.3622  21.5274  21.7818

          k = 0.2503 0.1445-0.1669 (  2893 PWs)   bands (ev):

   -41.0831 -40.9847 -15.5547 -15.2950 -15.1294 -15.0893 -14.8951 -14.8056
     8.0570  13.4887  14.5855  15.0766  16.5636  17.7389  19.0990  20.1271
    20.4661  20.4696  22.2123  22.5925

          k = 0.2503 0.4335-0.0000 (  2900 PWs)   bands (ev):

   -41.0325 -40.9709 -15.5111 -15.3693 -15.3288 -15.1710 -15.0365 -14.9524
     8.3450  13.8743  14.8108  15.4770  16.6049  16.7616  17.9490  21.2530
    21.4993  22.4232  22.6503  23.8918

          k = 0.2503 0.4335 0.1669 (  2892 PWs)   bands (ev):

   -41.0237 -40.9797 -15.5581 -15.4949 -15.2891 -15.1234 -15.0307 -14.8663
     8.3509  13.8789  14.5780  15.3015  17.0514  17.3247  18.1306  20.2371
    21.3598  21.9987  22.8880  23.4075

          k = 0.2503 0.4335-0.3337 (  2908 PWs)   bands (ev):

   -41.0060 -40.9973 -15.6029 -15.5567 -15.2600 -15.1903 -14.8784 -14.8676
     8.3562  14.0464  14.1963  15.1790  17.7889  18.0407  18.2368  19.2716
    20.5710  22.0413  22.7041  23.1841

          k = 0.2503 0.4335-0.1669 (  2892 PWs)   bands (ev):

   -41.0237 -40.9797 -15.5581 -15.4949 -15.2891 -15.1234 -15.0307 -14.8663
     8.3509  13.8789  14.5780  15.3015  17.0514  17.3247  18.1306  20.2371
    21.3598  21.9987  22.8880  23.4075

          k = 0.2503-0.4335-0.0000 (  2900 PWs)   bands (ev):

   -41.0325 -40.9709 -15.5111 -15.3693 -15.3288 -15.1710 -15.0365 -14.9524
     8.3450  13.8743  14.8108  15.4770  16.6049  16.7617  17.9490  21.2530
    21.4993  22.4232  22.6503  23.8917

          k = 0.2503-0.4335 0.1669 (  2892 PWs)   bands (ev):

   -41.0237 -40.9797 -15.5581 -15.4949 -15.2891 -15.1234 -15.0307 -14.8663
     8.3509  13.8789  14.5780  15.3015  17.0514  17.3247  18.1306  20.2371
    21.3598  21.9987  22.8880  23.4075

          k = 0.2503-0.4335-0.3337 (  2908 PWs)   bands (ev):

   -41.0060 -40.9973 -15.6029 -15.5567 -15.2600 -15.1903 -14.8784 -14.8676
     8.3562  14.0464  14.1963  15.1790  17.7889  18.0407  18.2368  19.2715
    20.5710  22.0413  22.7041  23.1841

          k = 0.2503-0.4335-0.1669 (  2892 PWs)   bands (ev):

   -41.0237 -40.9797 -15.5581 -15.4949 -15.2891 -15.1234 -15.0307 -14.8663
     8.3509  13.8789  14.5780  15.3015  17.0514  17.3247  18.1306  20.2371
    21.3598  21.9987  22.8880  23.4075

          k = 0.2503-0.1445-0.0000 (  2882 PWs)   bands (ev):

   -41.1026 -40.9649 -15.5958 -15.3017 -15.1193 -15.1105 -14.8640 -14.7729
     7.9690  13.6444  14.4087  15.2307  16.8987  17.6442  18.6395  19.3629
    20.5200  20.6117  22.4017  22.9951

          k = 0.2503-0.1445 0.1669 (  2893 PWs)   bands (ev):

   -41.0831 -40.9847 -15.5547 -15.2950 -15.1294 -15.0893 -14.8951 -14.8056
     8.0570  13.4887  14.5855  15.0766  16.5636  17.7389  19.0990  20.1271
    20.4661  20.4696  22.2123  22.5925

          k = 0.2503-0.1445-0.3337 (  2888 PWs)   bands (ev):

   -41.0436 -41.0246 -15.4879 -15.3865 -15.0167 -14.9691 -14.9655 -14.9482
     8.0458  13.7156  14.6904  15.2749  17.0429  17.4154  18.3019  19.3083
    21.0099  21.3622  21.5274  21.7818

          k = 0.2503-0.1445-0.1669 (  2893 PWs)   bands (ev):

   -41.0830 -40.9848 -15.5859 -15.2101 -15.1735 -15.0785 -14.9063 -14.8146
     7.9584  13.9661  14.4332  15.4589  17.0889  17.5605  18.1737  18.8821
    20.3742  20.7297  22.4612  22.4815

          k =-0.5005-0.2890 0.0000 (  2898 PWs)   bands (ev):

   -41.0322 -40.9712 -15.6026 -15.3954 -15.2919 -15.2155 -14.9574 -14.8957
     8.3305  13.3423  14.9429  15.3721  15.5357  17.6903  19.1080  21.4869
    22.4052  23.1080  23.1606  23.2222

          k =-0.5005-0.2890 0.1669 (  2894 PWs)   bands (ev):

   -41.0234 -40.9799 -15.6870 -15.5142 -15.1722 -15.1365 -14.9412 -14.9006
     8.2821  13.2638  15.0928  15.1844  16.1737  18.0280  19.0587  20.9082
    21.8377  22.2820  22.6135  23.0706

          k =-0.5005-0.2890-0.3337 (  2888 PWs)   bands (ev):

   -41.0060 -40.9973 -15.6976 -15.6545 -15.0912 -15.0242 -14.9566 -14.9207
     8.2369  13.1946  14.9509  15.4754  16.7305  18.5461  18.9528  20.0400
    21.2969  21.8772  22.4799  22.9585

          k =-0.5005 0.0000 0.0000 (  2900 PWs)   bands (ev):

   -41.0325 -40.9709 -15.5111 -15.3693 -15.3288 -15.1710 -15.0365 -14.9524
     8.3450  13.8743  14.8108  15.4770  16.6049  16.7617  17.9490  21.2529
    21.4993  22.4232  22.6503  23.8917

          k =-0.5005 0.0000 0.1669 (  2892 PWs)   bands (ev):

   -41.0237 -40.9797 -15.5581 -15.4949 -15.2891 -15.1234 -15.0307 -14.8663
     8.3509  13.8789  14.5780  15.3015  17.0514  17.3247  18.1306  20.2370
    21.3598  21.9987  22.8880  23.4075

          k =-0.5005 0.0000-0.3337 (  2908 PWs)   bands (ev):

   -41.0060 -40.9973 -15.6029 -15.5567 -15.2600 -15.1903 -14.8784 -14.8676
     8.3562  14.0464  14.1963  15.1790  17.7889  18.0407  18.2368  19.2715
    20.5710  22.0414  22.7041  23.1841

          k =-0.5005 0.0000-0.1669 (  2892 PWs)   bands (ev):

   -41.0237 -40.9797 -15.5581 -15.4949 -15.2891 -15.1234 -15.0307 -14.8663
     8.3509  13.8789  14.5780  15.3014  17.0514  17.3247  18.1306  20.2370
    21.3598  21.9987  22.8880  23.4075

          k =-0.5005-0.8670 0.0000 (  2898 PWs)   bands (ev):

   -41.0322 -40.9712 -15.6026 -15.3954 -15.2919 -15.2155 -14.9574 -14.8957
     8.3305  13.3423  14.9429  15.3722  15.5357  17.6903  19.1080  21.4869
    22.4052  23.1080  23.1606  23.2222

          k =-0.5005-0.8670 0.1669 (  2894 PWs)   bands (ev):

   -41.0234 -40.9799 -15.6870 -15.5142 -15.1722 -15.1365 -14.9412 -14.9006
     8.2821  13.2639  15.0928  15.1844  16.1737  18.0280  19.0587  20.9082
    21.8377  22.2819  22.6135  23.0706

          k =-0.5005-0.8670-0.3337 (  2888 PWs)   bands (ev):

   -41.0060 -40.9973 -15.6976 -15.6545 -15.0912 -15.0242 -14.9566 -14.9207
     8.2369  13.1946  14.9509  15.4754  16.7305  18.5462  18.9528  20.0400
    21.2969  21.8773  22.4799  22.9583

     the Fermi energy is    20.4215 ev

!    total energy              =    -746.38796505 Ry
     total all-electron energy =    -16272.408005 Ry
     estimated scf accuracy    <       0.00000098 Ry
     smearing contrib. (-TS)   =      -0.00213346 Ry
     internal energy E=F+TS    =    -746.38583160 Ry

     The total energy is F=E-TS. E is the sum of the following terms:
     one-electron contribution =     -33.07852973 Ry
     hartree contribution      =      39.73107306 Ry
     xc contribution           =     -43.66510965 Ry
     ewald contribution        =    -248.34469637 Ry
     DFT-D3 Dispersion         =      -0.10739680 Ry
     one-center paw contrib.   =    -460.92117212 Ry

     convergence has been achieved in  10 iterations

     Forces acting on atoms (cartesian axes, Ry/au):

     atom    1 type  1   force =     0.00000161    0.00000069    0.00466109
     atom    2 type  1   force =     0.00000039   -0.00000213   -0.00464883
     atom    3 type  2   force =    -0.00000200    0.00000144   -0.00001226
     The non-local contrib.  to forces
     atom    1 type  1   force =    -0.00000093   -0.00000099   -0.08086831
     atom    2 type  1   force =    -0.00000090    0.00000159    0.08085856
     atom    3 type  2   force =    -0.00000351    0.00000444   -0.00001496
     The ionic contribution  to forces
     atom    1 type  1   force =     0.00003172    0.00002942   -8.96774492
     atom    2 type  1   force =    -0.00000429   -0.00005357    8.96782499
     atom    3 type  2   force =    -0.00002743    0.00002415   -0.00008007
     The local contribution  to forces
     atom    1 type  1   force =    -0.00002941   -0.00002790    9.05528646
     atom    2 type  1   force =     0.00000587    0.00005015   -9.05533658
     atom    3 type  2   force =     0.00002871   -0.00002706    0.00002990
     The core correction contribution to forces
     atom    1 type  1   force =     0.00000006    0.00000006    0.00283146
     atom    2 type  1   force =     0.00000004   -0.00000012   -0.00283085
     atom    3 type  2   force =     0.00000008   -0.00000011    0.00000035
     The Hubbard contrib.    to forces
     atom    1 type  1   force =     0.00000000    0.00000000    0.00000000
     atom    2 type  1   force =     0.00000000    0.00000000    0.00000000
     atom    3 type  2   force =     0.00000000    0.00000000    0.00000000
     The SCF correction term to forces
     atom    1 type  1   force =     0.00000009    0.00000018   -0.00426540
     atom    2 type  1   force =    -0.00000039   -0.00000011    0.00425543
     atom    3 type  2   force =     0.00000008    0.00000010    0.00005180

     DFT-D3 dispersion contribution to forces:
     atom    1 type  1   force =     0.00000000   -0.00000000   -0.00057892
     atom    2 type  1   force =    -0.00000000    0.00000000    0.00057892
     atom    3 type  2   force =     0.00000000   -0.00000000   -0.00000000

     Total force =     0.006583     Total SCF correction =     0.006025
     SCF correction compared to forces is large: reduce conv_thr to get better values


     Computing stress (Cartesian axis) and pressure

          total   stress  (Ry/bohr**3)                   (kbar)     P=       29.68
   0.00028088  -0.00000002  -0.00000003           41.32       -0.00       -0.00
  -0.00000002   0.00028090  -0.00000003           -0.00       41.32       -0.01
  -0.00000003  -0.00000003   0.00004359           -0.00       -0.01        6.41

     Energy error            =      1.2E-03 Ry
     Gradient error          =      4.7E-03 Ry/Bohr
     Cell gradient error     =      4.1E+01 kbar

     number of scf cycles    =   2
     number of bfgs steps    =   1

     enthalpy           old  =    -746.3867305555 Ry
     enthalpy           new  =    -746.3879650525 Ry

     CASE: enthalpy          _new < enthalpy          _old

     new trust radius        =       0.0196776431 bohr
     new conv_thr            =       0.0000000466 Ry

     new unit-cell volume =    251.53499 a.u.^3 (    37.27364 Ang^3 )
     density =      9.08423 g/cm^3

CELL_PARAMETERS (angstrom)
   3.071749397   0.000001722   0.000002680
  -1.535873207   2.660212523  -0.000001947
   0.000003998  -0.000001121   4.561414660

ATOMIC_POSITIONS (angstrom)
Mo            0.0000020036        1.7734719287        1.1557827059
Mo            1.5358760857        0.8867432027        3.4056244386
C             0.0000040978       -0.0000025685        2.2807155779



     Writing config-only to output data dir ./outdir/pwscf.save/
     NEW-OLD atomic charge density approx. for the potential

     Check: negative core charge=   -0.000001
     extrapolated charge   32.27359, renormalised to   32.00000

     total cpu time spent up to now is        7.1 secs

     Self-consistent Calculation

     iteration #  1     ecut=    77.00 Ry     beta= 0.20
     Davidson diagonalization with overlap
     ethr =  1.00E-06,  avg # of iterations =  7.7

     total cpu time spent up to now is        7.7 secs

     total energy              =    -746.38303048 Ry
     estimated scf accuracy    <       0.00611084 Ry

     iteration #  2     ecut=    77.00 Ry     beta= 0.20
     Davidson diagonalization with overlap
     ethr =  1.91E-05,  avg # of iterations =  3.1

     total cpu time spent up to now is        8.0 secs

     total energy              =    -746.38870615 Ry
     estimated scf accuracy    <       0.00119027 Ry

     iteration #  3     ecut=    77.00 Ry     beta= 0.20
     Davidson diagonalization with overlap
     ethr =  3.72E-06,  avg # of iterations =  2.1

     total cpu time spent up to now is        8.1 secs

     total energy              =    -746.38847498 Ry
     estimated scf accuracy    <       0.00069980 Ry

     iteration #  4     ecut=    77.00 Ry     beta= 0.20
     Davidson diagonalization with overlap
     ethr =  2.19E-06,  avg # of iterations =  2.0

     total cpu time spent up to now is        8.3 secs

     total energy              =    -746.38843124 Ry
     estimated scf accuracy    <       0.00015536 Ry

     iteration #  5     ecut=    77.00 Ry     beta= 0.20
     Davidson diagonalization with overlap
     ethr =  4.86E-07,  avg # of iterations =  2.3

     total cpu time spent up to now is        8.4 secs

     total energy              =    -746.38845605 Ry
     estimated scf accuracy    <       0.00001289 Ry

     iteration #  6     ecut=    77.00 Ry     beta= 0.20
     Davidson diagonalization with overlap
     ethr =  4.03E-08,  avg # of iterations =  3.1

     total cpu time spent up to now is        8.6 secs

     total energy              =    -746.38845206 Ry
     estimated scf accuracy    <       0.00000790 Ry

     iteration #  7     ecut=    77.00 Ry     beta= 0.20
     Davidson diagonalization with overlap
     ethr =  2.47E-08,  avg # of iterations =  5.1

     total cpu time spent up to now is        8.9 secs

     total energy              =    -746.38844633 Ry
     estimated scf accuracy    <       0.00005439 Ry

     iteration #  8     ecut=    77.00 Ry     beta= 0.20
     Davidson diagonalization with overlap
     ethr =  2.47E-08,  avg # of iterations =  3.3

     total cpu time spent up to now is        9.1 secs

     total energy              =    -746.38844461 Ry
     estimated scf accuracy    <       0.00001045 Ry

     iteration #  9     ecut=    77.00 Ry     beta= 0.20
     Davidson diagonalization with overlap
     ethr =  2.47E-08,  avg # of iterations =  3.4

     total cpu time spent up to now is        9.3 secs

     total energy              =    -746.38844726 Ry
     estimated scf accuracy    <       0.00000122 Ry

     iteration # 10     ecut=    77.00 Ry     beta= 0.20
     Davidson diagonalization with overlap
     ethr =  3.81E-09,  avg # of iterations =  2.5

     total cpu time spent up to now is        9.5 secs

     total energy              =    -746.38844762 Ry
     estimated scf accuracy    <       0.00000006 Ry

     iteration # 11     ecut=    77.00 Ry     beta= 0.20
     Davidson diagonalization with overlap
     ethr =  1.88E-10,  avg # of iterations =  3.1

     total cpu time spent up to now is        9.7 secs

     End of self-consistent calculation

          k = 0.0000 0.0000 0.0000 (  2881 PWs)   bands (ev):

   -41.3666 -41.1819 -15.9596 -15.2352 -15.2352 -15.0663 -15.0663 -14.8801
     7.1341  12.9005  14.9448  14.9448  17.7920  18.8732  18.8732  19.1169
    19.1169  19.1839  20.8809  20.8810

          k =-0.0000 0.0000 0.1675 (  2838 PWs)   bands (ev):

   -41.3409 -41.2083 -15.8156 -15.2109 -15.2109 -15.0909 -15.0909 -15.0409
     7.3384  12.7970  14.7834  14.7834  17.7658  18.3781  18.3781  18.6368
    19.8309  19.8309  21.5056  21.5056

          k = 0.0000-0.0000-0.3350 (  2820 PWs)   bands (ev):

   -41.2910 -41.2589 -15.5333 -15.3399 -15.1588 -15.1588 -15.1433 -15.1433
     7.5609  12.6534  14.6472  14.6473  17.8450  18.0230  18.0230  18.1829
    20.9499  20.9499  21.6590  21.6590

          k =-0.0000 0.2872 0.0000 (  2882 PWs)   bands (ev):

   -41.3138 -41.1758 -15.7965 -15.5113 -15.3419 -15.3151 -15.0819 -14.9801
     7.8030  13.4603  14.2493  15.0072  16.7542  17.4779  18.4357  19.1081
    20.2981  20.4497  22.2025  22.8415

          k =-0.0000 0.2872 0.1675 (  2893 PWs)   bands (ev):

   -41.2945 -41.1954 -15.7581 -15.5069 -15.3294 -15.3116 -15.1133 -15.0124
     7.8910  13.3101  14.4268  14.8510  16.4067  17.5758  18.9341  19.8724
    20.2407  20.2630  22.0167  22.4368

          k = 0.0000 0.2872-0.3350 (  2888 PWs)   bands (ev):

   -41.2572 -41.2331 -15.6955 -15.5927 -15.2414 -15.1849 -15.1737 -15.1482
     7.8828  13.5379  14.5235  15.0454  16.8494  17.2889  18.1461  19.0513
    20.8056  21.1567  21.3806  21.5793

          k =-0.0000 0.2872-0.1675 (  2893 PWs)   bands (ev):

   -41.2944 -41.1955 -15.7896 -15.4187 -15.3786 -15.3014 -15.1239 -15.0193
     7.7953  13.7871  14.2612  15.2310  16.9079  17.4208  17.9989  18.6271
    20.1640  20.5981  22.2664  22.2882

          k = 0.0000-0.5744-0.0000 (  2898 PWs)   bands (ev):

   -41.2457 -41.1846 -15.7980 -15.5995 -15.4838 -15.4349 -15.1636 -15.1097
     8.1588  13.1989  14.7425  15.2777  15.3935  17.4843  18.8857  21.1726
    22.1340  22.8929  22.9069  23.0824

          k = 0.0000-0.5744 0.1675 (  2894 PWs)   bands (ev):

   -41.2371 -41.1931 -15.8840 -15.7120 -15.3917 -15.3359 -15.1551 -15.1044
     8.1124  13.1226  14.9804  14.9977  16.0346  17.8129  18.8469  20.6819
    21.5374  22.1856  22.3494  22.7572

          k = 0.0000-0.5744-0.3350 (  2888 PWs)   bands (ev):

   -41.2206 -41.2096 -15.8958 -15.8510 -15.3137 -15.2352 -15.1591 -15.1215
     8.0690  13.0587  14.8605  15.2661  16.5740  18.3251  18.7553  19.8426
    21.2119  21.5610  22.2116  22.6401

          k = 0.2487 0.1436-0.0000 (  2882 PWs)   bands (ev):

   -41.3138 -41.1758 -15.7965 -15.5113 -15.3419 -15.3151 -15.0819 -14.9801
     7.8030  13.4603  14.2493  15.0072  16.7542  17.4779  18.4356  19.1081
    20.2981  20.4497  22.2025  22.8416

          k = 0.2487 0.1436 0.1675 (  2893 PWs)   bands (ev):

   -41.2944 -41.1955 -15.7896 -15.4187 -15.3786 -15.3014 -15.1239 -15.0193
     7.7953  13.7871  14.2612  15.2310  16.9079  17.4208  17.9988  18.6271
    20.1640  20.5981  22.2664  22.2882

          k = 0.2487 0.1436-0.3350 (  2888 PWs)   bands (ev):

   -41.2572 -41.2331 -15.6955 -15.5927 -15.2414 -15.1849 -15.1736 -15.1482
     7.8828  13.5379  14.5235  15.0454  16.8494  17.2889  18.1461  19.0513
    20.8056  21.1567  21.3806  21.5794

          k = 0.2487 0.1436-0.1675 (  2893 PWs)   bands (ev):

   -41.2945 -41.1954 -15.7581 -15.5069 -15.3294 -15.3116 -15.1133 -15.0124
     7.8910  13.3101  14.4268  14.8510  16.4067  17.5758  18.9341  19.8724
    20.2408  20.2630  22.0167  22.4369

          k = 0.2487 0.4308-0.0000 (  2900 PWs)   bands (ev):

   -41.2460 -41.1843 -15.7151 -15.5724 -15.5375 -15.3728 -15.2428 -15.1582
     8.1715  13.7195  14.6476  15.3440  16.4250  16.5498  17.7668  21.0136
    21.3204  22.2735  22.3321  23.5961

          k = 0.2487 0.4308 0.1675 (  2892 PWs)   bands (ev):

   -41.2373 -41.1930 -15.7620 -15.6962 -15.5025 -15.3234 -15.2366 -15.0719
     8.1777  13.7304  14.4157  15.1598  16.8486  17.1566  17.9545  20.0167
    21.1714  21.7607  22.5848  23.1554

          k = 0.2487 0.4308-0.3350 (  2908 PWs)   bands (ev):

   -41.2205 -41.2097 -15.8058 -15.7595 -15.4741 -15.3912 -15.0848 -15.0709
     8.1834  13.9054  14.0331  15.0360  17.5957  17.8736  18.0937  19.0477
    20.3450  21.7324  22.5034  22.8893

          k = 0.2487 0.4308-0.1675 (  2892 PWs)   bands (ev):

   -41.2373 -41.1930 -15.7620 -15.6962 -15.5025 -15.3234 -15.2366 -15.0719
     8.1777  13.7304  14.4157  15.1598  16.8486  17.1566  17.9545  20.0167
    21.1714  21.7607  22.5848  23.1554

          k = 0.2487-0.4308-0.0000 (  2900 PWs)   bands (ev):

   -41.2460 -41.1843 -15.7151 -15.5724 -15.5375 -15.3728 -15.2428 -15.1582
     8.1716  13.7195  14.6475  15.3440  16.4250  16.5498  17.7668  21.0136
    21.3204  22.2735  22.3322  23.5961

          k = 0.2487-0.4308 0.1675 (  2892 PWs)   bands (ev):

   -41.2373 -41.1930 -15.7620 -15.6962 -15.5025 -15.3234 -15.2366 -15.0719
     8.1777  13.7304  14.4157  15.1598  16.8486  17.1566  17.9544  20.0167
    21.1714  21.7607  22.5848  23.1554

          k = 0.2487-0.4308-0.3350 (  2908 PWs)   bands (ev):

   -41.2205 -41.2097 -15.8058 -15.7595 -15.4741 -15.3912 -15.0848 -15.0709
     8.1834  13.9054  14.0331  15.0360  17.5957  17.8736  18.0937  19.0477
    20.3450  21.7324  22.5034  22.8893

          k = 0.2487-0.4308-0.1675 (  2892 PWs)   bands (ev):

   -41.2373 -41.1930 -15.7620 -15.6962 -15.5025 -15.3234 -15.2366 -15.0719
     8.1777  13.7304  14.4157  15.1598  16.8486  17.1566  17.9545  20.0167
    21.1715  21.7607  22.5848  23.1554

          k = 0.2487-0.1436-0.0000 (  2882 PWs)   bands (ev):

   -41.3138 -41.1758 -15.7965 -15.5113 -15.3419 -15.3151 -15.0819 -14.9801
     7.8030  13.4603  14.2493  15.0072  16.7542  17.4779  18.4356  19.1081
    20.2981  20.4497  22.2025  22.8416

          k = 0.2487-0.1436 0.1675 (  2893 PWs)   bands (ev):

   -41.2945 -41.1954 -15.7581 -15.5069 -15.3294 -15.3116 -15.1133 -15.0124
     7.8910  13.3101  14.4268  14.8510  16.4067  17.5758  18.9341  19.8724
    20.2408  20.2630  22.0167  22.4369

          k = 0.2487-0.1436-0.3350 (  2888 PWs)   bands (ev):

   -41.2572 -41.2331 -15.6955 -15.5927 -15.2414 -15.1849 -15.1736 -15.1482
     7.8828  13.5379  14.5235  15.0454  16.8495  17.2889  18.1461  19.0513
    20.8056  21.1567  21.3806  21.5794

          k = 0.2487-0.1436-0.1675 (  2893 PWs)   bands (ev):

   -41.2944 -41.1955 -15.7896 -15.4187 -15.3786 -15.3014 -15.1239 -15.0194
     7.7953  13.7871  14.2612  15.2310  16.9079  17.4208  17.9988  18.6271
    20.1640  20.5981  22.2664  22.2883

          k =-0.4974-0.2872 0.0000 (  2898 PWs)   bands (ev):

   -41.2457 -41.1846 -15.7980 -15.5995 -15.4838 -15.4349 -15.1636 -15.1097
     8.1588  13.1989  14.7425  15.2777  15.3935  17.4843  18.8857  21.1726
    22.1340  22.8929  22.9069  23.0824

          k =-0.4974-0.2872 0.1675 (  2894 PWs)   bands (ev):

   -41.2371 -41.1931 -15.8840 -15.7120 -15.3917 -15.3358 -15.1551 -15.1044
     8.1125  13.1226  14.9804  14.9977  16.0346  17.8129  18.8469  20.6819
    21.5374  22.1856  22.3494  22.7572

          k =-0.4974-0.2872-0.3350 (  2888 PWs)   bands (ev):

   -41.2206 -41.2096 -15.8959 -15.8510 -15.3137 -15.2352 -15.1591 -15.1215
     8.0690  13.0587  14.8605  15.2661  16.5740  18.3251  18.7553  19.8426
    21.2119  21.5610  22.2116  22.6401

          k =-0.4974 0.0000 0.0000 (  2900 PWs)   bands (ev):

   -41.2460 -41.1843 -15.7151 -15.5724 -15.5375 -15.3728 -15.2428 -15.1582
     8.1716  13.7195  14.6475  15.3440  16.4250  16.5498  17.7668  21.0135
    21.3204  22.2735  22.3322  23.5961

          k =-0.4974 0.0000 0.1675 (  2892 PWs)   bands (ev):

   -41.2373 -41.1930 -15.7620 -15.6962 -15.5025 -15.3234 -15.2366 -15.0719
     8.1777  13.7303  14.4157  15.1598  16.8486  17.1566  17.9545  20.0166
    21.1715  21.7607  22.5848  23.1554

          k =-0.4974 0.0000-0.3350 (  2908 PWs)   bands (ev):

   -41.2205 -41.2097 -15.8058 -15.7595 -15.4741 -15.3912 -15.0848 -15.0709
     8.1834  13.9054  14.0332  15.0360  17.5956  17.8736  18.0937  19.0477
    20.3450  21.7324  22.5034  22.8893

          k =-0.4974 0.0000-0.1675 (  2892 PWs)   bands (ev):

   -41.2373 -41.1930 -15.7620 -15.6962 -15.5025 -15.3234 -15.2366 -15.0719
     8.1777  13.7303  14.4157  15.1598  16.8486  17.1566  17.9545  20.0166
    21.1715  21.7607  22.5848  23.1554

          k =-0.4974-0.8616 0.0000 (  2898 PWs)   bands (ev):

   -41.2457 -41.1846 -15.7980 -15.5995 -15.4838 -15.4349 -15.1636 -15.1097
     8.1588  13.1989  14.7425  15.2777  15.3935  17.4843  18.8857  21.1726
    22.1340  22.8929  22.9069  23.0824

          k =-0.4974-0.8616 0.1675 (  2894 PWs)   bands (ev):

   -41.2371 -41.1931 -15.8840 -15.7120 -15.3917 -15.3358 -15.1551 -15.1044
     8.1125  13.1226  14.9804  14.9977  16.0346  17.8129  18.8469  20.6819
    21.5374  22.1856  22.3494  22.7572

          k =-0.4974-0.8616-0.3350 (  2888 PWs)   bands (ev):

   -41.2206 -41.2096 -15.8959 -15.8510 -15.3137 -15.2352 -15.1591 -15.1215
     8.0690  13.0587  14.8605  15.2661  16.5740  18.3251  18.7553  19.8426
    21.2119  21.5610  22.2116  22.6401

     the Fermi energy is    20.2058 ev

!    total energy              =    -746.38844762 Ry
     total all-electron energy =    -16272.408487 Ry
     estimated scf accuracy    <       0.00000004 Ry
     smearing contrib. (-TS)   =      -0.00211522 Ry
     internal energy E=F+TS    =    -746.38633240 Ry

     The total energy is F=E-TS. E is the sum of the following terms:
     one-electron contribution =     -34.43471713 Ry
     hartree contribution      =      40.16051743 Ry
     xc contribution           =     -43.64134395 Ry
     ewald contribution        =    -247.44475070 Ry
     DFT-D3 Dispersion         =      -0.10652953 Ry
     one-center paw contrib.   =    -460.91950852 Ry

     convergence has been achieved in  11 iterations

     Forces acting on atoms (cartesian axes, Ry/au):

     atom    1 type  1   force =     0.00000148    0.00000061    0.00011765
     atom    2 type  1   force =     0.00000044   -0.00000242   -0.00010992
     atom    3 type  2   force =    -0.00000193    0.00000181   -0.00000773
     The non-local contrib.  to forces
     atom    1 type  1   force =    -0.00000090   -0.00000040   -0.07449470
     atom    2 type  1   force =    -0.00000052    0.00000181    0.07449504
     atom    3 type  2   force =    -0.00000299    0.00000284   -0.00001004
     The ionic contribution  to forces
     atom    1 type  1   force =     0.00002080    0.00002375   -9.16945297
     atom    2 type  1   force =     0.00000505   -0.00004849    9.16951141
     atom    3 type  2   force =    -0.00002585    0.00002474   -0.00005844
     The local contribution  to forces
     atom    1 type  1   force =    -0.00001830   -0.00002266    9.24295210
     atom    2 type  1   force =    -0.00000418    0.00004443   -9.24299707
     atom    3 type  2   force =     0.00002678   -0.00002570    0.00006080
     The core correction contribution to forces
     atom    1 type  1   force =     0.00000006    0.00000005    0.00248602
     atom    2 type  1   force =     0.00000002   -0.00000012   -0.00248585
     atom    3 type  2   force =     0.00000008   -0.00000008    0.00000028
     The Hubbard contrib.    to forces
     atom    1 type  1   force =     0.00000000    0.00000000    0.00000000
     atom    2 type  1   force =     0.00000000    0.00000000    0.00000000
     atom    3 type  2   force =     0.00000000    0.00000000    0.00000000
     The SCF correction term to forces
     atom    1 type  1   force =    -0.00000019   -0.00000011   -0.00078800
     atom    2 type  1   force =     0.00000007   -0.00000004    0.00078292
     atom    3 type  2   force =     0.00000003    0.00000002    0.00000027

     DFT-D3 dispersion contribution to forces:
     atom    1 type  1   force =     0.00000000   -0.00000000   -0.00058422
     atom    2 type  1   force =    -0.00000000    0.00000000    0.00058422
     atom    3 type  2   force =     0.00000000   -0.00000000   -0.00000000

     Total force =     0.000161     Total SCF correction =     0.001111
     SCF correction compared to forces is large: reduce conv_thr to get better values


     Computing stress (Cartesian axis) and pressure

          total   stress  (Ry/bohr**3)                   (kbar)     P=        5.88
   0.00003713  -0.00000001  -0.00000002            5.46       -0.00       -0.00
  -0.00000001   0.00003713  -0.00000002           -0.00        5.46       -0.00
  -0.00000002  -0.00000002   0.00004558           -0.00       -0.00        6.71

     Energy error            =      4.8E-04 Ry
     Gradient error          =      1.2E-04 Ry/Bohr
     Cell gradient error     =      6.7E+00 kbar

     number of scf cycles    =   3
     number of bfgs steps    =   2

     enthalpy           old  =    -746.3879650525 Ry
     enthalpy           new  =    -746.3884476188 Ry

     CASE: enthalpy          _new < enthalpy          _old

     new trust radius        =       0.0024083471 bohr
     new conv_thr            =       0.0000000100 Ry

     new unit-cell volume =    252.01355 a.u.^3 (    37.34455 Ang^3 )
     density =      9.06698 g/cm^3

CELL_PARAMETERS (angstrom)
   3.073503456   0.000000776   0.000001310
  -1.536751056   2.661732129  -0.000002453
   0.000001869  -0.000003258   4.564877953

ATOMIC_POSITIONS (angstrom)
Mo            0.0000017116        1.7744843813        1.1569460254
Mo            1.5367514399        0.8872463372        3.4079261188
C             0.0000020518       -0.0000027002        2.2824436424



     Writing config-only to output data dir ./outdir/pwscf.save/
     NEW-OLD atomic charge density approx. for the potential

     Check: negative core charge=   -0.000001
     extrapolated charge   32.06076, renormalised to   32.00000

     total cpu time spent up to now is       10.6 secs

     Self-consistent Calculation

     iteration #  1     ecut=    77.00 Ry     beta= 0.20
     Davidson diagonalization with overlap
     ethr =  1.00E-06,  avg # of iterations =  3.2

     total cpu time spent up to now is       11.1 secs

     total energy              =    -746.38821815 Ry
     estimated scf accuracy    <       0.00025950 Ry

     iteration #  2     ecut=    77.00 Ry     beta= 0.20
     Davidson diagonalization with overlap
     ethr =  8.11E-07,  avg # of iterations =  3.1

     total cpu time spent up to now is       11.3 secs

     total energy              =    -746.38846818 Ry
     estimated scf accuracy    <       0.00004474 Ry

     iteration #  3     ecut=    77.00 Ry     beta= 0.20
     Davidson diagonalization with overlap
     ethr =  1.40E-07,  avg # of iterations =  1.9

     total cpu time spent up to now is       11.4 secs

     total energy              =    -746.38846248 Ry
     estimated scf accuracy    <       0.00002603 Ry

     iteration #  4     ecut=    77.00 Ry     beta= 0.20
     Davidson diagonalization with overlap
     ethr =  8.13E-08,  avg # of iterations =  1.4

     total cpu time spent up to now is       11.8 secs

     total energy              =    -746.38845785 Ry
     estimated scf accuracy    <       0.00001132 Ry

     iteration #  5     ecut=    77.00 Ry     beta= 0.20
     Davidson diagonalization with overlap
     ethr =  3.54E-08,  avg # of iterations =  2.0

     total cpu time spent up to now is       12.0 secs

     total energy              =    -746.38845818 Ry
     estimated scf accuracy    <       0.00000227 Ry

     iteration #  6     ecut=    77.00 Ry     beta= 0.20
     Davidson diagonalization with overlap
     ethr =  7.08E-09,  avg # of iterations =  1.1

     total cpu time spent up to now is       12.2 secs

     total energy              =    -746.38845763 Ry
     estimated scf accuracy    <       0.00000135 Ry

     iteration #  7     ecut=    77.00 Ry     beta= 0.20
     Davidson diagonalization with overlap
     ethr =  4.21E-09,  avg # of iterations =  1.1

     total cpu time spent up to now is       12.3 secs

     total energy              =    -746.38845710 Ry
     estimated scf accuracy    <       0.00000079 Ry

     iteration #  8     ecut=    77.00 Ry     beta= 0.20
     Davidson diagonalization with overlap
     ethr =  2.48E-09,  avg # of iterations =  2.1

     total cpu time spent up to now is       12.5 secs

     total energy              =    -746.38845707 Ry
     estimated scf accuracy    <       0.00000014 Ry

     iteration #  9     ecut=    77.00 Ry     beta= 0.20
     Davidson diagonalization with overlap
     ethr =  4.53E-10,  avg # of iterations =  3.3

     total cpu time spent up to now is       12.7 secs

     total energy              =    -746.38845707 Ry
     estimated scf accuracy    <       0.00000002 Ry

     iteration # 10     ecut=    77.00 Ry     beta= 0.20
     Davidson diagonalization with overlap
     ethr =  5.79E-11,  avg # of iterations =  3.2

     total cpu time spent up to now is       12.9 secs

     End of self-consistent calculation

          k = 0.0000 0.0000 0.0000 (  2881 PWs)   bands (ev):

   -41.4115 -41.2283 -16.0002 -15.2812 -15.2811 -15.1133 -15.1133 -14.9277
     7.0980  12.8686  14.9098  14.9098  17.7449  18.8308  18.8308  19.0767
    19.0767  19.1414  20.8364  20.8365

          k =-0.0000 0.0000 0.1674 (  2838 PWs)   bands (ev):

   -41.3860 -41.2545 -15.8571 -15.2570 -15.2570 -15.1377 -15.1377 -15.0873
     7.3012  12.7640  14.7492  14.7492  17.7217  18.3381  18.3381  18.5957
    19.7878  19.7878  21.4575  21.4575

          k = 0.0000-0.0000-0.3347 (  2820 PWs)   bands (ev):

   -41.3367 -41.3046 -15.5772 -15.3838 -15.2054 -15.2054 -15.1896 -15.1896
     7.5224  12.6196  14.6136  14.6136  17.8080  17.9845  17.9845  18.1382
    20.9015  20.9015  21.6101  21.6101

          k =-0.0000 0.2870 0.0000 (  2882 PWs)   bands (ev):

   -41.3591 -41.2223 -15.8382 -15.5554 -15.3872 -15.3605 -15.1289 -15.0270
     7.7655  13.4266  14.2145  14.9721  16.7177  17.4404  18.3921  19.0669
    20.2531  20.4031  22.1526  22.7913

          k =-0.0000 0.2870 0.1674 (  2893 PWs)   bands (ev):

   -41.3400 -41.2417 -15.8001 -15.5512 -15.3743 -15.3570 -15.1600 -15.0593
     7.8531  13.2763  14.3910  14.8166  16.3720  17.5378  18.8899  19.8283
    20.1964  20.2169  21.9663  22.3865

          k = 0.0000 0.2870-0.3347 (  2888 PWs)   bands (ev):

   -41.3031 -41.2790 -15.7382 -15.6359 -15.2875 -15.2310 -15.2199 -15.1941
     7.8453  13.5037  14.4866  15.0099  16.8119  17.2506  18.1059  19.0103
    20.7592  21.1081  21.3342  21.5308

          k =-0.0000 0.2870-0.1674 (  2893 PWs)   bands (ev):

   -41.3400 -41.2418 -15.8315 -15.4634 -15.4233 -15.3469 -15.1706 -15.0661
     7.7582  13.7532  14.2249  15.1947  16.8699  17.3803  17.9596  18.5876
    20.1204  20.5529  22.2154  22.2384

          k = 0.0000-0.5741-0.0000 (  2898 PWs)   bands (ev):

   -41.2916 -41.2310 -15.8404 -15.6434 -15.5273 -15.4796 -15.2091 -15.1565
     8.1226  13.1639  14.7083  15.2403  15.3611  17.4448  18.8421  21.1253
    22.0828  22.8400  22.8539  23.0314

          k = 0.0000-0.5741 0.1674 (  2894 PWs)   bands (ev):

   -41.2831 -41.2395 -15.9256 -15.7549 -15.4366 -15.3806 -15.2016 -15.1506
     8.0765  13.0883  14.9451  14.9624  15.9993  17.7720  18.8030  20.6371
    21.4887  22.1375  22.2986  22.7055

          k = 0.0000-0.5741-0.3347 (  2888 PWs)   bands (ev):

   -41.2667 -41.2558 -15.9374 -15.8927 -15.3594 -15.2810 -15.2053 -15.1676
     8.0334  13.0250  14.8260  15.2292  16.5367  18.2821  18.7110  19.8010
    21.1678  21.5119  22.1614  22.5894

          k = 0.2486 0.1435 0.0000 (  2882 PWs)   bands (ev):

   -41.3591 -41.2223 -15.8382 -15.5554 -15.3872 -15.3605 -15.1289 -15.0270
     7.7655  13.4266  14.2145  14.9721  16.7178  17.4404  18.3921  19.0669
    20.2531  20.4031  22.1526  22.7913

          k = 0.2486 0.1435 0.1674 (  2893 PWs)   bands (ev):

   -41.3400 -41.2418 -15.8315 -15.4634 -15.4233 -15.3469 -15.1706 -15.0661
     7.7582  13.7532  14.2249  15.1947  16.8699  17.3803  17.9596  18.5876
    20.1204  20.5529  22.2154  22.2384

          k = 0.2486 0.1435-0.3347 (  2888 PWs)   bands (ev):

   -41.3031 -41.2790 -15.7382 -15.6359 -15.2875 -15.2310 -15.2199 -15.1941
     7.8453  13.5037  14.4866  15.0099  16.8119  17.2506  18.1059  19.0103
    20.7592  21.1081  21.3342  21.5308

          k = 0.2486 0.1435-0.1674 (  2893 PWs)   bands (ev):

   -41.3400 -41.2417 -15.8001 -15.5512 -15.3743 -15.3570 -15.1600 -15.0593
     7.8531  13.2763  14.3910  14.8166  16.3720  17.5379  18.8898  19.8283
    20.1965  20.2169  21.9662  22.3865

          k = 0.2486 0.4306 0.0000 (  2900 PWs)   bands (ev):

   -41.2919 -41.2307 -15.7580 -15.6163 -15.5811 -15.4176 -15.2888 -15.2038
     8.1351  13.6833  14.6113  15.3070  16.3906  16.5141  17.7262  20.9670
    21.2717  22.2221  22.2813  23.5428

          k = 0.2486 0.4306 0.1674 (  2892 PWs)   bands (ev):

   -41.2833 -41.2393 -15.8044 -15.7390 -15.5467 -15.3686 -15.2823 -15.1185
     8.1411  13.6950  14.3801  15.1232  16.8124  17.1199  17.9133  19.9717
    21.1238  21.7115  22.5335  23.1031

          k = 0.2486 0.4306-0.3347 (  2908 PWs)   bands (ev):

   -41.2667 -41.2558 -15.8478 -15.8018 -15.5187 -15.4359 -15.1315 -15.1175
     8.1468  13.8693  13.9992  15.0000  17.5569  17.8347  18.0539  19.0048
    20.2993  21.6830  22.4533  22.8368

          k = 0.2486 0.4306-0.1674 (  2892 PWs)   bands (ev):

   -41.2833 -41.2393 -15.8044 -15.7390 -15.5467 -15.3686 -15.2823 -15.1185
     8.1411  13.6950  14.3801  15.1232  16.8124  17.1199  17.9133  19.9717
    21.1238  21.7115  22.5335  23.1031

          k = 0.2486-0.4306-0.0000 (  2900 PWs)   bands (ev):

   -41.2919 -41.2307 -15.7580 -15.6163 -15.5811 -15.4176 -15.2888 -15.2038
     8.1351  13.6833  14.6113  15.3070  16.3906  16.5141  17.7262  20.9670
    21.2716  22.2221  22.2813  23.5428

          k = 0.2486-0.4306 0.1674 (  2892 PWs)   bands (ev):

   -41.2833 -41.2393 -15.8044 -15.7390 -15.5467 -15.3686 -15.2823 -15.1185
     8.1411  13.6950  14.3801  15.1232  16.8124  17.1199  17.9133  19.9717
    21.1238  21.7115  22.5335  23.1031

          k = 0.2486-0.4306-0.3347 (  2908 PWs)   bands (ev):

   -41.2667 -41.2558 -15.8478 -15.8018 -15.5187 -15.4359 -15.1315 -15.1175
     8.1468  13.8693  13.9992  15.0000  17.5569  17.8347  18.0539  19.0048
    20.2993  21.6830  22.4533  22.8368

          k = 0.2486-0.4306-0.1674 (  2892 PWs)   bands (ev):

   -41.2833 -41.2393 -15.8044 -15.7390 -15.5467 -15.3686 -15.2823 -15.1185
     8.1411  13.6950  14.3801  15.1232  16.8124  17.1199  17.9133  19.9717
    21.1238  21.7115  22.5335  23.1031

          k = 0.2486-0.1435-0.0000 (  2882 PWs)   bands (ev):

   -41.3591 -41.2223 -15.8382 -15.5554 -15.3872 -15.3605 -15.1289 -15.0270
     7.7655  13.4266  14.2145  14.9721  16.7178  17.4404  18.3921  19.0669
    20.2531  20.4031  22.1526  22.7913

          k = 0.2486-0.1435 0.1674 (  2893 PWs)   bands (ev):

   -41.3400 -41.2417 -15.8001 -15.5512 -15.3743 -15.3570 -15.1600 -15.0593
     7.8531  13.2763  14.3910  14.8165  16.3720  17.5379  18.8898  19.8282
    20.1965  20.2169  21.9662  22.3865

          k = 0.2486-0.1435-0.3347 (  2888 PWs)   bands (ev):

   -41.3031 -41.2790 -15.7382 -15.6359 -15.2875 -15.2310 -15.2199 -15.1941
     7.8453  13.5037  14.4866  15.0099  16.8119  17.2506  18.1059  19.0103
    20.7592  21.1081  21.3342  21.5308

          k = 0.2486-0.1435-0.1674 (  2893 PWs)   bands (ev):

   -41.3400 -41.2418 -15.8315 -15.4634 -15.4233 -15.3469 -15.1706 -15.0661
     7.7582  13.7532  14.2249  15.1947  16.8699  17.3803  17.9596  18.5876
    20.1204  20.5529  22.2154  22.2384

          k =-0.4972-0.2870-0.0000 (  2898 PWs)   bands (ev):

   -41.2916 -41.2310 -15.8404 -15.6434 -15.5273 -15.4796 -15.2091 -15.1565
     8.1226  13.1639  14.7083  15.2403  15.3611  17.4448  18.8420  21.1253
    22.0828  22.8400  22.8539  23.0314

          k =-0.4972-0.2870 0.1674 (  2894 PWs)   bands (ev):

   -41.2831 -41.2395 -15.9256 -15.7549 -15.4366 -15.3805 -15.2016 -15.1506
     8.0765  13.0883  14.9451  14.9624  15.9993  17.7720  18.8030  20.6371
    21.4887  22.1376  22.2986  22.7055

          k =-0.4972-0.2870-0.3347 (  2888 PWs)   bands (ev):

   -41.2667 -41.2558 -15.9374 -15.8927 -15.3594 -15.2810 -15.2053 -15.1676
     8.0334  13.0250  14.8259  15.2292  16.5367  18.2822  18.7110  19.8010
    21.1678  21.5119  22.1614  22.5894

          k =-0.4972 0.0000 0.0000 (  2900 PWs)   bands (ev):

   -41.2919 -41.2307 -15.7580 -15.6163 -15.5811 -15.4176 -15.2888 -15.2038
     8.1351  13.6833  14.6113  15.3070  16.3906  16.5141  17.7262  20.9670
    21.2716  22.2221  22.2813  23.5428

          k =-0.4972 0.0000 0.1674 (  2892 PWs)   bands (ev):

   -41.2833 -41.2393 -15.8044 -15.7390 -15.5467 -15.3686 -15.2823 -15.1185
     8.1411  13.6950  14.3801  15.1232  16.8124  17.1199  17.9133  19.9717
    21.1239  21.7115  22.5335  23.1031

          k =-0.4972-0.0000-0.3347 (  2908 PWs)   bands (ev):

   -41.2667 -41.2558 -15.8478 -15.8018 -15.5187 -15.4359 -15.1315 -15.1175
     8.1468  13.8693  13.9992  14.9999  17.5569  17.8347  18.0540  19.0048
    20.2993  21.6830  22.4533  22.8368

          k =-0.4972 0.0000-0.1674 (  2892 PWs)   bands (ev):

   -41.2833 -41.2393 -15.8044 -15.7390 -15.5467 -15.3686 -15.2823 -15.1185
     8.1411  13.6950  14.3801  15.1232  16.8124  17.1200  17.9133  19.9717
    21.1238  21.7115  22.5335  23.1031

          k =-0.4972-0.8611-0.0000 (  2898 PWs)   bands (ev):

   -41.2916 -41.2310 -15.8405 -15.6434 -15.5273 -15.4796 -15.2091 -15.1565
     8.1226  13.1639  14.7083  15.2403  15.3611  17.4448  18.8420  21.1253
    22.0828  22.8400  22.8539  23.0314

          k =-0.4972-0.8611 0.1674 (  2894 PWs)   bands (ev):

   -41.2831 -41.2395 -15.9256 -15.7549 -15.4366 -15.3805 -15.2016 -15.1506
     8.0765  13.0883  14.9451  14.9624  15.9993  17.7720  18.8029  20.6371
    21.4887  22.1376  22.2986  22.7055

          k =-0.4972-0.8611-0.3347 (  2888 PWs)   bands (ev):

   -41.2667 -41.2558 -15.9374 -15.8927 -15.3594 -15.2810 -15.2053 -15.1676
     8.0334  13.0250  14.8259  15.2292  16.5367  18.2822  18.7110  19.8010
    21.1678  21.5119  22.1614  22.5894

     the Fermi energy is    20.1609 ev

!    total energy              =    -746.38845707 Ry
     total all-electron energy =    -16272.408497 Ry
     estimated scf accuracy    <          2.2E-09 Ry
     smearing contrib. (-TS)   =      -0.00212398 Ry
     internal energy E=F+TS    =    -746.38633309 Ry

     The total energy is F=E-TS. E is the sum of the following terms:
     one-electron contribution =     -34.67527070 Ry
     hartree contribution      =      40.22736914 Ry
     xc contribution           =     -43.63515713 Ry
     ewald contribution        =    -247.27774539 Ry
     DFT-D3 Dispersion         =      -0.10633915 Ry
     one-center paw contrib.   =    -460.91918985 Ry

     convergence has been achieved in  10 iterations

     Forces acting on atoms (cartesian axes, Ry/au):

     atom    1 type  1   force =     0.00000069    0.00000047    0.00058340
     atom    2 type  1   force =     0.00000028   -0.00000147   -0.00057956
     atom    3 type  2   force =    -0.00000097    0.00000100   -0.00000384
     The non-local contrib.  to forces
     atom    1 type  1   force =     0.00000015   -0.00000016   -0.07425500
     atom    2 type  1   force =    -0.00000091    0.00000091    0.07425606
     atom    3 type  2   force =    -0.00000159    0.00000149   -0.00000571
     The ionic contribution  to forces
     atom    1 type  1   force =     0.00000284    0.00001433   -9.17959055
     atom    2 type  1   force =     0.00001090   -0.00002751    9.17962351
     atom    3 type  2   force =    -0.00001374    0.00001318   -0.00003296
     The local contribution  to forces
     atom    1 type  1   force =    -0.00000246   -0.00001379    9.25270667
     atom    2 type  1   force =    -0.00000984    0.00002510   -9.25273699
     atom    3 type  2   force =     0.00001427   -0.00001363    0.00003496
     The core correction contribution to forces
     atom    1 type  1   force =     0.00000000    0.00000003    0.00247162
     atom    2 type  1   force =     0.00000004   -0.00000007   -0.00247160
     atom    3 type  2   force =     0.00000005   -0.00000004    0.00000016
     The Hubbard contrib.    to forces
     atom    1 type  1   force =     0.00000000    0.00000000    0.00000000
     atom    2 type  1   force =     0.00000000    0.00000000    0.00000000
     atom    3 type  2   force =     0.00000000    0.00000000    0.00000000
     The SCF correction term to forces
     atom    1 type  1   force =     0.00000010    0.00000004   -0.00016466
     atom    2 type  1   force =     0.00000005    0.00000007    0.00016469
     atom    3 type  2   force =     0.00000000   -0.00000002   -0.00000034

     DFT-D3 dispersion contribution to forces:
     atom    1 type  1   force =     0.00000000   -0.00000000   -0.00058473
     atom    2 type  1   force =    -0.00000000    0.00000000    0.00058473
     atom    3 type  2   force =     0.00000000   -0.00000000   -0.00000000

     Total force =     0.000822     Total SCF correction =     0.000233
     SCF correction compared to forces is large: reduce conv_thr to get better values


     Computing stress (Cartesian axis) and pressure

          total   stress  (Ry/bohr**3)                   (kbar)     P=        0.29
   0.00000026  -0.00000001  -0.00000000            0.04       -0.00       -0.00
  -0.00000001   0.00000026  -0.00000000           -0.00        0.04       -0.00
  -0.00000000  -0.00000000   0.00000531           -0.00       -0.00        0.78

     Energy error            =      9.4E-06 Ry
     Gradient error          =      5.8E-04 Ry/Bohr
     Cell gradient error     =      7.8E-01 kbar

     number of scf cycles    =   4
     number of bfgs steps    =   3

     enthalpy           old  =    -746.3884476188 Ry
     enthalpy           new  =    -746.3884570684 Ry

     CASE: enthalpy          _new < enthalpy          _old

     new trust radius        =       0.0007508964 bohr
     new conv_thr            =       0.0000000100 Ry

     new unit-cell volume =    252.07601 a.u.^3 (    37.35381 Ang^3 )
     density =      9.06473 g/cm^3

CELL_PARAMETERS (angstrom)
   3.073673339   0.000000169   0.000000831
  -1.536836523   2.661879384  -0.000002348
   0.000001125  -0.000003500   4.565504900

ATOMIC_POSITIONS (angstrom)
Mo            0.0000016208        1.7745825665        1.1575022438
Mo            1.5368358182        0.8872939242        3.4079988064
C             0.0000010645       -0.0000021879        2.2827547826



     Writing config-only to output data dir ./outdir/pwscf.save/
     NEW-OLD atomic charge density approx. for the potential

     Check: negative core charge=   -0.000001
     extrapolated charge   32.00793, renormalised to   32.00000

     total cpu time spent up to now is       13.8 secs

     Self-consistent Calculation

     iteration #  1     ecut=    77.00 Ry     beta= 0.20
     Davidson diagonalization with overlap
     ethr =  1.00E-06,  avg # of iterations =  2.0

     Threshold (ethr) on eigenvalues was too large:
     Diagonalizing with lowered threshold

     Davidson diagonalization with overlap
     ethr =  1.61E-08,  avg # of iterations =  2.1

     total cpu time spent up to now is       14.4 secs

     total energy              =    -746.38845344 Ry
     estimated scf accuracy    <       0.00000581 Ry

     iteration #  2     ecut=    77.00 Ry     beta= 0.20
     Davidson diagonalization with overlap
     ethr =  1.81E-08,  avg # of iterations =  3.1

     total cpu time spent up to now is       14.6 secs

     total energy              =    -746.38845824 Ry
     estimated scf accuracy    <       0.00000093 Ry

     iteration #  3     ecut=    77.00 Ry     beta= 0.20
     Davidson diagonalization with overlap
     ethr =  2.90E-09,  avg # of iterations =  2.0

     total cpu time spent up to now is       14.8 secs

     total energy              =    -746.38845807 Ry
     estimated scf accuracy    <       0.00000050 Ry

     iteration #  4     ecut=    77.00 Ry     beta= 0.20
     Davidson diagonalization with overlap
     ethr =  1.57E-09,  avg # of iterations =  2.0

     total cpu time spent up to now is       15.0 secs

     total energy              =    -746.38845809 Ry
     estimated scf accuracy    <       0.00000007 Ry

     iteration #  5     ecut=    77.00 Ry     beta= 0.20
     Davidson diagonalization with overlap
     ethr =  2.09E-10,  avg # of iterations =  3.3

     total cpu time spent up to now is       15.2 secs

     total energy              =    -746.38845812 Ry
     estimated scf accuracy    <       0.00000001 Ry

     iteration #  6     ecut=    77.00 Ry     beta= 0.20
     Davidson diagonalization with overlap
     ethr =  3.86E-11,  avg # of iterations =  2.0

     total cpu time spent up to now is       15.3 secs

     total energy              =    -746.38845812 Ry
     estimated scf accuracy    <       0.00000001 Ry

     iteration #  7     ecut=    77.00 Ry     beta= 0.20
     Davidson diagonalization with overlap
     ethr =  3.86E-11,  avg # of iterations =  3.4

     total cpu time spent up to now is       15.5 secs

     End of self-consistent calculation

          k = 0.0000 0.0000 0.0000 (  2881 PWs)   bands (ev):

   -41.4177 -41.2347 -16.0056 -15.2876 -15.2876 -15.1198 -15.1198 -14.9338
     7.0931  12.8630  14.9024  14.9024  17.7378  18.8229  18.8229  19.0730
    19.0730  19.1365  20.8326  20.8327

          k =-0.0000 0.0000 0.1673 (  2838 PWs)   bands (ev):

[...]

     iteration #  1     ecut=    77.00 Ry     beta= 0.20
     Davidson diagonalization with overlap
     c_bands:  1 eigenvalues not converged
     ethr =  1.00E-06,  avg # of iterations = 13.2

     total cpu time spent up to now is       19.4 secs

     total energy              =    -746.33610924 Ry
     estimated scf accuracy    <       0.61769632 Ry

     iteration #  2     ecut=    77.00 Ry     beta= 0.20
     Davidson diagonalization with overlap
     ethr =  1.93E-03,  avg # of iterations =  2.0

     total cpu time spent up to now is       19.6 secs

     total energy              =    -746.36461382 Ry
     estimated scf accuracy    <       0.07374139 Ry

     iteration #  3     ecut=    77.00 Ry     beta= 0.20
     Davidson diagonalization with overlap
     ethr =  2.30E-04,  avg # of iterations =  4.2

     total cpu time spent up to now is       19.8 secs

     total energy              =    -746.38403098 Ry
     estimated scf accuracy    <       0.01846953 Ry

     iteration #  4     ecut=    77.00 Ry     beta= 0.20
     Davidson diagonalization with overlap
     ethr =  5.77E-05,  avg # of iterations =  3.9

     total cpu time spent up to now is       20.0 secs

     total energy              =    -746.38873096 Ry
     estimated scf accuracy    <       0.01081444 Ry

     iteration #  5     ecut=    77.00 Ry     beta= 0.20
     Davidson diagonalization with overlap
     ethr =  3.38E-05,  avg # of iterations =  1.9

     total cpu time spent up to now is       20.1 secs

     total energy              =    -746.38739897 Ry
     estimated scf accuracy    <       0.00276515 Ry

     iteration #  6     ecut=    77.00 Ry     beta= 0.20
     Davidson diagonalization with overlap
     ethr =  8.64E-06,  avg # of iterations =  5.5

     total cpu time spent up to now is       20.4 secs

     total energy              =    -746.38731256 Ry
     estimated scf accuracy    <       0.01329401 Ry

     iteration #  7     ecut=    77.00 Ry     beta= 0.20
     Davidson diagonalization with overlap
     ethr =  8.64E-06,  avg # of iterations =  3.9

     total cpu time spent up to now is       20.6 secs

     total energy              =    -746.38818016 Ry
     estimated scf accuracy    <       0.00074993 Ry

     iteration #  8     ecut=    77.00 Ry     beta= 0.20
     Davidson diagonalization with overlap
     ethr =  2.34E-06,  avg # of iterations =  4.2

     total cpu time spent up to now is       20.8 secs

     total energy              =    -746.38844165 Ry
     estimated scf accuracy    <       0.00020325 Ry

     iteration #  9     ecut=    77.00 Ry     beta= 0.20
     Davidson diagonalization with overlap
     ethr =  6.35E-07,  avg # of iterations =  2.0

     total cpu time spent up to now is       21.0 secs

     total energy              =    -746.38845086 Ry
     estimated scf accuracy    <       0.00002205 Ry

     iteration # 10     ecut=    77.00 Ry     beta= 0.20
     Davidson diagonalization with overlap
     ethr =  6.89E-08,  avg # of iterations =  4.0

     total cpu time spent up to now is       21.2 secs

     total energy              =    -746.38845249 Ry
     estimated scf accuracy    <       0.00000141 Ry

     iteration # 11     ecut=    77.00 Ry     beta= 0.20
     Davidson diagonalization with overlap
     ethr =  4.40E-09,  avg # of iterations =  2.6

     total cpu time spent up to now is       21.3 secs

     total energy              =    -746.38845055 Ry
     estimated scf accuracy    <       0.00000079 Ry

     iteration # 12     ecut=    77.00 Ry     beta= 0.20
     Davidson diagonalization with overlap
     ethr =  2.47E-09,  avg # of iterations =  4.1

     total cpu time spent up to now is       21.5 secs

     total energy              =    -746.38845108 Ry
     estimated scf accuracy    <       0.00000046 Ry

     iteration # 13     ecut=    77.00 Ry     beta= 0.20
     Davidson diagonalization with overlap
     ethr =  1.43E-09,  avg # of iterations =  1.0

     total cpu time spent up to now is       21.7 secs

     total energy              =    -746.38845111 Ry
     estimated scf accuracy    <       0.00000025 Ry

     iteration # 14     ecut=    77.00 Ry     beta= 0.20
     Davidson diagonalization with overlap
     ethr =  7.74E-10,  avg # of iterations =  2.8

     total cpu time spent up to now is       21.9 secs

     total energy              =    -746.38845109 Ry
     estimated scf accuracy    <       0.00000001 Ry

     iteration # 15     ecut=    77.00 Ry     beta= 0.20
     Davidson diagonalization with overlap
     ethr =  3.23E-11,  avg # of iterations =  2.2

     total cpu time spent up to now is       22.1 secs

     End of self-consistent calculation

          k = 0.0000 0.0000 0.0000 (  2899 PWs)   bands (ev):

   -41.4168 -41.2338 -16.0045 -15.2866 -15.2866 -15.1190 -15.1190 -14.9328
     7.0933  12.8628  14.9020  14.9020  17.7377  18.8229  18.8229  19.0750
    19.0750  19.1364  20.8345  20.8345

          k =-0.0000 0.0000 0.1673 (  2874 PWs)   bands (ev):

   -41.3914 -41.2599 -15.8617 -15.2625 -15.2625 -15.1434 -15.1434 -15.0921
     7.2961  12.7583  14.7421  14.7421  17.7162  18.3325  18.3326  18.5905
    19.7841  19.7841  21.4528  21.4528

          k = 0.0000-0.0000-0.3347 (  2832 PWs)   bands (ev):

   -41.3424 -41.3096 -15.5831 -15.3873 -15.2113 -15.2113 -15.1949 -15.1949
     7.5169  12.6142  14.6071  14.6071  17.8076  17.9799  17.9799  18.1286
    20.8939  20.8940  21.6055  21.6055

          k = 0.0000 0.2870 0.0000 (  2866 PWs)   bands (ev):

   -41.3644 -41.2278 -15.8428 -15.5609 -15.3926 -15.3661 -15.1346 -15.0319
     7.7603  13.4206  14.2093  14.9656  16.7133  17.4376  18.3853  19.0625
    20.2479  20.3959  22.1483  22.7873

          k =-0.0000 0.2870 0.1673 (  2872 PWs)   bands (ev):

   -41.3453 -41.2471 -15.8048 -15.5571 -15.3791 -15.3625 -15.1657 -15.0645
     7.8477  13.2704  14.3854  14.8106  16.3683  17.5346  18.8841  19.8219
    20.1919  20.2094  21.9604  22.3822

          k = 0.0000 0.2870-0.3347 (  2880 PWs)   bands (ev):

   -41.3087 -41.2841 -15.7435 -15.6408 -15.2935 -15.2362 -15.2256 -15.1989
     7.8400  13.4980  14.4805  15.0033  16.8055  17.2467  18.1021  19.0059
    20.7544  21.1001  21.3321  21.5258

          k = 0.0000 0.2870-0.1673 (  2872 PWs)   bands (ev):

   -41.3453 -41.2472 -15.8364 -15.4691 -15.4283 -15.3525 -15.1762 -15.0712
     7.7531  13.7471  14.2197  15.1873  16.8649  17.3749  17.9541  18.5841
    20.1171  20.5486  22.2099  22.2336

          k =-0.0000-0.5741-0.0000 (  2878 PWs)   bands (ev):

   -41.2970 -41.2364 -15.8462 -15.6496 -15.5314 -15.4850 -15.2138 -15.1623
     8.1167  13.1588  14.7030  15.2355  15.3575  17.4416  18.8359  21.1197
    22.0760  22.8328  22.8484  23.0274

          k =-0.0000-0.5741 0.1673 (  2892 PWs)   bands (ev):

   -41.2884 -41.2449 -15.9309 -15.7605 -15.4422 -15.3854 -15.2072 -15.1557
     8.0708  13.0833  14.9391  14.9583  15.9938  17.7683  18.7979  20.6341
    21.4828  22.1348  22.2936  22.6991

          k = 0.0000-0.5741-0.3347 (  2872 PWs)   bands (ev):

   -41.2722 -41.2610 -15.9428 -15.8977 -15.3655 -15.2860 -15.2107 -15.1726
     8.0278  13.0201  14.8221  15.2223  16.5290  18.2781  18.7072  19.8003
    21.1675  21.5053  22.1567  22.5828

          k = 0.2486 0.1435 0.0000 (  2866 PWs)   bands (ev):

   -41.3644 -41.2278 -15.8428 -15.5609 -15.3926 -15.3661 -15.1346 -15.0319
     7.7603  13.4206  14.2093  14.9656  16.7133  17.4376  18.3853  19.0625
    20.2479  20.3959  22.1483  22.7874

          k = 0.2486 0.1435 0.1673 (  2872 PWs)   bands (ev):

   -41.3453 -41.2472 -15.8364 -15.4691 -15.4283 -15.3525 -15.1762 -15.0712
     7.7531  13.7471  14.2197  15.1872  16.8649  17.3749  17.9541  18.5841
    20.1171  20.5486  22.2099  22.2336

          k = 0.2486 0.1435-0.3347 (  2880 PWs)   bands (ev):

   -41.3087 -41.2841 -15.7435 -15.6408 -15.2935 -15.2362 -15.2256 -15.1989
     7.8400  13.4980  14.4805  15.0033  16.8055  17.2467  18.1021  19.0059
    20.7544  21.1001  21.3321  21.5258

          k = 0.2486 0.1435-0.1673 (  2872 PWs)   bands (ev):

   -41.3453 -41.2471 -15.8048 -15.5571 -15.3791 -15.3625 -15.1657 -15.0645
     7.8477  13.2704  14.3854  14.8106  16.3683  17.5346  18.8841  19.8219
    20.1919  20.2094  21.9604  22.3822

          k = 0.2486 0.4306 0.0000 (  2882 PWs)   bands (ev):

   -41.2972 -41.2361 -15.7638 -15.6222 -15.5861 -15.4225 -15.2946 -15.2084
     8.1294  13.6786  14.6056  15.3013  16.3876  16.5100  17.7213  20.9622
    21.2651  22.2158  22.2754  23.5376

          k = 0.2486 0.4306 0.1673 (  2872 PWs)   bands (ev):

   -41.2886 -41.2447 -15.8097 -15.7443 -15.5523 -15.3739 -15.2875 -15.1237
     8.1354  13.6901  14.3744  15.1182  16.8081  17.1163  17.9089  19.9648
    21.1183  21.7061  22.5277  23.0984

          k = 0.2486 0.4306-0.3347 (  2886 PWs)   bands (ev):

   -41.2722 -41.2611 -15.8530 -15.8067 -15.5247 -15.4409 -15.1371 -15.1226
     8.1411  13.8641  13.9940  14.9951  17.5514  17.8319  18.0513  18.9962
    20.2938  21.6766  22.4502  22.8311

          k = 0.2486 0.4306-0.1673 (  2872 PWs)   bands (ev):

   -41.2886 -41.2447 -15.8097 -15.7443 -15.5523 -15.3739 -15.2875 -15.1237
     8.1354  13.6901  14.3744  15.1182  16.8081  17.1164  17.9089  19.9648
    21.1183  21.7061  22.5277  23.0984

          k = 0.2486-0.4306-0.0000 (  2882 PWs)   bands (ev):

   -41.2972 -41.2361 -15.7638 -15.6222 -15.5861 -15.4225 -15.2946 -15.2084
     8.1294  13.6786  14.6056  15.3013  16.3876  16.5100  17.7213  20.9622
    21.2651  22.2158  22.2754  23.5376

          k = 0.2486-0.4306 0.1673 (  2872 PWs)   bands (ev):

   -41.2886 -41.2447 -15.8097 -15.7443 -15.5523 -15.3739 -15.2875 -15.1237
     8.1354  13.6901  14.3744  15.1182  16.8081  17.1164  17.9089  19.9648
    21.1183  21.7061  22.5277  23.0984

          k = 0.2486-0.4306-0.3347 (  2886 PWs)   bands (ev):

   -41.2722 -41.2611 -15.8530 -15.8067 -15.5247 -15.4409 -15.1371 -15.1226
     8.1411  13.8641  13.9940  14.9951  17.5514  17.8319  18.0513  18.9962
    20.2938  21.6766  22.4502  22.8310

          k = 0.2486-0.4306-0.1673 (  2872 PWs)   bands (ev):

   -41.2886 -41.2447 -15.8097 -15.7443 -15.5523 -15.3739 -15.2875 -15.1237
     8.1354  13.6901  14.3744  15.1182  16.8081  17.1164  17.9089  19.9648
    21.1183  21.7061  22.5277  23.0984

          k = 0.2486-0.1435-0.0000 (  2866 PWs)   bands (ev):

   -41.3644 -41.2278 -15.8428 -15.5609 -15.3926 -15.3661 -15.1346 -15.0319
     7.7603  13.4206  14.2093  14.9656  16.7133  17.4376  18.3853  19.0625
    20.2479  20.3959  22.1483  22.7874

          k = 0.2486-0.1435 0.1673 (  2872 PWs)   bands (ev):

   -41.3453 -41.2471 -15.8048 -15.5571 -15.3791 -15.3625 -15.1657 -15.0645
     7.8477  13.2704  14.3854  14.8106  16.3683  17.5346  18.8841  19.8219
    20.1919  20.2094  21.9604  22.3822

          k = 0.2486-0.1435-0.3347 (  2880 PWs)   bands (ev):

   -41.3087 -41.2841 -15.7435 -15.6408 -15.2935 -15.2362 -15.2256 -15.1989
     7.8400  13.4980  14.4805  15.0033  16.8055  17.2467  18.1021  19.0059
    20.7544  21.1001  21.3321  21.5258

          k = 0.2486-0.1435-0.1673 (  2872 PWs)   bands (ev):

   -41.3453 -41.2472 -15.8364 -15.4691 -15.4283 -15.3525 -15.1762 -15.0712
     7.7531  13.7471  14.2197  15.1872  16.8649  17.3749  17.9541  18.5841
    20.1171  20.5486  22.2099  22.2337

          k =-0.4972-0.2870-0.0000 (  2878 PWs)   bands (ev):

   -41.2970 -41.2364 -15.8462 -15.6496 -15.5314 -15.4850 -15.2138 -15.1623
     8.1167  13.1588  14.7030  15.2355  15.3575  17.4416  18.8359  21.1197
    22.0760  22.8328  22.8484  23.0274

          k =-0.4972-0.2870 0.1673 (  2892 PWs)   bands (ev):

   -41.2884 -41.2449 -15.9309 -15.7605 -15.4422 -15.3854 -15.2072 -15.1557
     8.0708  13.0833  14.9391  14.9583  15.9938  17.7683  18.7978  20.6341
    21.4828  22.1349  22.2936  22.6991

          k =-0.4972-0.2870-0.3347 (  2872 PWs)   bands (ev):

   -41.2722 -41.2610 -15.9428 -15.8977 -15.3655 -15.2860 -15.2107 -15.1726
     8.0278  13.0201  14.8221  15.2223  16.5290  18.2781  18.7071  19.8003
    21.1675  21.5053  22.1567  22.5828

          k =-0.4972-0.0000 0.0000 (  2882 PWs)   bands (ev):

   -41.2972 -41.2361 -15.7638 -15.6222 -15.5861 -15.4225 -15.2946 -15.2084
     8.1294  13.6786  14.6056  15.3013  16.3876  16.5100  17.7213  20.9621
    21.2650  22.2158  22.2754  23.5376

          k =-0.4972 0.0000 0.1673 (  2872 PWs)   bands (ev):

   -41.2886 -41.2447 -15.8097 -15.7443 -15.5523 -15.3739 -15.2875 -15.1237
     8.1354  13.6901  14.3744  15.1182  16.8081  17.1164  17.9089  19.9648
    21.1183  21.7061  22.5277  23.0984

          k =-0.4972-0.0000-0.3347 (  2886 PWs)   bands (ev):

   -41.2722 -41.2611 -15.8530 -15.8067 -15.5247 -15.4409 -15.1371 -15.1226
     8.1411  13.8641  13.9940  14.9951  17.5514  17.8319  18.0513  18.9962
    20.2939  21.6766  22.4502  22.8310

          k =-0.4972-0.0000-0.1673 (  2872 PWs)   bands (ev):

   -41.2886 -41.2447 -15.8097 -15.7443 -15.5523 -15.3739 -15.2875 -15.1237
     8.1354  13.6901  14.3744  15.1182  16.8081  17.1164  17.9089  19.9648
    21.1183  21.7061  22.5277  23.0984

          k =-0.4972-0.8611-0.0000 (  2878 PWs)   bands (ev):

   -41.2970 -41.2364 -15.8462 -15.6496 -15.5314 -15.4850 -15.2138 -15.1623
     8.1167  13.1588  14.7030  15.2355  15.3575  17.4416  18.8359  21.1197
    22.0760  22.8328  22.8484  23.0274

          k =-0.4972-0.8611 0.1673 (  2892 PWs)   bands (ev):

   -41.2884 -41.2449 -15.9309 -15.7605 -15.4422 -15.3854 -15.2072 -15.1557
     8.0708  13.0833  14.9391  14.9583  15.9938  17.7683  18.7978  20.6341
    21.4828  22.1349  22.2936  22.6991

          k =-0.4972-0.8611-0.3347 (  2872 PWs)   bands (ev):

   -41.2722 -41.2610 -15.9428 -15.8977 -15.3655 -15.2860 -15.2107 -15.1726
     8.0278  13.0201  14.8221  15.2223  16.5290  18.2781  18.7071  19.8003
    21.1675  21.5053  22.1567  22.5828

     the Fermi energy is    20.1557 ev

!    total energy              =    -746.38845130 Ry
     total all-electron energy =    -16272.408491 Ry
     estimated scf accuracy    <          3.2E-10 Ry
     smearing contrib. (-TS)   =      -0.00212905 Ry
     internal energy E=F+TS    =    -746.38632225 Ry

     The total energy is F=E-TS. E is the sum of the following terms:
     one-electron contribution =     -34.73748770 Ry
     hartree contribution      =      40.25179533 Ry
     xc contribution           =     -43.63495879 Ry
     ewald contribution        =    -247.24023910 Ry
     DFT-D3 Dispersion         =      -0.10631674 Ry
     one-center paw contrib.   =    -460.91911525 Ry

     convergence has been achieved in  15 iterations

     Forces acting on atoms (cartesian axes, Ry/au):

     atom    1 type  1   force =    -0.00000025    0.00000050    0.00011550
     atom    2 type  1   force =     0.00000021   -0.00000057   -0.00011480
     atom    3 type  2   force =     0.00000004    0.00000007   -0.00000069
     The non-local contrib.  to forces
     atom    1 type  1   force =     0.00000035   -0.00000032   -0.07401931
     atom    2 type  1   force =    -0.00000059    0.00000031    0.07401872
     atom    3 type  2   force =    -0.00000002    0.00000010   -0.00000042
     The ionic contribution  to forces
     atom    1 type  1   force =    -0.00000905    0.00001060   -9.21950776
     atom    2 type  1   force =     0.00001006   -0.00001131    9.21951246
     atom    3 type  2   force =    -0.00000101    0.00000071   -0.00000470
     The local contribution  to forces
     atom    1 type  1   force =     0.00000861   -0.00001003    9.29182086
     atom    2 type  1   force =    -0.00000858    0.00001075   -9.29182428
     atom    3 type  2   force =     0.00000078   -0.00000072    0.00000343
     The core correction contribution to forces
     atom    1 type  1   force =    -0.00000002    0.00000003    0.00245225
     atom    2 type  1   force =     0.00000004   -0.00000003   -0.00245222
     atom    3 type  2   force =    -0.00000000   -0.00000000    0.00000001
     The Hubbard contrib.    to forces
     atom    1 type  1   force =     0.00000000    0.00000000    0.00000000
     atom    2 type  1   force =     0.00000000    0.00000000    0.00000000
     atom    3 type  2   force =     0.00000000    0.00000000    0.00000000
     The SCF correction term to forces
     atom    1 type  1   force =    -0.00000030    0.00000022   -0.00004466
     atom    2 type  1   force =    -0.00000088   -0.00000030    0.00004466
     atom    3 type  2   force =     0.00000014   -0.00000002    0.00000100

     DFT-D3 dispersion contribution to forces:
     atom    1 type  1   force =     0.00000000   -0.00000000   -0.00058586
     atom    2 type  1   force =    -0.00000000    0.00000000    0.00058586
     atom    3 type  2   force =     0.00000000   -0.00000000   -0.00000000

     Total force =     0.000163     Total SCF correction =     0.000063
     SCF correction compared to forces is large: reduce conv_thr to get better values


     Computing stress (Cartesian axis) and pressure

          total   stress  (Ry/bohr**3)                   (kbar)     P=       -0.11
  -0.00000113  -0.00000000   0.00000000           -0.17       -0.00        0.00
  -0.00000000  -0.00000112   0.00000000           -0.00       -0.17        0.00
   0.00000000   0.00000000   0.00000008            0.00        0.00        0.01


     Writing all to output data dir ./outdir/pwscf.save/
 
     init_run     :      0.35s CPU      0.39s WALL (       2 calls)
     electrons    :     13.82s CPU     15.89s WALL (       7 calls)
     update_pot   :      0.46s CPU      0.48s WALL (       5 calls)
     forces       :      1.58s CPU      2.56s WALL (       7 calls)
     force_dftd3  :      1.24s CPU      2.20s WALL (       7 calls)
     stress       :      2.06s CPU      3.07s WALL (       7 calls)
     stres_dftd3  :      1.25s CPU      2.21s WALL (       7 calls)

     Called by init_run:
     wfcinit      :      0.10s CPU      0.11s WALL (       2 calls)
     potinit      :      0.08s CPU      0.10s WALL (       2 calls)
     hinit0       :      0.14s CPU      0.15s WALL (       2 calls)

     Called by electrons:
     c_bands      :      8.77s CPU      9.59s WALL (      69 calls)
     sum_band     :      1.45s CPU      1.56s WALL (      69 calls)
     v_of_rho     :      0.16s CPU      0.18s WALL (      74 calls)
     newd         :      0.30s CPU      0.32s WALL (      74 calls)
     PAW_pot      :      2.29s CPU      2.48s WALL (      79 calls)
     mix_rho      :      0.03s CPU      0.04s WALL (      69 calls)
     energy_dftd3 :      1.14s CPU      2.00s WALL (       7 calls)

     Called by c_bands:
     init_us_2    :      0.09s CPU      0.10s WALL (    2862 calls)
     init_us_2:cp :      0.09s CPU      0.10s WALL (    2862 calls)
     cegterg      :      8.02s CPU      8.51s WALL (    1242 calls)

     Called by *egterg:
     cdiaghg      :      2.07s CPU      2.16s WALL (    4966 calls)
     h_psi        :      5.24s CPU      5.58s WALL (    5128 calls)
     s_psi        :      0.09s CPU      0.09s WALL (    5128 calls)
     g_psi        :      0.02s CPU      0.02s WALL (    3850 calls)

     Called by h_psi:
     h_psi:calbec :      0.20s CPU      0.21s WALL (    5128 calls)
     vloc_psi     :      4.90s CPU      5.23s WALL (    5128 calls)
     add_vuspsi   :      0.10s CPU      0.10s WALL (    5128 calls)

     General routines
     calbec       :      0.28s CPU      0.30s WALL (    7090 calls)
     fft          :      0.13s CPU      0.16s WALL (    1130 calls)
     ffts         :      0.01s CPU      0.01s WALL (     143 calls)
     fftw         :      5.17s CPU      5.51s WALL (  160634 calls)
     interpolate  :      0.02s CPU      0.02s WALL (      74 calls)
 
     Parallel routines
 
     PWSCF        :     18.68s CPU     23.05s WALL

 
   This run was terminated on:  14:30:45  15Dec2023            

=------------------------------------------------------------------------------=
   JOB DONE.
=------------------------------------------------------------------------------=
