
     Program PWSCF v.7.3 starts on 19Mar2024 at 14:38:26 

     This program is part of the open-source Quantum ESPRESSO suite
     for quantum simulation of materials; please cite
         "P. Giannozzi et al., J. Phys.:Condens. Matter 21 395502 (2009);
         "P. Giannozzi et al., J. Phys.:Condens. Matter 29 465901 (2017);
         "P. Giannozzi et al., J. Chem. Phys. 152 154105 (2020);
          URL http://www.quantum-espresso.org", 
     in publications or presentations arising from this work. More details at
     http://www.quantum-espresso.org/quote

     Parallel version (MPI & OpenMP), running on      36 processor cores
     Number of MPI processes:                36
     Threads/MPI process:                     1

     MPI processes distributed on     1 nodes
     555382 MiB available memory on the printing compute node when the environment starts
 
     Waiting for input...
     Reading input from standard input
Warning: card &CELL ignored
Warning: card / ignored

     Current dimensions of program PWSCF are:
     Max number of different atomic species (ntypx) = 10
     Max number of k-points (npk) =  40000
     Max angular momentum in pseudopotentials (lmaxx) =  4
     file Mo.pbe-spn-kjpaw_psl.1.0.0.UPF: wavefunction(s)  4S 4D renormalized
     file S.pbe-n-kjpaw_psl.1.0.0.UPF: wavefunction(s)  3S 3P renormalized
     file Pd.pbe-spn-kjpaw_psl.1.0.0.UPF: wavefunction(s)  4S 5S 4D renormalized
     file Pt.pbe-spfn-kjpaw_psl.1.0.0.UPF: wavefunction(s)  5P 4F renormalized
 
     R & G space division:  proc/nbgrp/npool/nimage =      36
     Subspace diagonalization in iterative solution of the eigenvalue problem:
     one sub-group per band group will be used
     scalapack distributed-memory algorithm (size of sub-group:  6*  6 procs)

 
     Parallelization info
     --------------------
     sticks:   dense  smooth     PW     G-vecs:    dense   smooth      PW
     Min         585     334     89               198743    85850   11735
     Max         586     335     90               198750    85861   11748
     Sum       21073   12049   3205              7154885  3090769  422587
 
     Using Slab Decomposition
 


     bravais-lattice index     =            0
     lattice parameter (alat)  =      23.8199  a.u.
     unit-cell volume          =   33861.0370 (a.u.)^3
     number of atoms/cell      =          194
     number of atomic types    =            4
     number of electrons       =      1714.00
     number of Kohn-Sham states=         1028
     kinetic-energy cutoff     =      77.0000  Ry
     charge density cutoff     =     539.0000  Ry
     scf convergence threshold =      1.0E-06
     mixing beta               =       0.2000
     number of iterations used =            8  plain     mixing
     energy convergence thresh.=      1.0E-04
     force convergence thresh. =      1.0E-03
     Exchange-correlation= SLA  PW   PBX  PBC
                           (   1   4   3   4   0   0   0)
     nstep                     =         1000


     Effective Screening Medium Method
     =================================
     Boundary Conditions: Vacuum-Slab-Vacuum
     total charge in unit cell        =   0.0000
     grid points for fit at edges     =        4 
 

     celldm(1)=  23.819920  celldm(2)=   0.000000  celldm(3)=   0.000000
     celldm(4)=   0.000000  celldm(5)=   0.000000  celldm(6)=   0.000000

     crystal axes: (cart. coord. in units of alat)
               a(1) = (   1.000000   0.000000   0.000000 )  
               a(2) = (  -0.499999   0.866026   0.000000 )  
               a(3) = (   0.000000   0.000000   2.893000 )  

     reciprocal axes: (cart. coord. in units 2 pi/alat)
               b(1) = (  1.000000  0.577349  0.000000 )  
               b(2) = (  0.000000  1.154700  0.000000 )  
               b(3) = (  0.000000  0.000000  0.345662 )  


     PseudoPot. # 1 for Mo read from file:
     ./pseudo/Mo.pbe-spn-kjpaw_psl.1.0.0.UPF
     MD5 check sum: 317bf72632116215fd98f72de1686f13
     Pseudo is Projector augmented-wave + core cor, Zval = 14.0
     Generated using 'atomic' code by A. Dal Corso  v.7.2
     Shape of augmentation charge: PSQ
     Using radial grid of 1229 points,  6 beta functions with: 
                l(1) =   0
                l(2) =   0
                l(3) =   1
                l(4) =   1
                l(5) =   2
                l(6) =   2
     Q(r) pseudized with 0 coefficients 


     PseudoPot. # 2 for S  read from file:
     ./pseudo/S.pbe-n-kjpaw_psl.1.0.0.UPF
     MD5 check sum: 8b7b5302570d38d5e87fed6a1065abda
     Pseudo is Projector augmented-wave + core cor, Zval =  6.0
     Generated using 'atomic' code by A. Dal Corso  v.7.2
     Shape of augmentation charge: PSQ
     Using radial grid of 1151 points,  6 beta functions with: 
                l(1) =   0
                l(2) =   0
                l(3) =   1
                l(4) =   1
                l(5) =   2
                l(6) =   2
     Q(r) pseudized with 0 coefficients 


     PseudoPot. # 3 for Pd read from file:
     ./pseudo/Pd.pbe-spn-kjpaw_psl.1.0.0.UPF
     MD5 check sum: a60571a671f2502b8a6a4569d20a6edb
     Pseudo is Projector augmented-wave + core cor, Zval = 18.0
     Generated using 'atomic' code by A. Dal Corso  v.7.2
     Shape of augmentation charge: PSQ
     Using radial grid of 1235 points,  6 beta functions with: 
                l(1) =   0
                l(2) =   0
                l(3) =   1
                l(4) =   1
                l(5) =   2
                l(6) =   2
     Q(r) pseudized with 0 coefficients 


     PseudoPot. # 4 for Pt read from file:
     ./pseudo/Pt.pbe-spfn-kjpaw_psl.1.0.0.UPF
     MD5 check sum: 620096ebf4e6ebacc94de60fd67efcb5
     Pseudo is Projector augmented-wave + core cor, Zval = 32.0
     Generated using 'atomic' code by A. Dal Corso  v.7.2
     Shape of augmentation charge: PSQ
     Using radial grid of 1277 points,  8 beta functions with: 
                l(1) =   0
                l(2) =   0
                l(3) =   1
                l(4) =   1
                l(5) =   2
                l(6) =   2
                l(7) =   3
                l(8) =   3
     Q(r) pseudized with 0 coefficients 


     atomic species   valence    mass     pseudopotential
     Mo               14.00    95.95000     Mo( 1.00)
     S                 6.00    32.06000     S ( 1.00)
     Pd               18.00   106.42000     Pd( 1.00)
     Pt               32.00   195.08400     Pt( 1.00)

     No symmetry found



   Cartesian axes

     site n.     atom                  positions (alat units)
         1        Mo     tau(   1) = (   0.0000010   0.1443372  -0.7272732  )
         2        Mo     tau(   2) = (   0.1249995   0.0721706  -0.2424038  )
         3        S      tau(   3) = (   0.0000015   0.1443386  -0.3667807  )
         4        S      tau(   4) = (   0.1250010   0.0721682  -0.6030489  )
         5        S      tau(   5) = (   0.1250010   0.0721683  -0.8514963  )
         6        S      tau(   6) = (   0.0000015   0.1443389  -0.1180260  )
         7        Mo     tau(   7) = (   0.0000007   0.1443589   0.2424205  )
         8        Mo     tau(   8) = (   0.1250041   0.0720322   0.7266168  )
         9        S      tau(   9) = (   0.0000742   0.1444871   0.6020949  )
        10        S      tau(  10) = (   0.1250024   0.0721701   0.3667478  )
        11        S      tau(  11) = (   0.1250035   0.0721876   0.1180348  )
        12        S      tau(  12) = (  -0.0004118   0.1430864   0.8514340  )
        13        Mo     tau(  13) = (  -0.1249989   0.3608437  -0.7272732  )
        14        Mo     tau(  14) = (   0.0000030   0.2886752  -0.2424042  )
        15        S      tau(  15) = (  -0.1249977   0.3608450  -0.3667802  )
        16        S      tau(  16) = (   0.0000012   0.2886747  -0.6030489  )
        17        S      tau(  17) = (   0.0000012   0.2886748  -0.8514963  )
        18        S      tau(  18) = (  -0.1249977   0.3608454  -0.1180274  )
        19        Mo     tau(  19) = (  -0.1249729   0.3608584   0.2424608  )
        20        Mo     tau(  20) = (  -0.0007193   0.2876626   0.7275440  )
        21        S      tau(  21) = (  -0.1251115   0.3607789   0.6027257  )
        22        S      tau(  22) = (   0.0000621   0.2887099   0.3668377  )
        23        S      tau(  23) = (  -0.0000096   0.2886902   0.1180527  )
        24        S      tau(  24) = (  -0.1254673   0.3605734   0.8517408  )
        25        Mo     tau(  25) = (  -0.2499987   0.5773502  -0.7272732  )
        26        Mo     tau(  26) = (  -0.1249977   0.5051839  -0.2424055  )
        27        S      tau(  27) = (  -0.2499981   0.5773518  -0.3667809  )
        28        S      tau(  28) = (  -0.1249986   0.5051812  -0.6030489  )
        29        S      tau(  29) = (  -0.1249986   0.5051813  -0.8514963  )
        30        S      tau(  30) = (  -0.2499979   0.5773512  -0.1180266  )
        31        Mo     tau(  31) = (  -0.2499795   0.5773389   0.2424205  )
        32        Mo     tau(  32) = (  -0.1262356   0.5050639   0.7275441  )
        33        S      tau(  33) = (  -0.2498323   0.5773390   0.6020948  )
        34        S      tau(  34) = (  -0.1249376   0.5052159   0.3668377  )
        35        S      tau(  35) = (  -0.1249905   0.5051638   0.1180531  )
        36        S      tau(  36) = (  -0.2512883   0.5776183   0.8514340  )
        37        Mo     tau(  37) = (  -0.3749985   0.7938567  -0.7272732  )
        38        Mo     tau(  38) = (  -0.2500001   0.7216874  -0.2424031  )
        39        S      tau(  39) = (  -0.3749980   0.7938584  -0.3667800  )
        40        S      tau(  40) = (  -0.2499984   0.7216877  -0.6030489  )
        41        S      tau(  41) = (  -0.2499984   0.7216878  -0.8514963  )
        42        S      tau(  42) = (  -0.3749982   0.7938585  -0.1180264  )
        43        Mo     tau(  43) = (  -0.3749962   0.7938568   0.2423838  )
        44        Mo     tau(  44) = (  -0.2501148   0.7217588   0.7266170  )
        45        S      tau(  45) = (  -0.3749945   0.7938590   0.6021274  )
        46        S      tau(  46) = (  -0.2499958   0.7216877   0.3667488  )
        47        S      tau(  47) = (  -0.2499810   0.7216794   0.1180323  )
        48        S      tau(  48) = (  -0.3749953   0.7938585   0.8511588  )
        49        Mo     tau(  49) = (   0.2500010   0.1443372  -0.7272732  )
        50        Mo     tau(  50) = (   0.3750034   0.0721723  -0.2424032  )
        51        S      tau(  51) = (   0.2500017   0.1443391  -0.3667788  )
        52        S      tau(  52) = (   0.3750010   0.0721682  -0.6030489  )
        53        S      tau(  53) = (   0.3750010   0.0721683  -0.8514963  )
        54        S      tau(  54) = (   0.2500016   0.1443391  -0.1180271  )
        55        Mo     tau(  55) = (   0.2500054   0.1443594   0.2424211  )
        56        Mo     tau(  56) = (   0.3749279   0.0721263   0.7263991  )
        57        S      tau(  57) = (   0.2499344   0.1444864   0.6020948  )
        58        S      tau(  58) = (   0.3750316   0.0721860   0.3667597  )
        59        S      tau(  59) = (   0.3749924   0.0721644   0.1180346  )
        60        S      tau(  60) = (   0.2504199   0.1430865   0.8514340  )
        61        Mo     tau(  61) = (   0.1250012   0.3608437  -0.7272732  )
        62        Mo     tau(  62) = (   0.2500029   0.2886782  -0.2424031  )
        63        S      tau(  63) = (   0.1250024   0.3608455  -0.3667794  )
        64        S      tau(  64) = (   0.2500012   0.2886747  -0.6030489  )
        65        S      tau(  65) = (   0.2500012   0.2886748  -0.8514963  )
        66        S      tau(  66) = (   0.1250021   0.3608455  -0.1180270  )
        67        Mo     tau(  67) = (   0.1250038   0.3608653   0.2423963  )
        68        Mo     tau(  68) = (   0.2507284   0.2876625   0.7275438  )
        69        S      tau(  69) = (   0.1250046   0.3627170   0.6061948  )
        70        S      tau(  70) = (   0.2499461   0.2887116   0.3668373  )
        71        S      tau(  71) = (   0.2500171   0.2886900   0.1180543  )
        72        S      tau(  72) = (   0.1250046   0.3519103   0.8557806  )
        73        Mo     tau(  73) = (   0.0000014   0.5773502  -0.7272732  )
        74        Mo     tau(  74) = (   0.1250045   0.5051840  -0.2424036  )
        75        S      tau(  75) = (   0.0000030   0.5773520  -0.3667799  )
        76        S      tau(  76) = (   0.1250014   0.5051812  -0.6030489  )
        77        S      tau(  77) = (   0.1250014   0.5051813  -0.8514963  )
        78        S      tau(  78) = (   0.0000026   0.5773517  -0.1180274  )
        79        Mo     tau(  79) = (   0.0000222   0.5773400   0.2423964  )
        80        Mo     tau(  80) = (   0.1250047   0.5051836   0.7321380  )
        81        S      tau(  81) = (   0.0016251   0.5764170   0.6061946  )
        82        S      tau(  82) = (   0.1250047   0.5051815   0.3667777  )
        83        S      tau(  83) = (   0.1250048   0.5051819   0.1179962  )
        84        S      tau(  84) = (  -0.0077335   0.5818202   0.8557807  )
        85        Mo     tau(  85) = (  -0.1249984   0.7938567  -0.7272732  )
        86        Mo     tau(  86) = (   0.0000069   0.7216896  -0.2424039  )
        87        S      tau(  87) = (  -0.1249975   0.7938582  -0.3667782  )
        88        S      tau(  88) = (   0.0000016   0.7216877  -0.6030489  )
        89        S      tau(  89) = (   0.0000016   0.7216878  -0.8514963  )
        90        S      tau(  90) = (  -0.1249973   0.7938582  -0.1180279  )
        91        Mo     tau(  91) = (  -0.1249774   0.7938494   0.2424207  )
        92        Mo     tau(  92) = (  -0.0005116   0.7228241   0.7275438  )
        93        S      tau(  93) = (  -0.1249026   0.7937246   0.6020948  )
        94        S      tau(  94) = (   0.0000043   0.7216209   0.3668361  )
        95        S      tau(  95) = (   0.0000226   0.7216928   0.1180549  )
        96        S      tau(  96) = (  -0.1258721   0.7948451   0.8514341  )
        97        Mo     tau(  97) = (   0.5000010   0.1443372  -0.7272732  )
        98        Mo     tau(  98) = (   0.6250001   0.0721662  -0.2424040  )
        99        S      tau(  99) = (   0.5000017   0.1443386  -0.3667801  )
       100        S      tau( 100) = (   0.6250010   0.0721682  -0.6030489  )
       101        S      tau( 101) = (   0.6250010   0.0721683  -0.8514963  )
       102        S      tau( 102) = (   0.5000020   0.1443388  -0.1180261  )
       103        Mo     tau( 103) = (   0.5000075   0.1443411   0.2423793  )
       104        Mo     tau( 104) = (   0.6250042   0.0723339   0.7270464  )
       105        S      tau( 105) = (   0.5002366   0.1444733   0.6023595  )
       106        S      tau( 106) = (   0.6250029   0.0721787   0.3667562  )
       107        S      tau( 107) = (   0.6250040   0.0721260   0.1180315  )
       108        S      tau( 108) = (   0.4998752   0.1442648   0.8512770  )
       109        Mo     tau( 109) = (   0.3750012   0.3608437  -0.7272732  )
       110        Mo     tau( 110) = (   0.4999991   0.2886761  -0.2424038  )
       111        S      tau( 111) = (   0.3750012   0.3608452  -0.3667804  )
       112        S      tau( 112) = (   0.5000012   0.2886747  -0.6030489  )
       113        S      tau( 113) = (   0.5000012   0.2886748  -0.8514963  )
       114        S      tau( 114) = (   0.3750014   0.3608455  -0.1180261  )
       115        Mo     tau( 115) = (   0.3749795   0.3608597   0.2424601  )
       116        Mo     tau( 116) = (   0.5001461   0.2885951   0.7270464  )
       117        S      tau( 117) = (   0.3751205   0.3607791   0.6027254  )
       118        S      tau( 118) = (   0.5000105   0.2886721   0.3667569  )
       119        S      tau( 119) = (   0.4999655   0.2886989   0.1180297  )
       120        S      tau( 120) = (   0.3754765   0.3605739   0.8517402  )
       121        Mo     tau( 121) = (   0.2500014   0.5773502  -0.7272732  )
       122        Mo     tau( 122) = (   0.3749983   0.5051825  -0.2424043  )
       123        S      tau( 123) = (   0.2500017   0.5773519  -0.3667810  )
       124        S      tau( 124) = (   0.3750014   0.5051812  -0.6030489  )
       125        S      tau( 125) = (   0.3750014   0.5051813  -0.8514963  )
       126        S      tau( 126) = (   0.2500018   0.5773519  -0.1180256  )
       127        Mo     tau( 127) = (   0.2499863   0.5773402   0.2423965  )
       128        Mo     tau( 128) = (   0.3762454   0.5050642   0.7275433  )
       129        S      tau( 129) = (   0.2483844   0.5764169   0.6061944  )
       130        S      tau( 130) = (   0.3749442   0.5052158   0.3668400  )
       131        S      tau( 131) = (   0.3749972   0.5051650   0.1180510  )
       132        S      tau( 132) = (   0.2577438   0.5818204   0.8557797  )
       133        Mo     tau( 133) = (   0.1250016   0.7938567  -0.7272732  )
       134        Mo     tau( 134) = (   0.2499995   0.7216883  -0.2424036  )
       135        S      tau( 135) = (   0.1250024   0.7938578  -0.3667813  )
       136        S      tau( 136) = (   0.2500016   0.7216877  -0.6030489  )
       137        S      tau( 137) = (   0.2500016   0.7216878  -0.8514963  )
       138        S      tau( 138) = (   0.1250024   0.7938579  -0.1180253  )
       139        Mo     tau( 139) = (   0.1250047   0.7938294   0.2424606  )
       140        Mo     tau( 140) = (   0.2505220   0.7228241   0.7275433  )
       141        S      tau( 141) = (   0.1250053   0.7939926   0.6027252  )
       142        S      tau( 142) = (   0.2500048   0.7216200   0.3668387  )
       143        S      tau( 143) = (   0.2499864   0.7216915   0.1180524  )
       144        S      tau( 144) = (   0.1250054   0.7944033   0.8517402  )
       145        Mo     tau( 145) = (   0.7500010   0.1443372  -0.7272732  )
       146        Mo     tau( 146) = (   0.8750038   0.0721696  -0.2424038  )
       147        S      tau( 147) = (   0.7500016   0.1443382  -0.3667789  )
       148        S      tau( 148) = (   0.8750010   0.0721682  -0.6030489  )
       149        S      tau( 149) = (   0.8750010   0.0721683  -0.8514963  )
       150        S      tau( 150) = (   0.7500016   0.1443384  -0.1180279  )
       151        Mo     tau( 151) = (   0.7499986   0.1443409   0.2423802  )
       152        Mo     tau( 152) = (   0.8750804   0.0721266   0.7263988  )
       153        S      tau( 153) = (   0.7497713   0.1444738   0.6023592  )
       154        S      tau( 154) = (   0.8749758   0.0721848   0.3667595  )
       155        S      tau( 155) = (   0.8750127   0.0721632   0.1180342  )
       156        S      tau( 156) = (   0.7501331   0.1442647   0.8512770  )
       157        Mo     tau( 157) = (   0.6250012   0.3608437  -0.7272732  )
       158        Mo     tau( 158) = (   0.7500028   0.2886769  -0.2424041  )
       159        S      tau( 159) = (   0.6250015   0.3608451  -0.3667792  )
       160        S      tau( 160) = (   0.7500012   0.2886747  -0.6030489  )
       161        S      tau( 161) = (   0.7500012   0.2886748  -0.8514963  )
       162        S      tau( 162) = (   0.6250016   0.3608454  -0.1180280  )
       163        Mo     tau( 163) = (   0.6250032   0.3608391   0.2423797  )
       164        Mo     tau( 164) = (   0.7498627   0.2885951   0.7270467  )
       165        S      tau( 165) = (   0.6250046   0.3605769   0.6023590  )
       166        S      tau( 166) = (   0.7499943   0.2886711   0.3667569  )
       167        S      tau( 167) = (   0.7500399   0.2886970   0.1180318  )
       168        S      tau( 168) = (   0.6250043   0.3609947   0.8512770  )
       169        Mo     tau( 169) = (   0.5000014   0.5773502  -0.7272732  )
       170        Mo     tau( 170) = (   0.6250029   0.5051841  -0.2424047  )
       171        S      tau( 171) = (   0.5000014   0.5773518  -0.3667794  )
       172        S      tau( 172) = (   0.6250014   0.5051812  -0.6030489  )
       173        S      tau( 173) = (   0.6250014   0.5051813  -0.8514963  )
       174        S      tau( 174) = (   0.5000016   0.5773516  -0.1180277  )
       175        Mo     tau( 175) = (   0.4999855   0.5773383   0.2424207  )
       176        Mo     tau( 176) = (   0.6250049   0.5052713   0.7263986  )
       177        S      tau( 177) = (   0.4998428   0.5773389   0.6020941  )
       178        S      tau( 178) = (   0.6250030   0.5051500   0.3667588  )
       179        S      tau( 179) = (   0.6250025   0.5051935   0.1180351  )
       180        S      tau( 180) = (   0.5012979   0.5776190   0.8514332  )
       181        Mo     tau( 181) = (   0.3750016   0.7938567  -0.7272732  )
       182        Mo     tau( 182) = (   0.5000025   0.7216901  -0.2424039  )
       183        S      tau( 183) = (   0.3750019   0.7938578  -0.3667793  )
       184        S      tau( 184) = (   0.5000016   0.7216877  -0.6030489  )
       185        S      tau( 185) = (   0.5000016   0.7216878  -0.8514963  )
       186        S      tau( 186) = (   0.3750020   0.7938579  -0.1180272  )
       187        Mo     tau( 187) = (   0.3749848   0.7938487   0.2424206  )
       188        Mo     tau( 188) = (   0.5001249   0.7217591   0.7266160  )
       189        S      tau( 189) = (   0.3749125   0.7937251   0.6020942  )
       190        S      tau( 190) = (   0.5000021   0.7216868   0.3667472  )
       191        S      tau( 191) = (   0.4999874   0.7216780   0.1180346  )
       192        S      tau( 192) = (   0.3758826   0.7948451   0.8514332  )
       193        Pd     tau( 193) = (   0.1250063   0.5051842   0.9601361  )
       194        Pt     tau( 194) = (   0.5001206   0.7217794   0.9704117  )

     --------------------------------------------
     DFT-D3 Dispersion Correction (3-body terms):
     --------------------------------------------
       Reference C6 values for interpolation: 

         atom   Coordination number   C6
         S          0.000           268.01
         S          0.995           261.99
         S          1.990           251.62
         Mo         0.000          1691.79
         Mo         1.942          1004.01
         Mo        11.056           674.22
         Pd         0.000          1217.01
         Pd         1.863           573.90
         Pd         5.710           531.75
         Pt         0.000           782.29
         Pt         1.919           692.72
         Pt         6.667           673.75

       Values used:

         atom   Coordination number  R0_AB[au]  C6      C8
         Mo        10.208            3.547    674.22  77634.20
         Mo        10.221            3.547    674.22  77634.20
         S          3.858            3.128    251.62  12327.25
         S          3.859            3.128    251.62  12327.25
         S          3.758            3.128    251.62  12327.25
         S          3.859            3.128    251.62  12327.25
         Mo        10.220            3.547    674.22  77634.20
         Mo        10.244            3.547    674.22  77634.20
         S          3.847            3.128    251.62  12327.25
         S          3.861            3.128    251.62  12327.25
         S          3.859            3.128    251.62  12327.25
         S          3.817            3.128    251.62  12327.25
         Mo        10.208            3.547    674.22  77634.20
         Mo        10.221            3.547    674.22  77634.20
         S          3.858            3.128    251.62  12327.25
         S          3.859            3.128    251.62  12327.25
         S          3.758            3.128    251.62  12327.25
         S          3.859            3.128    251.62  12327.25
         Mo        10.221            3.547    674.22  77634.20
         Mo        10.191            3.547    674.22  77634.20
         S          3.855            3.128    251.62  12327.25
         S          3.856            3.128    251.62  12327.25
         S          3.859            3.128    251.62  12327.25
         S          3.756            3.128    251.62  12327.25
         Mo        10.208            3.547    674.21  77634.20
         Mo        10.221            3.547    674.22  77634.20
         S          3.858            3.128    251.62  12327.25
         S          3.859            3.128    251.62  12327.25
         S          3.758            3.128    251.62  12327.25
         S          3.859            3.128    251.62  12327.25
         Mo        10.220            3.547    674.22  77634.20
         Mo        10.191            3.547    674.22  77634.20
         S          3.847            3.128    251.62  12327.25
         S          3.856            3.128    251.62  12327.25
         S          3.859            3.128    251.62  12327.25
         S          3.817            3.128    251.62  12327.25
         Mo        10.208            3.547    674.22  77634.20
         Mo        10.221            3.547    674.22  77634.20
         S          3.858            3.128    251.62  12327.25
         S          3.859            3.128    251.62  12327.25
         S          3.758            3.128    251.62  12327.25
         S          3.859            3.128    251.62  12327.25
         Mo        10.219            3.547    674.22  77634.20
         Mo        10.244            3.547    674.22  77634.20
         S          3.857            3.128    251.62  12327.25
         S          3.861            3.128    251.62  12327.25
         S          3.859            3.128    251.62  12327.25
         S          4.748            3.128    251.62  12327.25
         Mo        10.208            3.547    674.22  77634.20
         Mo        10.221            3.547    674.22  77634.20
         S          3.858            3.128    251.62  12327.25
         S          3.859            3.128    251.62  12327.25
         S          3.758            3.128    251.62  12327.25
         S          3.859            3.128    251.62  12327.25
         Mo        10.220            3.547    674.22  77634.20
         Mo        10.244            3.547    674.22  77634.20
         S          3.847            3.128    251.62  12327.25
         S          3.860            3.128    251.62  12327.25
         S          3.859            3.128    251.62  12327.25
         S          3.806            3.128    251.62  12327.25
         Mo        10.208            3.547    674.22  77634.20
         Mo        10.221            3.547    674.22  77634.20
         S          3.858            3.128    251.62  12327.25
         S          3.859            3.128    251.62  12327.25
         S          3.758            3.128    251.62  12327.25
         S          3.859            3.128    251.62  12327.25
         Mo        10.222            3.547    674.22  77634.20
         Mo        10.191            3.547    674.22  77634.20
         S          3.865            3.128    251.62  12327.25
         S          3.856            3.128    251.62  12327.25
         S          3.859            3.128    251.62  12327.25
         S          4.653            3.128    251.62  12327.25
         Mo        10.208            3.547    674.22  77634.20
         Mo        10.221            3.547    674.22  77634.20
         S          3.858            3.128    251.62  12327.25
         S          3.859            3.128    251.62  12327.25
         S          3.758            3.128    251.62  12327.25
         S          3.859            3.128    251.62  12327.25
         Mo        10.222            3.547    674.22  77634.20
         Mo        10.821            3.547    674.22  77634.20
         S          3.865            3.128    251.62  12327.25
         S          3.853            3.128    251.62  12327.25
         S          3.859            3.128    251.62  12327.25
         S          4.653            3.128    251.62  12327.25
         Mo        10.208            3.547    674.22  77634.20
         Mo        10.221            3.547    674.22  77634.20
         S          3.858            3.128    251.62  12327.25
         S          3.859            3.128    251.62  12327.25
         S          3.758            3.128    251.62  12327.25
         S          3.859            3.128    251.62  12327.25
         Mo        10.220            3.547    674.22  77634.20
         Mo        10.191            3.547    674.22  77634.20
         S          3.847            3.128    251.62  12327.25
         S          3.856            3.128    251.62  12327.25
         S          3.859            3.128    251.62  12327.25
         S          3.806            3.128    251.62  12327.25
         Mo        10.208            3.547    674.22  77634.20
         Mo        10.221            3.547    674.22  77634.20
         S          3.858            3.128    251.62  12327.25
         S          3.859            3.128    251.62  12327.25
         S          3.758            3.128    251.62  12327.25
         S          3.859            3.128    251.62  12327.25
         Mo        10.220            3.547    674.22  77634.20
         Mo        10.230            3.547    674.22  77634.20
         S          3.862            3.128    251.62  12327.25
         S          3.860            3.128    251.62  12327.25
         S          3.859            3.128    251.62  12327.25
         S          3.765            3.128    251.62  12327.25
         Mo        10.208            3.547    674.22  77634.20
         Mo        10.221            3.547    674.22  77634.20
         S          3.858            3.128    251.62  12327.25
         S          3.859            3.128    251.62  12327.25
         S          3.758            3.128    251.62  12327.25
         S          3.859            3.128    251.62  12327.25
         Mo        10.221            3.547    674.22  77634.20
         Mo        10.230            3.547    674.22  77634.20
         S          3.855            3.128    251.62  12327.25
         S          3.860            3.128    251.62  12327.25
         S          3.859            3.128    251.62  12327.25
         S          3.757            3.128    251.62  12327.25
         Mo        10.208            3.547    674.22  77634.20
         Mo        10.221            3.547    674.22  77634.20
         S          3.858            3.128    251.62  12327.25
         S          3.859            3.128    251.62  12327.25
         S          3.758            3.128    251.62  12327.25
         S          3.859            3.128    251.62  12327.25
         Mo        10.222            3.547    674.22  77634.20
         Mo        10.201            3.547    674.22  77634.20
         S          3.865            3.128    251.62  12327.25
         S          3.856            3.128    251.62  12327.25
         S          3.859            3.128    251.62  12327.25
         S          4.670            3.128    251.62  12327.25
         Mo        10.208            3.547    674.22  77634.20
         Mo        10.221            3.547    674.21  77634.20
         S          3.858            3.128    251.62  12327.25
         S          3.859            3.128    251.62  12327.25
         S          3.758            3.128    251.62  12327.25
         S          3.859            3.128    251.62  12327.25
         Mo        10.221            3.547    674.22  77634.20
         Mo        10.201            3.547    674.22  77634.20
         S          3.855            3.128    251.62  12327.25
         S          3.856            3.128    251.62  12327.25
         S          3.859            3.128    251.62  12327.25
         S          3.757            3.128    251.62  12327.25
         Mo        10.208            3.547    674.22  77634.20
         Mo        10.221            3.547    674.22  77634.20
         S          3.858            3.128    251.62  12327.25
         S          3.859            3.128    251.62  12327.25
         S          3.758            3.128    251.62  12327.25
         S          3.859            3.128    251.62  12327.25
         Mo        10.220            3.547    674.22  77634.20
         Mo        10.254            3.547    674.22  77634.20
         S          3.862            3.128    251.62  12327.25
         S          3.860            3.128    251.62  12327.25
         S          3.859            3.128    251.62  12327.25
         S          3.766            3.128    251.62  12327.25
         Mo        10.208            3.547    674.22  77634.20
         Mo        10.220            3.547    674.22  77634.20
         S          3.858            3.128    251.62  12327.25
         S          3.859            3.128    251.62  12327.25
         S          3.758            3.128    251.62  12327.25
         S          3.859            3.128    251.62  12327.25
         Mo        10.220            3.547    674.22  77634.20
         Mo        10.230            3.547    674.22  77634.20
         S          3.862            3.128    251.62  12327.25
         S          3.860            3.128    251.62  12327.25
         S          3.859            3.128    251.62  12327.25
         S          3.766            3.128    251.62  12327.25
         Mo        10.208            3.547    674.22  77634.20
         Mo        10.221            3.547    674.22  77634.20
         S          3.858            3.128    251.62  12327.25
         S          3.859            3.128    251.62  12327.25
         S          3.758            3.128    251.62  12327.25
         S          3.859            3.128    251.62  12327.25
         Mo        10.220            3.547    674.22  77634.20
         Mo        10.254            3.547    674.22  77634.20
         S          3.848            3.128    251.62  12327.25
         S          3.860            3.128    251.62  12327.25
         S          3.859            3.128    251.62  12327.25
         S          4.772            3.128    251.62  12327.25
         Mo        10.208            3.547    674.21  77634.20
         Mo        10.221            3.547    674.22  77634.20
         S          3.858            3.128    251.62  12327.25
         S          3.859            3.128    251.62  12327.25
         S          3.758            3.128    251.62  12327.25
         S          3.859            3.128    251.62  12327.25
         Mo        10.220            3.547    674.22  77634.20
         Mo        10.828            3.547    674.22  77634.20
         S          3.848            3.128    251.62  12327.25
         S          3.861            3.128    251.62  12327.25
         S          3.859            3.128    251.62  12327.25
         S          4.772            3.128    251.62  12327.25
         Pd         3.767            3.168    558.46  51168.37
         Pt         3.620            3.168    692.72  72035.25

         Molecular C6 ( Ry / a.u.^6 ) =  13983844.84


     number of k points=     4  Gaussian smearing, width (Ry)=  0.0100
                       cart. coord. in units 2pi/alat
        k(    1) = (   0.0000000   0.0000000   0.0000000), wk =   0.5000000
        k(    2) = (   0.0000000  -0.5773499   0.0000000), wk =   0.5000000
        k(    3) = (  -0.5000000  -0.2886744   0.0000000), wk =   0.5000000
        k(    4) = (  -0.5000000  -0.8660242   0.0000000), wk =   0.5000000

     Dense  grid:  7154885 G-vectors     FFT dimensions: ( 180, 180, 512)

     Smooth grid:  3090769 G-vectors     FFT dimensions: ( 135, 135, 400)

     Estimated max dynamical RAM per process >       4.31 GB

     Estimated total dynamical RAM >     155.10 GB

     Initial potential from superposition of free atoms

     starting charge    1713.9389, renormalised to    1714.0000

     negative rho (up, down):  8.707E-04 0.000E+00
     Starting wfcs are 1179 randomized atomic wfcs
     Checking if some PAW data can be deallocated... 

     total cpu time spent up to now is      179.7 secs

     Self-consistent Calculation

     iteration #  1     ecut=    77.00 Ry     beta= 0.20
     Davidson diagonalization with overlap
     ethr =  1.00E-02,  avg # of iterations =  2.0

     Threshold (ethr) on eigenvalues was too large:
     Diagonalizing with lowered threshold

     Davidson diagonalization with overlap
     ethr =  1.64E-04,  avg # of iterations = 17.0

     negative rho (up, down):  2.348E-04 0.000E+00

     total cpu time spent up to now is     2210.1 secs

     total energy              =  -33980.23906414 Ry
     estimated scf accuracy    <       6.48720337 Ry

     iteration #  2     ecut=    77.00 Ry     beta= 0.20
     Davidson diagonalization with overlap
     ethr =  3.78E-04,  avg # of iterations =  2.0

     negative rho (up, down):  2.417E-05 0.000E+00

     total cpu time spent up to now is     2614.4 secs

     total energy              =  -33978.88792983 Ry
     estimated scf accuracy    <       3.40063538 Ry

     iteration #  3     ecut=    77.00 Ry     beta= 0.20
     Davidson diagonalization with overlap
     ethr =  1.98E-04,  avg # of iterations = 13.0

     negative rho (up, down):  1.553E-05 0.000E+00

     total cpu time spent up to now is     3143.8 secs

     total energy              =  -33979.29529963 Ry
     estimated scf accuracy    <       0.83109408 Ry

     iteration #  4     ecut=    77.00 Ry     beta= 0.20
     Davidson diagonalization with overlap
     c_bands:  1 eigenvalues not converged
     c_bands:  1 eigenvalues not converged
     c_bands:  1 eigenvalues not converged
     c_bands:  1 eigenvalues not converged
     ethr =  4.85E-05,  avg # of iterations = 20.0

     negative rho (up, down):  1.919E-05 0.000E+00

     total cpu time spent up to now is     4393.0 secs

     total energy              =  -33980.09435403 Ry
     estimated scf accuracy    <       0.38520525 Ry

     iteration #  5     ecut=    77.00 Ry     beta= 0.20
     Davidson diagonalization with overlap
     c_bands:  1 eigenvalues not converged
     ethr =  2.25E-05,  avg # of iterations = 15.2

     negative rho (up, down):  4.737E-05 0.000E+00

     total cpu time spent up to now is     5016.2 secs

     total energy              =  -33980.16114953 Ry
     estimated scf accuracy    <       0.20800696 Ry

     iteration #  6     ecut=    77.00 Ry     beta= 0.20
     Davidson diagonalization with overlap
     c_bands:  1 eigenvalues not converged
     ethr =  1.21E-05,  avg # of iterations = 16.0

     negative rho (up, down):  2.573E-04 0.000E+00

     total cpu time spent up to now is     5558.4 secs

     total energy              =  -33980.15363763 Ry
     estimated scf accuracy    <       0.12001660 Ry

     iteration #  7     ecut=    77.00 Ry     beta= 0.20
     Davidson diagonalization with overlap
     c_bands:  4 eigenvalues not converged
     c_bands:  1 eigenvalues not converged
     c_bands:  1 eigenvalues not converged
     ethr =  7.00E-06,  avg # of iterations = 28.5

     negative rho (up, down):  5.243E-04 0.000E+00

     total cpu time spent up to now is     6599.0 secs

     total energy              =  -33980.23419390 Ry
     estimated scf accuracy    <       0.07406964 Ry

     iteration #  8     ecut=    77.00 Ry     beta= 0.20
     Davidson diagonalization with overlap
     c_bands:  4 eigenvalues not converged
     c_bands:  3 eigenvalues not converged
     c_bands:  3 eigenvalues not converged
     c_bands:  5 eigenvalues not converged
     ethr =  4.32E-06,  avg # of iterations = 30.0

     negative rho (up, down):  4.252E-04 0.000E+00

     total cpu time spent up to now is     7393.8 secs

     total energy              =  -33980.22929301 Ry
     estimated scf accuracy    <       0.03496697 Ry

     iteration #  9     ecut=    77.00 Ry     beta= 0.20
     Davidson diagonalization with overlap
     c_bands:  5 eigenvalues not converged
     c_bands:  2 eigenvalues not converged
     c_bands:  6 eigenvalues not converged
     ethr =  2.04E-06,  avg # of iterations = 60.5

     negative rho (up, down):  4.083E-04 0.000E+00

     total cpu time spent up to now is     9122.6 secs

     total energy              =  -33980.24874257 Ry
     estimated scf accuracy    <       0.00369837 Ry

     iteration # 10     ecut=    77.00 Ry     beta= 0.20
     Davidson diagonalization with overlap
     c_bands:  1 eigenvalues not converged
     c_bands:  1 eigenvalues not converged
     c_bands:  2 eigenvalues not converged
     ethr =  2.16E-07,  avg # of iterations = 28.8

     negative rho (up, down):  4.776E-04 0.000E+00

     total cpu time spent up to now is    10820.1 secs

     total energy              =  -33980.25584068 Ry
     estimated scf accuracy    <       0.00407004 Ry

     iteration # 11     ecut=    77.00 Ry     beta= 0.20
     Davidson diagonalization with overlap
     c_bands:  5 eigenvalues not converged
     ethr =  2.16E-07,  avg # of iterations =  8.5

     negative rho (up, down):  8.079E-04 0.000E+00

     total cpu time spent up to now is    11249.6 secs

     total energy              =  -33980.25659544 Ry
     estimated scf accuracy    <       0.00157899 Ry

     iteration # 12     ecut=    77.00 Ry     beta= 0.20
     Davidson diagonalization with overlap
     c_bands:  4 eigenvalues not converged
     ethr =  9.21E-08,  avg # of iterations = 19.5

     negative rho (up, down):  8.100E-04 0.000E+00

     total cpu time spent up to now is    12838.9 secs

     total energy              =  -33980.25525757 Ry
     estimated scf accuracy    <       0.01973725 Ry

     iteration # 13     ecut=    77.00 Ry     beta= 0.20
     Davidson diagonalization with overlap
     c_bands:  5 eigenvalues not converged
     ethr =  9.21E-08,  avg # of iterations = 25.2

     negative rho (up, down):  7.766E-04 0.000E+00

     total cpu time spent up to now is    13865.4 secs

     total energy              =  -33980.25521744 Ry
     estimated scf accuracy    <       0.00398782 Ry

     iteration # 14     ecut=    77.00 Ry     beta= 0.20
     Davidson diagonalization with overlap
     c_bands:  2 eigenvalues not converged
     ethr =  9.21E-08,  avg # of iterations = 12.0

     negative rho (up, down):  8.102E-04 0.000E+00

     total cpu time spent up to now is    14662.3 secs

     total energy              =  -33980.25629926 Ry
     estimated scf accuracy    <       0.00022029 Ry

     iteration # 15     ecut=    77.00 Ry     beta= 0.20
     Davidson diagonalization with overlap
     ethr =  1.29E-08,  avg # of iterations = 14.8

     negative rho (up, down):  8.232E-04 0.000E+00

     total cpu time spent up to now is    15581.1 secs

     total energy              =  -33980.25661097 Ry
     estimated scf accuracy    <       0.00003359 Ry

     iteration # 16     ecut=    77.00 Ry     beta= 0.20
     Davidson diagonalization with overlap
     c_bands:  2 eigenvalues not converged
     ethr =  1.96E-09,  avg # of iterations = 16.8

     negative rho (up, down):  8.442E-04 0.000E+00

     total cpu time spent up to now is    16713.9 secs

     total energy              =  -33980.25666212 Ry
     estimated scf accuracy    <       0.00001441 Ry

     iteration # 17     ecut=    77.00 Ry     beta= 0.20
     Davidson diagonalization with overlap
     c_bands:  1 eigenvalues not converged
     c_bands:  2 eigenvalues not converged
     ethr =  8.40E-10,  avg # of iterations = 15.0

     negative rho (up, down):  8.641E-04 0.000E+00

     total cpu time spent up to now is    17313.4 secs

     total energy              =  -33980.25665537 Ry
     estimated scf accuracy    <       0.00000645 Ry

     iteration # 18     ecut=    77.00 Ry     beta= 0.20
     Davidson diagonalization with overlap
     ethr =  3.76E-10,  avg # of iterations = 13.0

     negative rho (up, down):  8.712E-04 0.000E+00

     total cpu time spent up to now is    18110.1 secs

     total energy              =  -33980.25665655 Ry
     estimated scf accuracy    <       0.00000183 Ry

     iteration # 19     ecut=    77.00 Ry     beta= 0.20
     Davidson diagonalization with overlap
     ethr =  1.07E-10,  avg # of iterations = 12.5

     negative rho (up, down):  8.791E-04 0.000E+00

     total cpu time spent up to now is    18882.9 secs

     End of self-consistent calculation

          k = 0.0000 0.0000 0.0000 (386245 PWs)   bands (ev):

  -102.2209 -88.7201 -70.5360 -70.5336 -70.5333 -70.5330 -70.5045 -70.5045
   -70.4883 -66.5836 -66.5836 -66.5823 -66.5804 -66.5712 -66.5625 -66.5624
   -66.5624 -66.5624 -66.5624 -66.5624 -66.5623 -66.5623 -66.5623 -66.5623
   -66.5623 -66.5620 -66.5610 -66.5610 -66.5610 -66.5610 -66.5609 -66.5609
   -66.5585 -66.5509 -66.5490 -66.5423 -66.5413 -66.5411 -66.5411 -66.5410
   -66.5410 -66.5410 -66.5410 -66.5410 -66.5410 -66.5410 -66.5409 -66.5409
   -66.5409 -66.5409 -66.5407 -66.5407 -66.5407 -66.5405 -66.5398 -66.5396
   -66.5396 -66.5396 -66.5395 -66.5395 -66.5395 -66.5395 -66.5395 -66.5395
   -66.5344 -66.5300 -66.5293 -66.5212 -66.5207 -66.5152 -66.5136 -66.5027
   -66.4963 -56.4727 -56.4562 -56.4497 -54.5436 -54.5216 -54.5006 -40.9111
   -40.9111 -40.9110 -40.9110 -40.9110 -40.9110 -40.9103 -40.9103 -40.9103
   -40.8956 -40.8931 -40.8880 -40.8359 -40.8358 -40.8357 -40.8357 -40.8357
   -40.8357 -40.8357 -40.8357 -40.8357 -40.8357 -40.8357 -40.8355 -40.8350
   -40.8350 -40.8350 -40.8350 -40.8349 -40.8349 -40.8229 -40.8176 -40.8154
   -40.8151 -40.8099 -40.8073 -40.7670 -40.7433 -40.7433 -40.7426 -40.7348
   -40.7143 -40.7095 -40.7094 -40.7094 -40.7094 -40.7094 -40.7094 -40.7094
   -40.7094 -40.7094 -40.7093 -40.7093 -40.7092 -40.7085 -40.7085 -40.7085
   -40.7085 -40.7085 -40.7085 -40.7018 -40.7017 -40.7016 -40.7016 -40.7016
   -40.7016 -40.7016 -40.7016 -40.7016 -40.7016 -40.7015 -40.7014 -40.7013
   -40.7009 -40.7009 -40.7008 -40.7008 -40.7008 -40.7008 -40.6975 -40.6958
   -40.6944 -40.6939 -40.6923 -40.6918 -40.6891 -40.6834 -40.6777 -40.6745
   -40.6744 -40.6744 -40.6744 -40.6744 -40.6744 -40.6743 -40.6743 -40.6743
   -40.6743 -40.6743 -40.6741 -40.6734 -40.6734 -40.6734 -40.6734 -40.6734
   -40.6734 -40.6696 -40.6645 -40.6619 -40.6604 -40.6600 -40.6598 -40.6597
   -40.6597 -40.6597 -40.6597 -40.6596 -40.6596 -40.6596 -40.6596 -40.6596
   -40.6596 -40.6596 -40.6596 -40.6595 -40.6594 -40.6593 -40.6593 -40.6589
   -40.6588 -40.6588 -40.6588 -40.6588 -40.6588 -40.6588 -40.6588 -40.6588
   -40.6588 -40.6571 -40.6566 -40.6539 -40.6518 -40.6493 -40.6467 -40.6463
   -40.6435 -40.6413 -40.6360 -40.5961 -40.5960 -40.5960 -40.5960 -40.5960
   -40.5959 -40.5950 -40.5950 -40.5950 -40.5771 -40.5769 -40.5726 -40.5491
   -40.5490 -40.5490 -40.5489 -40.5489 -40.5489 -40.5489 -40.5489 -40.5489
   -40.5488 -40.5487 -40.5486 -40.5478 -40.5478 -40.5478 -40.5478 -40.5478
   -40.5478 -40.5325 -40.5292 -40.5289 -40.5265 -40.5245 -40.5145 -40.5013
   -40.5013 -40.5013 -40.5013 -40.5002 -40.5002 -40.4777 -40.4753 -20.1111
   -20.0487 -19.9481 -19.8455 -19.4128 -19.2582 -19.2282 -19.2169 -19.2164
   -19.2068 -19.1954 -19.1877 -19.1782 -19.1682 -19.1674 -19.1446 -19.1068
   -19.0973 -19.0910 -19.0846 -19.0833 -19.0608 -19.0029 -18.9985 -18.9965
   -18.9941 -18.9940 -18.9847 -18.8669 -18.7498 -18.5924 -18.5377 -18.5187
   -18.5185 -18.4741 -18.4635 -18.4423 -18.4320 -18.3891 -18.3872 -18.3802
   -18.3696 -18.3693 -18.3433 -18.3050 -18.2672 -18.2518 -18.2476 -18.2435
   -18.2305 -18.2051 -18.1775 -18.1590 -18.1572 -18.1436 -18.1406 -18.1322
   -18.1258 -18.1185 -18.1184 -18.0815 -18.0807 -18.0793 -18.0786 -18.0779
   -18.0773 -18.0511 -18.0468 -18.0440 -18.0425 -18.0419 -18.0367 -18.0362
   -18.0349 -18.0347 -18.0132 -18.0109 -18.0076 -18.0075 -17.9995 -17.9932
   -17.9912 -17.9889 -17.9782 -17.9695 -17.9677 -17.9639 -17.9625 -17.9540
   -17.9469 -17.9461 -17.9433 -17.9107 -17.9070 -17.9062 -17.9026 -17.8827
   -17.8810 -17.8752 -17.8743 -17.8712 -17.8547 -17.8526 -17.8484 -17.8415
   -17.8360 -17.8320 -17.8272 -17.8244 -17.8192 -17.8164 -17.8155 -17.8146
   -17.8005 -17.8000 -17.7990 -17.7898 -17.7876 -17.7850 -17.7802 -17.7798
   -17.7759 -17.7566 -17.7560 -17.7558 -17.7538 -17.7535 -17.7518 -12.0422
   -11.9210 -11.8738 -11.8196 -11.7681 -11.7507 -11.7391 -11.7213 -11.6385
   -11.6283 -11.6204 -11.5321 -11.5140 -11.5111 -11.4829 -11.3424 -11.2690
   -11.2302 -11.2096 -11.2011 -11.1993 -11.1924 -11.1674 -11.1543 -11.1444
   -11.1086 -11.0968 -11.0920 -11.0884 -11.0864 -11.0830 -11.0704 -11.0683
   -11.0454 -11.0339 -11.0333 -11.0238 -11.0220 -11.0177 -11.0161 -11.0032
   -10.9890 -10.9878 -10.9818 -10.9783 -10.9481 -10.9200 -10.9142 -10.9097
   -10.9093 -10.8987 -10.8785 -10.8708 -10.8576 -10.8559 -10.8492 -10.8474
   -10.8366 -10.8266 -10.8126 -10.8104 -10.8101 -10.8014 -10.7971 -10.7948
   -10.7900 -10.7895 -10.7863 -10.7850 -10.7812 -10.7701 -10.7685 -10.7680
   -10.7638 -10.7621 -10.7594 -10.7372 -10.7359 -10.7349 -10.7338 -10.7310
   -10.7288 -10.7216 -10.7178 -10.7073 -10.6969 -10.6967 -10.6962 -10.6953
   -10.6934 -10.6905 -10.6189 -10.6181 -10.6144 -10.5680 -10.5589 -10.5486
   -10.5435 -10.5415 -10.5376 -10.3402 -10.3255 -10.2504 -10.2134 -10.1435
   -10.0810 -10.0756  -9.9779  -9.8996  -9.8646  -9.8343  -9.7984  -9.7810
    -9.7717  -9.7693  -9.7603  -9.7576  -9.7391  -9.7367  -9.7300  -9.7298
    -9.7281  -9.7269  -9.7249  -9.7166  -9.7149  -9.7121  -9.7078  -9.7056
    -9.7014  -9.6820  -9.6588  -9.6583  -9.6176  -9.5996  -9.5941  -9.5898
    -9.5871  -9.5839  -9.5815  -9.5784  -9.5773  -9.5762  -9.5749  -9.5742
    -9.5716  -9.5619  -9.5471  -9.5285  -9.5056  -9.5034  -9.5008  -9.5008
    -9.5007  -9.4999  -9.4995  -9.4935  -9.4849  -9.4849  -9.4803  -9.4619
    -9.4609  -9.4575  -9.4455  -9.4144  -9.4036  -9.3326  -9.3298  -9.3276
    -9.3146  -9.3070  -9.2974  -9.2968  -9.2944  -9.2877  -9.2872  -9.2706
    -9.2603  -9.2168  -9.2013  -9.2008  -9.2001  -9.1942  -9.1879  -9.1522
    -9.1439  -9.1436  -9.1420  -9.1415  -9.1398  -9.1258  -9.1193  -9.1004
    -9.0928  -9.0804  -9.0686  -9.0520  -9.0275  -9.0167  -9.0050  -8.9566
    -8.9480  -8.9431  -8.9397  -8.9390  -8.9371  -8.9108  -8.9102  -8.9062
    -8.8977  -8.8837  -8.8767  -8.8763  -8.8750  -8.8676  -8.8559  -8.8547
    -8.8514  -8.8306  -8.8266  -8.7807  -8.7805  -8.7805  -8.7801  -8.7800
    -8.7792  -8.7160  -8.7143  -8.7062  -8.6990  -8.6986  -8.6896  -8.6314
    -8.6302  -8.6207  -8.6195  -8.6169  -8.6061  -8.5554  -8.5548  -8.5506
    -8.5504  -8.5494  -8.5465  -8.5402  -8.4744  -8.4463  -8.4212  -8.3645
    -8.3258  -8.3257  -8.3209  -8.3207  -8.3144  -8.3142  -8.2871  -8.2630
    -8.2519  -8.2407  -8.2360  -8.2354  -8.2348  -8.2333  -8.2313  -8.2306
    -8.2244  -8.2091  -8.2091  -8.2077  -8.2061  -8.2043  -8.2001  -8.1812
    -8.1806  -8.1799  -8.1793  -8.1787  -8.1773  -8.1695  -8.0918  -8.0745
    -7.9977  -7.9920  -7.8580  -7.8183  -7.8148  -7.8148  -7.7366  -7.7236
    -7.7226  -7.6576  -7.6350  -7.6344  -7.6008  -7.6007  -7.5947  -7.5898
    -7.5777  -7.5691  -7.5666  -7.5640  -7.5610  -7.5306  -7.5220  -7.5164
    -7.5156  -7.5117  -7.5023  -7.4968  -7.4949  -7.4927  -7.4912  -7.4911
    -7.4897  -7.4859  -7.4778  -7.4662  -7.4653  -7.4644  -7.4640  -7.4628
    -7.4559  -7.4425  -7.4418  -7.4416  -7.4409  -7.4406  -7.4381  -7.4345
    -7.4324  -7.4285  -7.4047  -7.3868  -7.3805  -7.3760  -7.3741  -7.3674
    -7.3651  -7.3598  -7.3372  -7.3077  -7.2996  -7.2921  -7.2908  -7.2721
    -7.2569  -7.2554  -7.2510  -7.2491  -7.2488  -7.2452  -7.2319  -7.2300
    -7.2090  -7.2089  -7.1905  -7.1903  -7.1727  -7.1727  -7.1654  -7.1321
    -7.0885  -7.0831  -7.0725  -7.0691  -7.0227  -6.9821  -6.9449  -6.9061
    -6.8845  -6.8473  -6.8385  -6.8358  -6.8230  -6.8039  -6.7572  -6.7431
    -6.7387  -6.7386  -6.7279  -6.6980  -6.6654  -6.6621  -6.6540  -6.6488
    -6.6324  -6.6110  -6.5891  -6.5870  -6.5863  -6.5790  -6.5674  -6.5583
    -6.5569  -6.5390  -6.5310  -6.5167  -6.5163  -6.5084  -6.4970  -6.4878
    -6.4749  -6.4735  -6.4727  -6.4686  -6.4682  -6.4675  -6.4656  -6.4640
    -6.4567  -6.4567  -6.4565  -6.4563  -6.4561  -6.4556  -6.4503  -6.4236
    -6.4189  -6.4024  -6.3897  -6.3830  -6.3686  -6.3669  -6.3653  -6.3280
    -6.2989  -6.2923  -6.2919  -6.2918  -6.2914  -6.2883  -6.2733  -6.2562
    -6.2554  -6.2529  -6.2523  -6.2483  -6.2392  -6.2257  -6.2216  -6.2147
    -6.2137  -6.2129  -6.2094  -6.2087  -6.2062  -6.1804  -6.1365  -6.0997
    -5.8870  -5.7375  -5.6947  -5.6735  -5.5295  -5.4104  -5.3927  -5.2695
    -5.1093  -4.3608  -3.8666  -3.8156  -3.8125  -3.8065  -3.8037  -3.7950
    -3.7883  -3.7851  -3.7812  -3.7805  -3.7794  -3.7631  -3.7237  -3.6718
    -3.6637  -3.6503  -3.6489  -3.6398  -3.6374  -3.6344  -3.6319  -3.6271
    -3.6265  -3.5406  -3.5028  -3.4763  -3.4623  -3.4594  -3.4591  -3.4563
    -3.4470  -3.4396  -3.4336  -3.4299  -3.4296  -3.4270  -3.4268  -3.4157
    -3.4089  -3.4048  -3.4020  -3.4012  -3.4009  -3.4007  -3.3881  -3.3861
    -3.3856  -3.3841  -3.3790  -3.3702  -3.3685  -3.3677  -3.3656  -3.3614
    -3.3577  -3.3558  -3.3540  -3.3501  -3.3486  -3.3145  -3.3122  -3.3062
    -3.3060  -3.3018  -3.3008  -3.2986  -3.2961  -3.2872  -3.2798  -3.2755
    -3.2678  -3.2512  -3.2448  -3.2432  -3.2382  -3.2338  -3.2258  -3.2155
    -3.2128  -3.1715  -3.1648  -3.1583  -3.1550  -3.0364  -3.0247  -3.0243
    -3.0191  -3.0177  -3.0171  -3.0074  -3.0037  -2.9997  -2.9957  -2.9717
    -2.9475  -2.9466  -2.9320  -2.9308  -2.9303  -2.9296  -2.9290  -2.9241
    -2.9217  -2.9217  -2.9216  -2.9158  -2.9147  -2.9125  -2.9106  -2.9075
    -2.8962  -2.8937  -2.8932  -2.8891  -2.8869  -2.8858  -2.8857  -2.8849
    -2.8846  -2.8804  -2.8773  -2.8477  -2.8398  -2.8368  -2.8333  -2.8285
    -2.8169  -2.8066  -2.7976  -2.7729  -2.7650  -2.7623  -2.7623  -2.7621
    -2.7619  -2.7617  -2.7612  -2.7609  -2.7597  -2.7460  -2.7436  -2.7410
    -2.7198  -2.7004  -2.6985  -2.6977  -2.6878  -2.6835  -2.6793  -2.6278
    -2.6255  -2.5954  -2.5949  -2.5860  -2.5856  -2.5786  -2.5768  -2.5764
    -2.5741  -2.5518  -2.5346  -2.5106  -2.5099  -2.5032  -2.4991  -2.3895
    -2.3793  -2.3700  -2.3695  -2.3662

          k = 0.0000-0.5773 0.0000 (386352 PWs)   bands (ev):

  -102.2209 -88.7201 -70.5361 -70.5336 -70.5333 -70.5330 -70.5045 -70.5045
   -70.4884 -66.5795 -66.5775 -66.5774 -66.5774 -66.5773 -66.5760 -66.5760
   -66.5717 -66.5668 -66.5668 -66.5668 -66.5667 -66.5654 -66.5654 -66.5603
   -66.5517 -66.5517 -66.5517 -66.5517 -66.5517 -66.5516 -66.5516 -66.5516
   -66.5514 -66.5503 -66.5503 -66.5503 -66.5503 -66.5483 -66.5473 -66.5472
   -66.5472 -66.5471 -66.5458 -66.5458 -66.5412 -66.5410 -66.5410 -66.5409
   -66.5409 -66.5409 -66.5409 -66.5408 -66.5407 -66.5396 -66.5396 -66.5395
   -66.5395 -66.5394 -66.5365 -66.5365 -66.5365 -66.5364 -66.5351 -66.5351
   -66.5339 -66.5316 -66.5266 -66.5232 -66.5213 -66.5150 -66.5133 -66.5028
   -66.4962 -56.4727 -56.4562 -56.4497 -54.5437 -54.5216 -54.5006 -40.8795
   -40.8794 -40.8794 -40.8794 -40.8794 -40.8794 -40.8793 -40.8793 -40.8787
   -40.8787 -40.8787 -40.8787 -40.8725 -40.8664 -40.8527 -40.8526 -40.8526
   -40.8525 -40.8520 -40.8519 -40.8518 -40.8482 -40.8429 -40.8406 -40.8405
   -40.8405 -40.8405 -40.8398 -40.8398 -40.8302 -40.8173 -40.8145 -40.7899
   -40.7899 -40.7899 -40.7899 -40.7898 -40.7898 -40.7898 -40.7898 -40.7890
   -40.7890 -40.7890 -40.7890 -40.7721 -40.7707 -40.7691 -40.7662 -40.7618
   -40.7312 -40.7311 -40.7311 -40.7310 -40.7307 -40.7304 -40.7304 -40.7241
   -40.7216 -40.7216 -40.7216 -40.7215 -40.7206 -40.7206 -40.7103 -40.7103
   -40.7102 -40.7102 -40.7095 -40.7095 -40.7086 -40.7038 -40.6968 -40.6934
   -40.6869 -40.6807 -40.6807 -40.6806 -40.6806 -40.6806 -40.6806 -40.6806
   -40.6806 -40.6799 -40.6799 -40.6799 -40.6799 -40.6758 -40.6734 -40.6720
   -40.6719 -40.6719 -40.6718 -40.6711 -40.6711 -40.6669 -40.6635 -40.6601
   -40.6601 -40.6601 -40.6600 -40.6598 -40.6597 -40.6597 -40.6596 -40.6596
   -40.6596 -40.6596 -40.6594 -40.6594 -40.6591 -40.6591 -40.6588 -40.6588
   -40.6588 -40.6588 -40.6549 -40.6511 -40.6509 -40.6509 -40.6509 -40.6509
   -40.6501 -40.6501 -40.6496 -40.6449 -40.6428 -40.6357 -40.6347 -40.6294
   -40.6292 -40.6292 -40.6292 -40.6291 -40.6291 -40.6291 -40.6289 -40.6282
   -40.6282 -40.6281 -40.6281 -40.6165 -40.6119 -40.6082 -40.6001 -40.5944
   -40.5944 -40.5944 -40.5944 -40.5944 -40.5944 -40.5944 -40.5944 -40.5934
   -40.5934 -40.5934 -40.5934 -40.5823 -40.5823 -40.5822 -40.5822 -40.5812
   -40.5812 -40.5780 -40.5745 -40.5714 -40.5700 -40.5641 -40.5631 -40.5629
   -40.5629 -40.5627 -40.5619 -40.5619 -40.5511 -40.5460 -40.5460 -40.5459
   -40.5459 -40.5449 -40.5449 -40.5436 -40.5399 -40.5229 -40.5167 -40.5154
   -40.5153 -40.5153 -40.5152 -40.5142 -40.5142 -40.4979 -40.4839 -19.9309
   -19.8462 -19.8226 -19.7861 -19.7222 -19.6957 -19.6150 -19.6058 -19.4478
   -19.4178 -19.3822 -19.3670 -19.2889 -19.2781 -19.1877 -19.1837 -18.8654
   -18.8047 -18.7825 -18.7428 -18.7212 -18.6995 -18.6801 -18.6790 -18.6772
   -18.6639 -18.6523 -18.6340 -18.6082 -18.6056 -18.6037 -18.5911 -18.5528
   -18.5346 -18.5243 -18.5126 -18.5089 -18.5053 -18.5029 -18.4806 -18.4664
   -18.4384 -18.4351 -18.4301 -18.4245 -18.3981 -18.3702 -18.3666 -18.3614
   -18.3392 -18.3202 -18.3138 -18.2994 -18.2875 -18.2785 -18.2518 -18.2247
   -18.2096 -18.2065 -18.1904 -18.1713 -18.1532 -18.1389 -18.1314 -18.1035
   -18.0919 -18.0791 -18.0720 -18.0607 -18.0595 -18.0574 -18.0564 -18.0433
   -18.0333 -18.0295 -18.0274 -18.0252 -18.0228 -18.0183 -18.0160 -18.0059
   -18.0014 -17.9960 -17.9869 -17.9686 -17.9670 -17.9628 -17.9611 -17.9576
   -17.9570 -17.9519 -17.9456 -17.9431 -17.9387 -17.9067 -17.9017 -17.8956
   -17.8933 -17.8841 -17.8761 -17.8509 -17.8468 -17.8439 -17.8315 -17.8256
   -17.8061 -17.8046 -17.7982 -17.7946 -17.7816 -17.7781 -17.7777 -17.7771
   -17.7761 -17.7745 -17.7728 -17.7631 -17.7605 -17.7432 -17.7400 -17.7188
   -17.7164 -17.6996 -17.6961 -17.6853 -17.6826 -17.6778 -17.6774 -11.9480
   -11.6925 -11.6776 -11.6618 -11.5719 -11.4952 -11.4794 -11.4715 -11.4709
   -11.4543 -11.4506 -11.4383 -11.4212 -11.4139 -11.4068 -11.3870 -11.3507
   -11.3488 -11.3335 -11.3206 -11.3089 -11.2927 -11.2859 -11.2790 -11.2675
   -11.2374 -11.2312 -11.2290 -11.2195 -11.2166 -11.2125 -11.2117 -11.1875
   -11.1660 -11.1634 -11.1610 -11.1501 -11.1371 -11.1316 -11.1273 -11.1244
   -11.1199 -11.1062 -11.1042 -11.0892 -11.0808 -11.0560 -11.0343 -11.0185
   -11.0178 -10.9841 -10.9334 -10.9179 -10.9066 -10.9013 -10.8858 -10.8760
   -10.8682 -10.8522 -10.8449 -10.8250 -10.8140 -10.8060 -10.7937 -10.7911
   -10.7869 -10.7826 -10.7796 -10.7693 -10.7691 -10.7685 -10.7666 -10.7580
   -10.7542 -10.7528 -10.7520 -10.7497 -10.7484 -10.7416 -10.7400 -10.7386
   -10.7365 -10.7017 -10.7013 -10.7011 -10.7006 -10.5748 -10.5080 -10.5033
   -10.4951 -10.4812 -10.4445 -10.4200 -10.3968 -10.3576 -10.3354 -10.3240
   -10.2694 -10.2081 -10.2018 -10.1446 -10.1139 -10.0952 -10.0875 -10.0747
   -10.0672 -10.0536 -10.0454 -10.0160 -10.0094  -9.9986  -9.9899  -9.9893
    -9.9852  -9.9705  -9.9668  -9.9603  -9.9407  -9.9049  -9.8884  -9.8858
    -9.8742  -9.8658  -9.8591  -9.8517  -9.8442  -9.8250  -9.8167  -9.7990
    -9.7857  -9.7785  -9.7677  -9.7403  -9.7357  -9.7261  -9.7192  -9.7004
    -9.6899  -9.6744  -9.6531  -9.6470  -9.6416  -9.6158  -9.6099  -9.5863
    -9.5768  -9.5690  -9.5632  -9.5368  -9.5295  -9.5159  -9.5146  -9.4983
    -9.4976  -9.4843  -9.4755  -9.4478  -9.4474  -9.4418  -9.4316  -9.4285
    -9.4225  -9.4168  -9.4143  -9.4096  -9.4037  -9.3858  -9.3834  -9.3356
    -9.3163  -9.2943  -9.2730  -9.2494  -9.2177  -9.1934  -9.1814  -9.1744
    -9.1660  -9.1634  -9.1523  -9.1427  -9.1328  -9.1093  -9.0982  -9.0904
    -9.0724  -9.0485  -9.0425  -9.0403  -9.0331  -9.0166  -9.0092  -9.0009
    -8.9928  -8.9878  -8.9804  -8.9527  -8.9437  -8.9274  -8.9242  -8.9174
    -8.9018  -8.9007  -8.8975  -8.8843  -8.8650  -8.8560  -8.8516  -8.8463
    -8.8441  -8.8437  -8.8379  -8.8330  -8.8292  -8.8274  -8.8253  -8.8246
    -8.8156  -8.8125  -8.7998  -8.7984  -8.7981  -8.7964  -8.7900  -8.7854
    -8.7608  -8.7522  -8.7501  -8.7469  -8.7436  -8.7409  -8.7390  -8.7218
    -8.7175  -8.6921  -8.6911  -8.6879  -8.6827  -8.6713  -8.6635  -8.6330
    -8.6250  -8.6144  -8.6057  -8.5638  -8.5102  -8.4631  -8.4597  -8.4207
    -8.4076  -8.3794  -8.3653  -8.3186  -8.3068  -8.2918  -8.2747  -8.2318
    -8.1694  -8.1342  -8.0864  -8.0860  -8.0793  -8.0774  -8.0705  -8.0666
    -8.0639  -8.0599  -8.0261  -8.0162  -7.9663  -7.9539  -7.9272  -7.9227
    -7.8863  -7.8356  -7.8253  -7.8012  -7.7979  -7.7939  -7.7868  -7.7836
    -7.7765  -7.7706  -7.7670  -7.7656  -7.7593  -7.7578  -7.7540  -7.7507
    -7.7445  -7.7430  -7.7402  -7.7398  -7.7369  -7.7304  -7.7282  -7.7248
    -7.7244  -7.7222  -7.7211  -7.7189  -7.7168  -7.7154  -7.7098  -7.7083
    -7.6917  -7.6887  -7.6880  -7.6839  -7.6807  -7.6556  -7.6551  -7.6537
    -7.6536  -7.6427  -7.6260  -7.6242  -7.6239  -7.6225  -7.6155  -7.6065
    -7.6046  -7.5853  -7.5742  -7.5670  -7.5659  -7.5601  -7.5564  -7.5538
    -7.5507  -7.5429  -7.5412  -7.5251  -7.5222  -7.5204  -7.5155  -7.5078
    -7.4992  -7.4917  -7.4451  -7.4199  -7.4173  -7.4153  -7.4112  -7.3883
    -7.3801  -7.3017  -7.2705  -7.1692  -7.1445  -7.1316  -7.1272  -7.1240
    -7.1197  -7.1057  -7.0835  -7.0710  -7.0675  -7.0575  -7.0434  -7.0371
    -7.0187  -6.9993  -6.9866  -6.9849  -6.9784  -6.9551  -6.9399  -6.9339
    -6.9231  -6.9030  -6.8741  -6.8703  -6.8665  -6.8566  -6.8397  -6.8279
    -6.8203  -6.8175  -6.8147  -6.8054  -6.7818  -6.7376  -6.7229  -6.7180
    -6.7084  -6.7048  -6.6702  -6.6409  -6.6352  -6.6148  -6.5877  -6.5796
    -6.5726  -6.5654  -6.5638  -6.5632  -6.5623  -6.5577  -6.5474  -6.5459
    -6.5457  -6.5446  -6.5385  -6.5371  -6.5371  -6.5369  -6.5360  -6.5049
    -6.4871  -6.4533  -6.4298  -6.3925  -6.3677  -6.3338  -6.3008  -6.2798
    -6.2789  -6.2780  -6.2717  -6.2596  -6.2501  -6.2355  -6.2352  -6.2311
    -6.2305  -6.2253  -6.2243  -6.2208  -6.2083  -6.1976  -6.1866  -6.1708
    -6.1676  -6.1610  -6.1572  -6.1468  -6.1357  -5.9714  -5.9577  -5.9415
    -5.9333  -5.9064  -5.8748  -5.8619  -5.8330  -5.8100  -5.8026  -5.7284
    -5.7015  -5.6821  -5.6370  -5.5909  -5.5612  -5.5416  -5.4318  -5.3845
    -5.3752  -4.3468  -4.0552  -4.0472  -4.0444  -4.0216  -3.9118  -3.8908
    -3.8793  -3.8727  -3.8665  -3.8188  -3.8008  -3.7985  -3.7874  -3.7816
    -3.7705  -3.7650  -3.7609  -3.7559  -3.7544  -3.7152  -3.6668  -3.6427
    -3.6393  -3.5973  -3.5753  -3.5679  -3.5627  -3.5566  -3.5543  -3.5303
    -3.5091  -3.5083  -3.5015  -3.4795  -3.4756  -3.4736  -3.4708  -3.4641
    -3.4530  -3.4391  -3.4353  -3.4329  -3.4309  -3.4288  -3.4250  -3.4128
    -3.4067  -3.4022  -3.3995  -3.3859  -3.3823  -3.3748  -3.3641  -3.3447
    -3.3286  -3.3099  -3.3057  -3.3036  -3.3011  -3.3003  -3.2941  -3.2922
    -3.2849  -3.2589  -3.2440  -3.2420  -3.2410  -3.2381  -3.2360  -3.2336
    -3.2327  -3.2279  -3.2163  -3.2000  -3.1959  -3.1910  -3.1846  -3.1820
    -3.1806  -3.1686  -3.1684  -3.1649  -3.1501  -3.1444  -3.1386  -3.1348
    -3.1277  -3.1261  -3.1225  -3.1184  -3.1183  -3.1177  -3.0945  -3.0631
    -3.0557  -3.0421  -3.0283  -3.0243  -3.0219  -3.0187  -3.0168  -2.9819
    -2.9813  -2.9793  -2.9787  -2.9781  -2.9769  -2.9676  -2.9669  -2.9656
    -2.9625  -2.9609  -2.9525  -2.9475  -2.9451  -2.9382  -2.9354  -2.9290
    -2.9281  -2.9244  -2.9229  -2.9199  -2.9144  -2.9053  -2.9029  -2.9012
    -2.8948  -2.8913  -2.8867  -2.8815  -2.8679  -2.8537  -2.8520  -2.8421
    -2.8360  -2.8333  -2.8228  -2.8192  -2.8118  -2.7538  -2.7514  -2.7465
    -2.7419  -2.6964  -2.6892  -2.6723  -2.6698  -2.5790  -2.5664  -2.5611
    -2.5398  -2.5283  -2.5223  -2.5103  -2.4980  -2.4964  -2.4876  -2.4823
    -2.4791  -2.4771  -2.4741  -2.4380  -2.3610  -2.3557  -2.3506  -2.3473
    -2.3430  -2.3321  -2.3090  -2.2984

          k =-0.5000-0.2887 0.0000 (386352 PWs)   bands (ev):

  -102.2209 -88.7201 -70.5361 -70.5336 -70.5333 -70.5330 -70.5045 -70.5045
   -70.4884 -66.5796 -66.5774 -66.5774 -66.5774 -66.5773 -66.5761 -66.5760
   -66.5715 -66.5668 -66.5668 -66.5668 -66.5667 -66.5654 -66.5654 -66.5607
   -66.5520 -66.5519 -66.5517 -66.5517 -66.5517 -66.5517 -66.5517 -66.5514
   -66.5514 -66.5503 -66.5503 -66.5503 -66.5503 -66.5472 -66.5472 -66.5472
   -66.5471 -66.5471 -66.5458 -66.5458 -66.5412 -66.5410 -66.5410 -66.5410
   -66.5409 -66.5409 -66.5408 -66.5406 -66.5405 -66.5397 -66.5396 -66.5396
   -66.5395 -66.5395 -66.5365 -66.5365 -66.5365 -66.5364 -66.5351 -66.5351
   -66.5340 -66.5310 -66.5297 -66.5212 -66.5206 -66.5152 -66.5137 -66.5029
   -66.4962 -56.4727 -56.4562 -56.4497 -54.5437 -54.5216 -54.5006 -40.8795
   -40.8795 -40.8794 -40.8794 -40.8794 -40.8794 -40.8794 -40.8792 -40.8787
   -40.8787 -40.8787 -40.8787 -40.8637 -40.8605 -40.8601 -40.8589 -40.8526
   -40.8526 -40.8526 -40.8526 -40.8519 -40.8518 -40.8424 -40.8406 -40.8405
   -40.8405 -40.8405 -40.8398 -40.8398 -40.8327 -40.8192 -40.8086 -40.7899
   -40.7899 -40.7899 -40.7899 -40.7898 -40.7898 -40.7898 -40.7898 -40.7890
   -40.7890 -40.7890 -40.7890 -40.7705 -40.7685 -40.7683 -40.7658 -40.7624
   -40.7324 -40.7311 -40.7311 -40.7311 -40.7310 -40.7304 -40.7304 -40.7216
   -40.7216 -40.7216 -40.7215 -40.7207 -40.7206 -40.7206 -40.7103 -40.7103
   -40.7102 -40.7102 -40.7095 -40.7095 -40.7073 -40.7056 -40.7019 -40.6956
   -40.6808 -40.6808 -40.6806 -40.6806 -40.6806 -40.6806 -40.6805 -40.6805
   -40.6799 -40.6799 -40.6799 -40.6799 -40.6778 -40.6753 -40.6736 -40.6719
   -40.6719 -40.6719 -40.6718 -40.6711 -40.6711 -40.6708 -40.6645 -40.6601
   -40.6601 -40.6601 -40.6600 -40.6598 -40.6597 -40.6596 -40.6596 -40.6596
   -40.6596 -40.6594 -40.6594 -40.6594 -40.6591 -40.6591 -40.6588 -40.6588
   -40.6588 -40.6588 -40.6538 -40.6527 -40.6509 -40.6509 -40.6509 -40.6509
   -40.6501 -40.6501 -40.6481 -40.6462 -40.6431 -40.6356 -40.6348 -40.6294
   -40.6292 -40.6292 -40.6291 -40.6291 -40.6291 -40.6291 -40.6289 -40.6282
   -40.6282 -40.6281 -40.6281 -40.6156 -40.6109 -40.6085 -40.6065 -40.5945
   -40.5944 -40.5944 -40.5944 -40.5944 -40.5944 -40.5944 -40.5943 -40.5934
   -40.5934 -40.5934 -40.5934 -40.5823 -40.5823 -40.5822 -40.5822 -40.5812
   -40.5812 -40.5753 -40.5727 -40.5713 -40.5703 -40.5631 -40.5629 -40.5629
   -40.5628 -40.5619 -40.5619 -40.5601 -40.5565 -40.5460 -40.5460 -40.5459
   -40.5459 -40.5449 -40.5449 -40.5447 -40.5425 -40.5176 -40.5153 -40.5153
   -40.5153 -40.5152 -40.5148 -40.5142 -40.5142 -40.4943 -40.4897 -19.9201
   -19.8516 -19.8218 -19.7961 -19.7219 -19.7034 -19.6152 -19.6082 -19.4337
   -19.4160 -19.3782 -19.3651 -19.2862 -19.2768 -19.1867 -19.1832 -18.8708
   -18.8358 -18.8019 -18.7508 -18.7141 -18.6869 -18.6799 -18.6795 -18.6784
   -18.6490 -18.6325 -18.6305 -18.6074 -18.6054 -18.5901 -18.5720 -18.5551
   -18.5496 -18.5210 -18.5166 -18.5139 -18.5027 -18.4949 -18.4815 -18.4711
   -18.4549 -18.4437 -18.4318 -18.4265 -18.4130 -18.3683 -18.3668 -18.3617
   -18.3593 -18.3237 -18.3079 -18.2890 -18.2865 -18.2850 -18.2248 -18.2147
   -18.2104 -18.2081 -18.1788 -18.1523 -18.1475 -18.1375 -18.1286 -18.1246
   -18.0911 -18.0782 -18.0642 -18.0641 -18.0598 -18.0571 -18.0517 -18.0515
   -18.0418 -18.0322 -18.0264 -18.0264 -18.0232 -18.0203 -18.0076 -18.0072
   -17.9999 -17.9991 -17.9938 -17.9689 -17.9653 -17.9639 -17.9620 -17.9604
   -17.9538 -17.9522 -17.9520 -17.9451 -17.9380 -17.9097 -17.8997 -17.8938
   -17.8933 -17.8883 -17.8830 -17.8510 -17.8452 -17.8448 -17.8372 -17.8204
   -17.8070 -17.8038 -17.7992 -17.7956 -17.7793 -17.7778 -17.7776 -17.7772
   -17.7759 -17.7753 -17.7666 -17.7633 -17.7574 -17.7439 -17.7387 -17.7195
   -17.7158 -17.7004 -17.6953 -17.6857 -17.6817 -17.6778 -17.6771 -11.9465
   -11.6858 -11.6650 -11.6214 -11.5811 -11.5616 -11.4835 -11.4713 -11.4685
   -11.4526 -11.4516 -11.4433 -11.4401 -11.4191 -11.4183 -11.3870 -11.3479
   -11.3463 -11.3355 -11.3189 -11.3124 -11.2849 -11.2795 -11.2718 -11.2575
   -11.2343 -11.2288 -11.2251 -11.2240 -11.2187 -11.2073 -11.2072 -11.1845
   -11.1636 -11.1589 -11.1589 -11.1440 -11.1408 -11.1346 -11.1301 -11.1260
   -11.1210 -11.1036 -11.1029 -11.0796 -11.0735 -11.0540 -11.0448 -11.0186
   -11.0139 -10.9843 -10.9445 -10.9165 -10.9104 -10.9059 -10.8774 -10.8712
   -10.8683 -10.8543 -10.8470 -10.8276 -10.8162 -10.8062 -10.7950 -10.7943
   -10.7809 -10.7773 -10.7746 -10.7697 -10.7687 -10.7685 -10.7673 -10.7594
   -10.7552 -10.7524 -10.7511 -10.7510 -10.7488 -10.7411 -10.7401 -10.7399
   -10.7370 -10.7015 -10.7015 -10.7012 -10.7009 -10.5345 -10.5185 -10.5043
   -10.5007 -10.4778 -10.4637 -10.4604 -10.4217 -10.3797 -10.3472 -10.2894
   -10.2336 -10.2213 -10.1790 -10.1348 -10.1100 -10.0966 -10.0886 -10.0727
   -10.0706 -10.0471 -10.0403 -10.0281 -10.0077  -9.9965  -9.9909  -9.9832
    -9.9829  -9.9762  -9.9572  -9.9557  -9.9421  -9.9105  -9.8894  -9.8774
    -9.8773  -9.8653  -9.8561  -9.8511  -9.8404  -9.8196  -9.8098  -9.8017
    -9.7818  -9.7775  -9.7661  -9.7422  -9.7350  -9.7269  -9.7164  -9.7156
    -9.6935  -9.6598  -9.6538  -9.6424  -9.6207  -9.6171  -9.6112  -9.5895
    -9.5857  -9.5742  -9.5603  -9.5402  -9.5304  -9.5265  -9.5016  -9.4964
    -9.4963  -9.4813  -9.4781  -9.4567  -9.4496  -9.4452  -9.4323  -9.4313
    -9.4283  -9.4181  -9.4129  -9.4116  -9.3973  -9.3884  -9.3773  -9.3611
    -9.3336  -9.3011  -9.2782  -9.2418  -9.2045  -9.2041  -9.1986  -9.1859
    -9.1781  -9.1494  -9.1455  -9.1420  -9.1278  -9.1147  -9.1107  -9.0875
    -9.0643  -9.0560  -9.0459  -9.0417  -9.0310  -9.0173  -9.0130  -8.9949
    -8.9908  -8.9861  -8.9755  -8.9494  -8.9437  -8.9317  -8.9268  -8.9155
    -8.9027  -8.8937  -8.8917  -8.8808  -8.8600  -8.8479  -8.8474  -8.8470
    -8.8445  -8.8349  -8.8341  -8.8308  -8.8285  -8.8272  -8.8238  -8.8186
    -8.8125  -8.8123  -8.8088  -8.8019  -8.7981  -8.7975  -8.7929  -8.7895
    -8.7623  -8.7515  -8.7493  -8.7485  -8.7449  -8.7410  -8.7395  -8.7207
    -8.7203  -8.6954  -8.6926  -8.6908  -8.6839  -8.6794  -8.6600  -8.6220
    -8.6168  -8.6054  -8.6034  -8.5531  -8.5087  -8.4617  -8.4585  -8.4566
    -8.4021  -8.3891  -8.3417  -8.3227  -8.3068  -8.2922  -8.2684  -8.2569
    -8.2093  -8.1383  -8.0862  -8.0859  -8.0782  -8.0770  -8.0670  -8.0656
    -8.0576  -8.0276  -8.0204  -8.0187  -7.9664  -7.9384  -7.9241  -7.9200
    -7.8618  -7.8458  -7.8406  -7.8174  -7.8003  -7.7900  -7.7876  -7.7869
    -7.7733  -7.7649  -7.7648  -7.7631  -7.7590  -7.7559  -7.7551  -7.7534
    -7.7528  -7.7438  -7.7409  -7.7396  -7.7345  -7.7322  -7.7301  -7.7268
    -7.7256  -7.7215  -7.7209  -7.7180  -7.7172  -7.7162  -7.7137  -7.7096
    -7.6891  -7.6872  -7.6861  -7.6836  -7.6792  -7.6552  -7.6547  -7.6543
    -7.6531  -7.6272  -7.6251  -7.6248  -7.6238  -7.6142  -7.6141  -7.6044
    -7.6030  -7.5939  -7.5701  -7.5691  -7.5665  -7.5635  -7.5621  -7.5550
    -7.5491  -7.5426  -7.5424  -7.5292  -7.5246  -7.5228  -7.5223  -7.5170
    -7.5075  -7.4867  -7.4461  -7.4218  -7.4200  -7.4171  -7.4043  -7.3850
    -7.3749  -7.2805  -7.2742  -7.1641  -7.1307  -7.1303  -7.1263  -7.1220
    -7.1055  -7.0969  -7.0824  -7.0782  -7.0692  -7.0589  -7.0557  -7.0261
    -7.0246  -7.0019  -6.9882  -6.9817  -6.9778  -6.9769  -6.9575  -6.9320
    -6.9311  -6.8761  -6.8718  -6.8712  -6.8657  -6.8618  -6.8439  -6.8402
    -6.8246  -6.8175  -6.8171  -6.7975  -6.7570  -6.7530  -6.7276  -6.7177
    -6.7089  -6.6876  -6.6707  -6.6492  -6.6424  -6.6273  -6.6035  -6.5903
    -6.5794  -6.5660  -6.5639  -6.5638  -6.5625  -6.5605  -6.5463  -6.5460
    -6.5450  -6.5448  -6.5372  -6.5371  -6.5370  -6.5368  -6.5153  -6.5142
    -6.4917  -6.4371  -6.4120  -6.3894  -6.3703  -6.3456  -6.2860  -6.2806
    -6.2794  -6.2789  -6.2638  -6.2563  -6.2480  -6.2420  -6.2351  -6.2349
    -6.2306  -6.2301  -6.2211  -6.2191  -6.2074  -6.1946  -6.1930  -6.1742
    -6.1699  -6.1614  -6.1579  -6.1517  -6.1363  -5.9681  -5.9532  -5.9344
    -5.9225  -5.9086  -5.8729  -5.8601  -5.8506  -5.8080  -5.8068  -5.7270
    -5.7003  -5.6742  -5.6647  -5.5790  -5.5613  -5.5225  -5.4372  -5.3952
    -5.3708  -4.3208  -4.0527  -4.0519  -4.0378  -4.0292  -3.9115  -3.8980
    -3.8821  -3.8783  -3.8501  -3.8466  -3.7999  -3.7985  -3.7859  -3.7819
    -3.7695  -3.7662  -3.7560  -3.7559  -3.7466  -3.7366  -3.6515  -3.6476
    -3.6437  -3.6221  -3.5710  -3.5681  -3.5581  -3.5560  -3.5509  -3.5281
    -3.5099  -3.5078  -3.4917  -3.4820  -3.4776  -3.4761  -3.4692  -3.4673
    -3.4506  -3.4364  -3.4357  -3.4334  -3.4308  -3.4277  -3.4263  -3.4245
    -3.4039  -3.4007  -3.3960  -3.3871  -3.3789  -3.3732  -3.3563  -3.3495
    -3.3221  -3.3073  -3.3045  -3.3042  -3.3038  -3.2967  -3.2936  -3.2925
    -3.2845  -3.2578  -3.2456  -3.2398  -3.2396  -3.2367  -3.2351  -3.2337
    -3.2319  -3.2302  -3.2060  -3.2014  -3.1980  -3.1897  -3.1890  -3.1802
    -3.1777  -3.1745  -3.1686  -3.1648  -3.1526  -3.1519  -3.1422  -3.1318
    -3.1313  -3.1252  -3.1217  -3.1183  -3.1183  -3.1182  -3.1075  -3.0638
    -3.0573  -3.0405  -3.0263  -3.0232  -3.0208  -3.0196  -3.0109  -2.9816
    -2.9795  -2.9790  -2.9781  -2.9780  -2.9774  -2.9678  -2.9659  -2.9624
    -2.9601  -2.9591  -2.9562  -2.9466  -2.9443  -2.9356  -2.9327  -2.9301
    -2.9280  -2.9270  -2.9254  -2.9163  -2.9110  -2.9066  -2.9030  -2.9014
    -2.8962  -2.8869  -2.8851  -2.8815  -2.8692  -2.8512  -2.8490  -2.8440
    -2.8401  -2.8290  -2.8264  -2.8199  -2.8169  -2.7494  -2.7490  -2.7475
    -2.7471  -2.7107  -2.6809  -2.6679  -2.6642  -2.5788  -2.5709  -2.5651
    -2.5402  -2.5273  -2.5217  -2.5118  -2.4990  -2.4891  -2.4843  -2.4829
    -2.4805  -2.4787  -2.4749  -2.4718  -2.3579  -2.3528  -2.3510  -2.3478
    -2.3465  -2.3364  -2.3348  -2.3044

          k =-0.5000-0.8660 0.0000 (386352 PWs)   bands (ev):

  -102.2209 -88.7201 -70.5361 -70.5336 -70.5333 -70.5330 -70.5045 -70.5045
   -70.4884 -66.5795 -66.5775 -66.5774 -66.5774 -66.5773 -66.5760 -66.5760
   -66.5717 -66.5668 -66.5668 -66.5668 -66.5667 -66.5654 -66.5654 -66.5603
   -66.5517 -66.5517 -66.5517 -66.5517 -66.5517 -66.5516 -66.5516 -66.5516
   -66.5514 -66.5503 -66.5503 -66.5503 -66.5503 -66.5483 -66.5473 -66.5472
   -66.5472 -66.5471 -66.5458 -66.5458 -66.5411 -66.5410 -66.5410 -66.5409
   -66.5409 -66.5409 -66.5409 -66.5408 -66.5408 -66.5396 -66.5396 -66.5395
   -66.5395 -66.5394 -66.5365 -66.5365 -66.5365 -66.5364 -66.5351 -66.5351
   -66.5339 -66.5316 -66.5266 -66.5232 -66.5213 -66.5150 -66.5133 -66.5028
   -66.4962 -56.4727 -56.4562 -56.4497 -54.5437 -54.5216 -54.5006 -40.8795
   -40.8794 -40.8794 -40.8794 -40.8794 -40.8794 -40.8793 -40.8793 -40.8787
   -40.8787 -40.8787 -40.8787 -40.8725 -40.8664 -40.8527 -40.8526 -40.8526
   -40.8525 -40.8520 -40.8519 -40.8518 -40.8482 -40.8429 -40.8406 -40.8405
   -40.8405 -40.8405 -40.8398 -40.8398 -40.8302 -40.8173 -40.8145 -40.7899
   -40.7899 -40.7899 -40.7899 -40.7898 -40.7898 -40.7898 -40.7898 -40.7890
   -40.7890 -40.7890 -40.7890 -40.7721 -40.7707 -40.7691 -40.7662 -40.7618
   -40.7312 -40.7311 -40.7311 -40.7310 -40.7307 -40.7304 -40.7304 -40.7241
   -40.7216 -40.7216 -40.7216 -40.7215 -40.7206 -40.7206 -40.7103 -40.7103
   -40.7102 -40.7102 -40.7095 -40.7095 -40.7086 -40.7038 -40.6968 -40.6933
   -40.6869 -40.6807 -40.6807 -40.6806 -40.6806 -40.6806 -40.6806 -40.6806
   -40.6806 -40.6799 -40.6799 -40.6799 -40.6799 -40.6758 -40.6734 -40.6720
   -40.6719 -40.6719 -40.6718 -40.6711 -40.6711 -40.6669 -40.6635 -40.6601
   -40.6601 -40.6601 -40.6600 -40.6598 -40.6597 -40.6596 -40.6596 -40.6596
   -40.6596 -40.6596 -40.6595 -40.6594 -40.6591 -40.6591 -40.6588 -40.6588
   -40.6588 -40.6588 -40.6549 -40.6511 -40.6509 -40.6509 -40.6509 -40.6509
   -40.6501 -40.6501 -40.6496 -40.6450 -40.6428 -40.6357 -40.6347 -40.6294
   -40.6292 -40.6292 -40.6292 -40.6291 -40.6291 -40.6290 -40.6289 -40.6282
   -40.6282 -40.6281 -40.6281 -40.6165 -40.6119 -40.6082 -40.6002 -40.5944
   -40.5944 -40.5944 -40.5944 -40.5944 -40.5944 -40.5944 -40.5944 -40.5934
   -40.5934 -40.5934 -40.5934 -40.5823 -40.5823 -40.5822 -40.5822 -40.5812
   -40.5812 -40.5780 -40.5745 -40.5714 -40.5700 -40.5640 -40.5631 -40.5630
   -40.5629 -40.5628 -40.5619 -40.5619 -40.5512 -40.5460 -40.5460 -40.5459
   -40.5459 -40.5449 -40.5449 -40.5436 -40.5399 -40.5229 -40.5166 -40.5153
   -40.5153 -40.5153 -40.5152 -40.5142 -40.5142 -40.4979 -40.4840 -19.9309
   -19.8462 -19.8226 -19.7861 -19.7222 -19.6957 -19.6150 -19.6058 -19.4478
   -19.4178 -19.3822 -19.3670 -19.2889 -19.2781 -19.1877 -19.1837 -18.8654
   -18.8048 -18.7824 -18.7428 -18.7212 -18.6995 -18.6801 -18.6790 -18.6772
   -18.6639 -18.6523 -18.6340 -18.6082 -18.6056 -18.6037 -18.5911 -18.5528
   -18.5346 -18.5243 -18.5126 -18.5089 -18.5053 -18.5029 -18.4806 -18.4664
   -18.4384 -18.4351 -18.4301 -18.4245 -18.3981 -18.3702 -18.3666 -18.3614
   -18.3392 -18.3202 -18.3138 -18.2995 -18.2875 -18.2785 -18.2518 -18.2247
   -18.2096 -18.2065 -18.1904 -18.1713 -18.1532 -18.1389 -18.1314 -18.1035
   -18.0919 -18.0791 -18.0720 -18.0607 -18.0595 -18.0574 -18.0564 -18.0433
   -18.0333 -18.0295 -18.0274 -18.0252 -18.0228 -18.0183 -18.0160 -18.0059
   -18.0014 -17.9960 -17.9869 -17.9686 -17.9670 -17.9628 -17.9611 -17.9576
   -17.9570 -17.9519 -17.9456 -17.9431 -17.9387 -17.9067 -17.9017 -17.8956
   -17.8933 -17.8841 -17.8761 -17.8509 -17.8468 -17.8440 -17.8315 -17.8256
   -17.8061 -17.8046 -17.7982 -17.7946 -17.7816 -17.7781 -17.7777 -17.7771
   -17.7761 -17.7745 -17.7728 -17.7631 -17.7605 -17.7432 -17.7400 -17.7188
   -17.7164 -17.6996 -17.6961 -17.6853 -17.6826 -17.6778 -17.6774 -11.9480
   -11.6925 -11.6776 -11.6618 -11.5719 -11.4952 -11.4794 -11.4715 -11.4709
   -11.4543 -11.4506 -11.4383 -11.4212 -11.4139 -11.4068 -11.3870 -11.3507
   -11.3488 -11.3335 -11.3206 -11.3089 -11.2927 -11.2859 -11.2790 -11.2675
   -11.2374 -11.2312 -11.2290 -11.2195 -11.2166 -11.2125 -11.2117 -11.1875
   -11.1660 -11.1634 -11.1610 -11.1501 -11.1371 -11.1316 -11.1273 -11.1244
   -11.1199 -11.1062 -11.1042 -11.0892 -11.0808 -11.0560 -11.0343 -11.0185
   -11.0179 -10.9841 -10.9334 -10.9179 -10.9066 -10.9014 -10.8858 -10.8760
   -10.8682 -10.8522 -10.8450 -10.8250 -10.8140 -10.8060 -10.7937 -10.7911
   -10.7869 -10.7826 -10.7796 -10.7693 -10.7691 -10.7685 -10.7666 -10.7580
   -10.7542 -10.7528 -10.7520 -10.7497 -10.7484 -10.7416 -10.7400 -10.7386
   -10.7366 -10.7016 -10.7013 -10.7011 -10.7006 -10.5748 -10.5079 -10.5033
   -10.4951 -10.4812 -10.4445 -10.4200 -10.3966 -10.3577 -10.3354 -10.3240
   -10.2694 -10.2081 -10.2018 -10.1446 -10.1139 -10.0952 -10.0875 -10.0747
   -10.0672 -10.0536 -10.0454 -10.0160 -10.0094  -9.9986  -9.9899  -9.9894
    -9.9852  -9.9705  -9.9668  -9.9603  -9.9407  -9.9049  -9.8884  -9.8858
    -9.8742  -9.8658  -9.8591  -9.8517  -9.8442  -9.8250  -9.8167  -9.7990
    -9.7857  -9.7786  -9.7677  -9.7403  -9.7358  -9.7261  -9.7192  -9.7004
    -9.6899  -9.6744  -9.6531  -9.6470  -9.6416  -9.6158  -9.6099  -9.5863
    -9.5768  -9.5690  -9.5632  -9.5368  -9.5295  -9.5159  -9.5146  -9.4983
    -9.4976  -9.4843  -9.4755  -9.4478  -9.4474  -9.4418  -9.4316  -9.4285
    -9.4224  -9.4168  -9.4143  -9.4096  -9.4037  -9.3858  -9.3834  -9.3356
    -9.3163  -9.2943  -9.2730  -9.2494  -9.2177  -9.1934  -9.1814  -9.1745
    -9.1660  -9.1634  -9.1523  -9.1427  -9.1328  -9.1093  -9.0982  -9.0904
    -9.0724  -9.0485  -9.0425  -9.0403  -9.0331  -9.0166  -9.0092  -9.0009
    -8.9928  -8.9877  -8.9804  -8.9527  -8.9437  -8.9274  -8.9242  -8.9174
    -8.9018  -8.9007  -8.8975  -8.8843  -8.8650  -8.8560  -8.8516  -8.8462
    -8.8441  -8.8437  -8.8379  -8.8330  -8.8292  -8.8273  -8.8253  -8.8246
    -8.8156  -8.8125  -8.7998  -8.7984  -8.7981  -8.7964  -8.7900  -8.7854
    -8.7609  -8.7522  -8.7501  -8.7469  -8.7436  -8.7409  -8.7391  -8.7218
    -8.7175  -8.6921  -8.6911  -8.6879  -8.6827  -8.6714  -8.6635  -8.6330
    -8.6250  -8.6144  -8.6057  -8.5638  -8.5102  -8.4631  -8.4597  -8.4207
    -8.4077  -8.3794  -8.3654  -8.3186  -8.3068  -8.2917  -8.2747  -8.2318
    -8.1693  -8.1342  -8.0864  -8.0860  -8.0793  -8.0774  -8.0705  -8.0666
    -8.0639  -8.0599  -8.0260  -8.0162  -7.9664  -7.9539  -7.9271  -7.9228
    -7.8862  -7.8356  -7.8253  -7.8012  -7.7979  -7.7939  -7.7868  -7.7836
    -7.7765  -7.7706  -7.7670  -7.7656  -7.7593  -7.7578  -7.7540  -7.7508
    -7.7445  -7.7430  -7.7402  -7.7398  -7.7369  -7.7304  -7.7282  -7.7248
    -7.7244  -7.7222  -7.7211  -7.7189  -7.7168  -7.7154  -7.7098  -7.7083
    -7.6917  -7.6887  -7.6880  -7.6839  -7.6807  -7.6556  -7.6551  -7.6537
[...]
     atom  169 type  1   force =     0.00000088    0.00000051    0.00068822
     atom  170 type  1   force =    -0.00001095   -0.00001583    0.00000418
     atom  171 type  2   force =    -0.00000371    0.00000019    0.00000512
     atom  172 type  2   force =    -0.00000020    0.00000069    0.00161543
     atom  173 type  2   force =    -0.00000033    0.00000021   -0.00235947
     atom  174 type  2   force =    -0.00000362   -0.00000299   -0.00000698
     atom  175 type  1   force =     0.00000787    0.00001567    0.00002836
     atom  176 type  1   force =    -0.00067384    0.00033481    0.00034842
     atom  177 type  2   force =    -0.00007239   -0.00025230   -0.00052495
     atom  178 type  2   force =     0.00000566    0.00000028   -0.00002983
     atom  179 type  2   force =     0.00001444    0.00000464    0.00000814
     atom  180 type  2   force =     0.00005585   -0.00099011   -0.00015712
     atom  181 type  1   force =     0.00000207   -0.00000080    0.00068816
     atom  182 type  1   force =    -0.00000957   -0.00000939    0.00000030
     atom  183 type  2   force =    -0.00000207   -0.00000099    0.00000551
     atom  184 type  2   force =    -0.00000014    0.00000066    0.00161545
     atom  185 type  2   force =    -0.00000029    0.00000016   -0.00235947
     atom  186 type  2   force =    -0.00000389   -0.00000118   -0.00000426
     atom  187 type  1   force =     0.00001694   -0.00000313    0.00003017
     atom  188 type  1   force =     0.00020453    0.00011929    0.00077682
     atom  189 type  2   force =    -0.00025669    0.00006534   -0.00052523
     atom  190 type  2   force =     0.00000502    0.00000337    0.00011939
     atom  191 type  2   force =    -0.00000019   -0.00000017    0.00003700
     atom  192 type  2   force =    -0.00080797    0.00053348   -0.00014844
     atom  193 type  3   force =    -0.00022994   -0.00013221   -0.00018907
     atom  194 type  4   force =     0.00002957    0.00002529    0.00066086

     Total force =     0.004374     Total SCF correction =     0.000357
     Energy error            =      4.4E-05 Ry
     Gradient error          =      9.9E-04 Ry/Bohr

     bfgs converged in  16 scf cycles and  15 bfgs steps
     (criteria: energy <  1.0E-04 Ry, force <  1.0E-03 Ry/Bohr)

     End of BFGS Geometry Optimization

     Final energy             =  -33980.2850966622 Ry

     File ./outdir/pwscf.bfgs deleted, as requested
Begin final coordinates

ATOMIC_POSITIONS (angstrom)
Mo               0.0000119917        1.8193638619       -9.1672481230    0   0   0
Mo               1.5756136568        0.9097075315       -3.0554901653    0   0   0
S                0.0000188998        1.8193822938       -4.6232556019    0   0   0
S                1.5756321638        0.9096773839       -7.6014065489    0   0   0
S                1.5756326175        0.9096785128      -10.7330757790    0   0   0
S                0.0000189190        1.8193860094       -1.4877129945    0   0   0
Mo               0.0000438999        1.8193564526        3.0564263036
Mo               1.5811762544        0.9266153310        9.1633191355
S                0.0008106511        1.8249505487        7.5879412315
S                1.5754932344        0.9090541583        4.6239179662
S                1.5755271135        0.9098334330        1.4883145114
S               -0.0041507622        1.8103065132       10.7333200989
Mo              -1.5756053507        4.5484193819       -9.1672481230    0   0   0
Mo               0.0000378379        3.6387394919       -3.0554952701    0   0   0
S               -1.5755913433        4.5484363582       -4.6232494962    0   0   0
S                0.0000148214        3.6387329039       -7.6014065489    0   0   0
S                0.0000152751        3.6387340328      -10.7330757790    0   0   0
S               -1.5755906502        4.5484413613       -1.4877305502    0   0   0
Mo              -1.5752233471        4.5486389980        3.0560213570
Mo              -0.0076865050        3.6289266730        9.1713757778
S               -1.5698652870        4.5517371125        7.5931063813
S                0.0006333428        3.6392198662        4.6238544342
S               -0.0000272851        3.6385876274        1.4881235448
S               -1.5829987385        4.5441530819       10.7305856585
Mo              -3.1512226931        7.2774749019       -9.1672481230    0   0   0
Mo              -1.5755910988        6.3678216792       -3.0555115988    0   0   0
S               -3.1512162438        7.2774954350       -4.6232578178    0   0   0
S               -1.5756025210        6.3677884239       -7.6014065489    0   0   0
S               -1.5756020673        6.3677895528      -10.7330757790    0   0   0
S               -3.1512127704        7.2774877076       -1.4877200710    0   0   0
Mo              -3.1512089948        7.2775048150        3.0564229945
Mo              -1.5879497738        6.3660284307        9.1713764345
S               -3.1459876371        7.2753815773        7.5879434942
S               -1.5748732863        6.3680800777        4.6238580441
S               -1.5757487345        6.3678241013        1.4881222162
S               -3.1611465054        7.2784047157       10.7333260714
Mo              -4.7268400355       10.0065304219       -9.1672481230    0   0   0
Mo              -3.1512405618        9.0968403586       -3.0554816746    0   0   0
S               -4.7268341792       10.0065523623       -4.6232463762    0   0   0
S               -3.1512198634        9.0968439439       -7.6014065489    0   0   0
S               -3.1512194097        9.0968450728      -10.7330757790    0   0   0
S               -4.7268370797       10.0065537885       -1.4877176751    0   0   0
Mo              -4.7270802314       10.0063868063        3.0556091186
Mo              -3.1337830150        9.0931834415        9.1633210948
S               -4.7513253817        9.9923960773        7.6376678697
S               -3.1518290191        9.0970334870        4.6239204803
S               -3.1511358801        9.0966740084        1.4883099754
S               -4.6025540003       10.0782895425       10.7974850079
Mo               3.1512517547        1.8193638619       -9.1672481230    0   0   0
Mo               4.7269020221        0.9097289540       -3.0554823951    0   0   0
S                3.1512612351        1.8193882564       -4.6232320683    0   0   0
S                4.7268719268        0.9096773839       -7.6014065489    0   0   0
S                4.7268723805        0.9096785128      -10.7330757790    0   0   0
S                3.1512592485        1.8193890201       -1.4877261251    0   0   0
Mo               3.1510416736        1.8194893836        3.0561570493
Mo               4.7275482000        0.9100716995        9.1499387783
S                3.1505617658        1.8205547384        7.5799588766
S                4.7270998685        0.9098066893        4.6230095281
S                4.7266668302        0.9095580934        1.4881413038
S                3.1678303739        1.8186722681       10.7291147601
Mo               1.5756344123        4.5484193819       -9.1672481230    0   0   0
Mo               3.1512756394        3.6387769522       -3.0554814834    0   0   0
S                1.5756504879        4.5484423799       -4.6232390542    0   0   0
S                3.1512545844        3.6387329039       -7.6014065489    0   0   0
S                3.1512550381        3.6387340328      -10.7330757790    0   0   0
S                1.5756466253        4.5484431864       -1.4877251801    0   0   0
Mo               1.5755797162        4.5487846429        3.0554354014
Mo               3.1600598889        3.6261073757        9.1607187383
S                1.5718326290        4.5752418637        7.6374399537
S                3.1503768209        3.6393780221        4.6238984679
S                3.1514302648        3.6388233440        1.4882565139
S                1.5776291589        4.4399565108       10.7839320314
Mo               0.0000170699        7.2774749019       -9.1672481230    0   0   0
Mo               1.5756764447        6.3678236689       -3.0554877708    0   0   0
S                0.0000381981        7.2774979204       -4.6232454413    0   0   0
S                1.5756372420        6.3677884239       -7.6014065489    0   0   0
S                1.5756376957        6.3677895528      -10.7330757790    0   0   0
S                0.0000328088        7.2774946042       -1.4877307940    0   0   0
Mo               0.0003056533        7.2772463440        3.0554408117
Mo               1.5747904319        6.3673027048        9.2294024890
S                0.0213429100        7.2607698934        7.6374364198
S                1.5756681534        6.3678051262        4.6235818394
S                1.5759401952        6.3679614274        1.4876404312
S               -0.0929184548        7.3334380692       10.7839314033
Mo              -1.5756002725       10.0065304219       -9.1672481230    0   0   0
Mo               0.0000873425        9.0968676911       -3.0554912329    0   0   0
S               -1.5755883952       10.0065504530       -4.6232240150    0   0   0
S                0.0000198996        9.0968439439       -7.6014065489    0   0   0
S                0.0000203533        9.0968450728      -10.7330757790    0   0   0
S               -1.5755859047       10.0065492576       -1.4877362381    0   0   0
Mo              -1.5755953851       10.0062826243        3.0561555816
Mo              -0.0065169798        9.1107855621        9.1607122458
S               -1.5749224483       10.0053401680        7.5799583392
S                0.0001407641        9.0957632631        4.6239036492
S                0.0001847921        9.0969484268        1.4882567853
S               -1.5679112914       10.0212335058       10.7291138105
Mo               6.3024915177        1.8193638619       -9.1672481230    0   0   0
Mo               7.8781001445        0.9096521684       -3.0554919963    0   0   0
S                6.3025008696        1.8193826232       -4.6232480596    0   0   0
S                7.8781116898        0.9096773839       -7.6014065489    0   0   0
S                7.8781121435        0.9096785128      -10.7330757790    0   0   0
S                6.3025042007        1.8193849068       -1.4877147524    0   0   0
Mo               6.3025480942        1.8193961677        3.0553335615
Mo               7.8765909576        0.9124117070        9.1565230266
S                6.3045478985        1.8205598689        7.5843679597
S                7.8781192292        0.9096622801        4.6229458109
S                7.8783318149        0.9093203515        1.4881155403
S                6.3013731325        1.8187222579       10.7241007731
Mo               4.7268741753        4.5484193819       -9.1672481230    0   0   0
Mo               6.3024679138        3.6387501714       -3.0554895197    0   0   0
S                4.7268748770        4.5484386753       -4.6232519432    0   0   0
S                6.3024943474        3.6387329039       -7.6014065489    0   0   0
S                6.3024948011        3.6387340328      -10.7330757790    0   0   0
S                4.7268770533        4.5484432419       -1.4877137856    0   0   0
Mo               4.7266387859        4.5488484629        3.0564222626
Mo               6.3040964669        3.6360617240        9.1565275467
S                4.7271115073        4.5480551881        7.5875649963
S                6.3024868741        3.6387500361        4.6229454777
S                6.3022948093        3.6391059899        1.4881156379
S                4.7245654904        4.5261360498       10.7321496345
Mo               3.1512568329        7.2774749019       -9.1672481230    0   0   0
Mo               4.7268384135        6.3678043337       -3.0554959052    0   0   0
S                3.1512606125        7.2774972547       -4.6232589675    0   0   0
S                4.7268770050        6.3677884239       -7.6014065489    0   0   0
S                4.7268774587        6.3677895528      -10.7330757790    0   0   0
S                3.1512629079        7.2774963749       -1.4877081835    0   0   0
Mo               3.1512962389        7.2774907575        3.0561353661
Mo               4.7298883854        6.3504906532        9.1770091272
S                3.1292526934        7.2647749560        7.6414289869
S                4.7268093149        6.3685447089        4.6246739724
S                4.7268046646        6.3678104332        1.4883536674
S                3.2474180431        7.3330003332       10.7893030622
Mo               1.5756394905       10.0065304219       -9.1672481230    0   0   0
Mo               3.1512330605        9.0968514907       -3.0554878870    0   0   0
S                1.5756499830       10.0065443759       -4.6232632674    0   0   0
S                3.1512596626        9.0968439439       -7.6014065489    0   0   0
S                3.1512601163        9.0968450728      -10.7330757790    0   0   0
S                1.5756503041       10.0065459699       -1.4877044377    0   0   0
Mo               1.5758948598       10.0061088680        3.0564224474
Mo               3.1377690601        9.1081075014        9.1769983555
S                1.5754370891       10.0069253547        7.5875594767
S                3.1518840217        9.0964030339        4.6246732764
S                3.1512442322        9.0967647686        1.4883559597
S                1.5551800838       10.0156780994       10.7321419718
Mo               9.4537312807        1.8193638619       -9.1672481230    0   0   0
Mo              11.0293863460        0.9096952246       -3.0554894007    0   0   0
S                9.4537395970        1.8193770750       -4.6232328036    0   0   0
S               11.0293514528        0.9096773839       -7.6014065489    0   0   0
S               11.0293519066        0.9096785128      -10.7330757790    0   0   0
S                9.4537393632        1.8193794783       -1.4877366147    0   0   0
Mo               9.4539590305        1.8192961761        3.0558814868
Mo              11.0243414393        0.9292442106        9.1618381884
S                9.4516420629        1.8190710471        7.5810084351
S               11.0293578588        0.9091114144        4.6240334136
S               11.0295439084        0.9096567521        1.4883370043
S                9.4424370468        1.8355362768       10.7261809285
Mo               7.8781139383        4.5484193819       -9.1672481230    0   0   0
Mo               9.4537539161        3.6387607911       -3.0554933032    0   0   0
S                7.8781175448        4.5484378232       -4.6232366318    0   0   0
S                9.4537341104        3.6387329039       -7.6014065489    0   0   0
S                9.4537345641        3.6387340328      -10.7330757790    0   0   0
S                7.8781194018        4.5484411585       -1.4877377057    0   0   0
Mo               7.8781728977        4.5486512446        3.0558837817
Mo               9.4515183639        3.6374614050        9.1508498952
S                7.8768095427        4.5467724065        7.5810128423
S                9.4541619520        3.6389794618        4.6232769372
S                9.4539241590        3.6388422473        1.4882119517
S                7.8864705319        4.5305646458       10.7261848385
Mo               6.3024965959        7.2774749019       -9.1672481230    0   0   0
Mo               7.8781361655        6.3678242352       -3.0555014130    0   0   0
S                6.3024973331        7.2774953556       -4.6232392528    0   0   0
S                7.8781167680        6.3677884239       -7.6014065489    0   0   0
S                7.8781172217        6.3677895528      -10.7330757790    0   0   0
S                6.3024989866        7.2774929744       -1.4877349119    0   0   0
Mo               6.3023276113        7.2776619461        3.0558923339
Mo               7.8925496707        6.3536876572        9.1618502752
S                6.3008402904        7.3014589139        7.6378853985
S                7.8776322489        6.3680802704        4.6240343591
S                7.8781962812        6.3679675920        1.4883378384
S                6.3205069805        7.1250706140       10.8065371079
Mo               4.7268792535       10.0065304219       -9.1672481230    0   0   0
Mo               6.3025111524        9.0968738021       -3.0554915260    0   0   0
S                4.7268840634       10.0065452125       -4.6232380477    0   0   0
S                6.3024994256        9.0968439439       -7.6014065489    0   0   0
S                6.3024998793        9.0968450728      -10.7330757790    0   0   0
S                4.7268847312       10.0065459141       -1.4877283294    0   0   0
Mo               4.7269598341       10.0062895436        3.0558904038
Mo               6.3008738951        9.0959183193        9.2137109833
S                4.7468166944        9.9931088243        7.6378789261
S                6.3024205462        9.0967977161        4.6235593328
S                6.3023730543        9.0967703034        1.4877730885
S                4.6038471770       10.0983607478       10.8065235438
Pd               1.5897649332        6.3759464618       12.1048420343
Pt               6.2913315171        9.0904067509       11.9640783405
End final coordinates



     Writing all to output data dir ./outdir/pwscf.save/ :
     XML data file, charge density, pseudopotentials, collected wavefunctions
 
     init_run     :    173.35s CPU    177.06s WALL (       1 calls)
     electrons    : 130240.44s CPU 131880.40s WALL (      16 calls)
     update_pot   :     25.22s CPU     25.98s WALL (      15 calls)
     forces       :   2062.27s CPU   2097.91s WALL (      16 calls)
     force_dftd3  :     10.75s CPU     11.20s WALL (      16 calls)

     Called by init_run:
     wfcinit      :    149.71s CPU    151.61s WALL (       1 calls)
     potinit      :      1.31s CPU      1.58s WALL (       1 calls)
     hinit0       :     12.72s CPU     12.84s WALL (       1 calls)

     Called by electrons:
     c_bands      : 115133.48s CPU 116230.94s WALL (     213 calls)
     sum_band     :  13473.75s CPU  13754.92s WALL (     213 calls)
     v_of_rho     :     77.30s CPU     86.51s WALL (     218 calls)
     newd         :   1377.64s CPU   1633.83s WALL (     218 calls)
     PAW_pot      :    206.03s CPU    208.07s WALL (     233 calls)
     mix_rho      :     21.24s CPU     24.38s WALL (     213 calls)
     energy_dftd3 :      6.18s CPU      6.21s WALL (      16 calls)

     Called by c_bands:
     init_us_2    :    456.10s CPU    458.20s WALL (    1832 calls)
     init_us_2:cp :    456.08s CPU    458.19s WALL (    1832 calls)
     cegterg      : 113186.54s CPU 114271.97s WALL (     877 calls)

     Called by *egterg:
     cdiaghg      :   6624.90s CPU   6864.49s WALL (   10599 calls)
     h_psi        :  57074.02s CPU  57427.95s WALL (   10715 calls)
     s_psi        :  13040.81s CPU  13121.15s WALL (   10715 calls)
     g_psi        :    102.33s CPU    102.77s WALL (    9834 calls)

     Called by h_psi:
     h_psi:calbec :  12925.46s CPU  12968.14s WALL (   10715 calls)
     vloc_psi     :  30853.87s CPU  31002.23s WALL (   10715 calls)
     add_vuspsi   :  13058.80s CPU  13141.09s WALL (   10715 calls)

     General routines
     calbec       :  18480.73s CPU  18542.48s WALL (   11883 calls)
     fft          :     84.14s CPU     92.81s WALL (    3004 calls)
     ffts         :      3.97s CPU      4.20s WALL (     431 calls)
     fftw         :  23311.18s CPU  23421.56s WALL ( 6091826 calls)
     interpolate  :      6.81s CPU      7.45s WALL (     218 calls)
 
     Parallel routines
 
     PWSCF        :   1d12h58m CPU   1d13h28m WALL

 
   This run was terminated on:   4: 6:38  21Mar2024            

=------------------------------------------------------------------------------=
   JOB DONE.
=------------------------------------------------------------------------------=
