
     Program PWSCF v.7.3 starts on 10Apr2024 at 11:24:24 

     This program is part of the open-source Quantum ESPRESSO suite
     for quantum simulation of materials; please cite
         "P. Giannozzi et al., J. Phys.:Condens. Matter 21 395502 (2009);
         "P. Giannozzi et al., J. Phys.:Condens. Matter 29 465901 (2017);
         "P. Giannozzi et al., J. Chem. Phys. 152 154105 (2020);
          URL http://www.quantum-espresso.org", 
     in publications or presentations arising from this work. More details at
     http://www.quantum-espresso.org/quote

     Parallel version (MPI & OpenMP), running on      36 processor cores
     Number of MPI processes:                36
     Threads/MPI process:                     1

     MPI processes distributed on     1 nodes
     554883 MiB available memory on the printing compute node when the environment starts
 
     Waiting for input...
     Reading input from standard input
Warning: card &CELL ignored
Warning: card / ignored

     Current dimensions of program PWSCF are:
     Max number of different atomic species (ntypx) = 10
     Max number of k-points (npk) =  40000
     Max angular momentum in pseudopotentials (lmaxx) =  4
     file Mo.pbe-spn-kjpaw_psl.1.0.0.UPF: wavefunction(s)  4S 4D renormalized
     file S.pbe-n-kjpaw_psl.1.0.0.UPF: wavefunction(s)  3S 3P renormalized
     file Pt.pbe-spfn-kjpaw_psl.1.0.0.UPF: wavefunction(s)  5P 4F renormalized
     file Pd.pbe-spn-kjpaw_psl.1.0.0.UPF: wavefunction(s)  4S 5S 4D renormalized
 
     R & G space division:  proc/nbgrp/npool/nimage =      36
     Subspace diagonalization in iterative solution of the eigenvalue problem:
     one sub-group per band group will be used
     scalapack distributed-memory algorithm (size of sub-group:  6*  6 procs)

 
     Parallelization info
     --------------------
     sticks:   dense  smooth     PW     G-vecs:    dense   smooth      PW
     Min         585     334     89               198743    85850   11735
     Max         586     335     90               198750    85861   11748
     Sum       21073   12049   3205              7154885  3090769  422587
 
     Using Slab Decomposition
 


     bravais-lattice index     =            0
     lattice parameter (alat)  =      23.8199  a.u.
     unit-cell volume          =   33861.0370 (a.u.)^3
     number of atoms/cell      =          195
     number of atomic types    =            4
     number of electrons       =      1746.00
     number of Kohn-Sham states=         1048
     kinetic-energy cutoff     =      77.0000  Ry
     charge density cutoff     =     539.0000  Ry
     scf convergence threshold =      1.0E-06
     mixing beta               =       0.2000
     number of iterations used =            8  plain     mixing
     energy convergence thresh.=      1.0E-04
     force convergence thresh. =      1.0E-03
     Exchange-correlation= SLA  PW   PBX  PBC
                           (   1   4   3   4   0   0   0)
     nstep                     =         1000


     Effective Screening Medium Method
     =================================
     Boundary Conditions: Vacuum-Slab-Vacuum
     total charge in unit cell        =   0.0000
     grid points for fit at edges     =        4 
 

     celldm(1)=  23.819920  celldm(2)=   0.000000  celldm(3)=   0.000000
     celldm(4)=   0.000000  celldm(5)=   0.000000  celldm(6)=   0.000000

     crystal axes: (cart. coord. in units of alat)
               a(1) = (   1.000000   0.000000   0.000000 )  
               a(2) = (  -0.499999   0.866026   0.000000 )  
               a(3) = (   0.000000   0.000000   2.893000 )  

     reciprocal axes: (cart. coord. in units 2 pi/alat)
               b(1) = (  1.000000  0.577349  0.000000 )  
               b(2) = (  0.000000  1.154700  0.000000 )  
               b(3) = (  0.000000  0.000000  0.345662 )  


     PseudoPot. # 1 for Mo read from file:
     ./pseudo/Mo.pbe-spn-kjpaw_psl.1.0.0.UPF
     MD5 check sum: 317bf72632116215fd98f72de1686f13
     Pseudo is Projector augmented-wave + core cor, Zval = 14.0
     Generated using 'atomic' code by A. Dal Corso  v.7.2
     Shape of augmentation charge: PSQ
     Using radial grid of 1229 points,  6 beta functions with: 
                l(1) =   0
                l(2) =   0
                l(3) =   1
                l(4) =   1
                l(5) =   2
                l(6) =   2
     Q(r) pseudized with 0 coefficients 


     PseudoPot. # 2 for S  read from file:
     ./pseudo/S.pbe-n-kjpaw_psl.1.0.0.UPF
     MD5 check sum: 8b7b5302570d38d5e87fed6a1065abda
     Pseudo is Projector augmented-wave + core cor, Zval =  6.0
     Generated using 'atomic' code by A. Dal Corso  v.7.2
     Shape of augmentation charge: PSQ
     Using radial grid of 1151 points,  6 beta functions with: 
                l(1) =   0
                l(2) =   0
                l(3) =   1
                l(4) =   1
                l(5) =   2
                l(6) =   2
     Q(r) pseudized with 0 coefficients 


     PseudoPot. # 3 for Pt read from file:
     ./pseudo/Pt.pbe-spfn-kjpaw_psl.1.0.0.UPF
     MD5 check sum: 620096ebf4e6ebacc94de60fd67efcb5
     Pseudo is Projector augmented-wave + core cor, Zval = 32.0
     Generated using 'atomic' code by A. Dal Corso  v.7.2
     Shape of augmentation charge: PSQ
     Using radial grid of 1277 points,  8 beta functions with: 
                l(1) =   0
                l(2) =   0
                l(3) =   1
                l(4) =   1
                l(5) =   2
                l(6) =   2
                l(7) =   3
                l(8) =   3
     Q(r) pseudized with 0 coefficients 


     PseudoPot. # 4 for Pd read from file:
     ./pseudo/Pd.pbe-spn-kjpaw_psl.1.0.0.UPF
     MD5 check sum: a60571a671f2502b8a6a4569d20a6edb
     Pseudo is Projector augmented-wave + core cor, Zval = 18.0
     Generated using 'atomic' code by A. Dal Corso  v.7.2
     Shape of augmentation charge: PSQ
     Using radial grid of 1235 points,  6 beta functions with: 
                l(1) =   0
                l(2) =   0
                l(3) =   1
                l(4) =   1
                l(5) =   2
                l(6) =   2
     Q(r) pseudized with 0 coefficients 


     atomic species   valence    mass     pseudopotential
     Mo               14.00    95.95000     Mo( 1.00)
     S                 6.00    32.06000     S ( 1.00)
     Pt               32.00   195.08400     Pt( 1.00)
     Pd               18.00   106.42000     Pd( 1.00)

     No symmetry found



   Cartesian axes

     site n.     atom                  positions (alat units)
         1        Mo     tau(   1) = (   0.0000010   0.1443372  -0.7272732  )
         2        Mo     tau(   2) = (   0.1249995   0.0721706  -0.2424038  )
         3        S      tau(   3) = (   0.0000015   0.1443386  -0.3667807  )
         4        S      tau(   4) = (   0.1250010   0.0721682  -0.6030489  )
         5        S      tau(   5) = (   0.1250010   0.0721683  -0.8514963  )
         6        S      tau(   6) = (   0.0000015   0.1443389  -0.1180260  )
         7        Mo     tau(   7) = (   0.0000005   0.1443381   0.2424561  )
         8        Mo     tau(   8) = (   0.1251981   0.0716023   0.7276027  )
         9        S      tau(   9) = (  -0.0003031   0.1454842   0.6052312  )
        10        S      tau(  10) = (   0.1249558   0.0721599   0.3668208  )
        11        S      tau(  11) = (   0.1250088   0.0721517   0.1180857  )
        12        S      tau(  12) = (  -0.0004157   0.1382876   0.8564685  )
        13        Mo     tau(  13) = (  -0.1249989   0.3608437  -0.7272732  )
        14        Mo     tau(  14) = (   0.0000030   0.2886752  -0.2424042  )
        15        S      tau(  15) = (  -0.1249977   0.3608450  -0.3667802  )
        16        S      tau(  16) = (   0.0000012   0.2886747  -0.6030489  )
        17        S      tau(  17) = (   0.0000012   0.2886748  -0.8514963  )
        18        S      tau(  18) = (  -0.1249977   0.3608454  -0.1180274  )
        19        Mo     tau(  19) = (  -0.1249623   0.3608201   0.2425155  )
        20        Mo     tau(  20) = (  -0.0007801   0.2872696   0.7308518  )
        21        S      tau(  21) = (  -0.1240398   0.3604107   0.6055268  )
        22        S      tau(  22) = (   0.0000411   0.2886546   0.3669163  )
        23        S      tau(  23) = (   0.0000035   0.2886726   0.1180964  )
        24        S      tau(  24) = (  -0.1315418   0.3638985   0.8543850  )
        25        Mo     tau(  25) = (  -0.2499987   0.5773502  -0.7272732  )
        26        Mo     tau(  26) = (  -0.1249977   0.5051839  -0.2424055  )
        27        S      tau(  27) = (  -0.2499981   0.5773518  -0.3667809  )
        28        S      tau(  28) = (  -0.1249986   0.5051812  -0.6030489  )
        29        S      tau(  29) = (  -0.1249986   0.5051813  -0.8514963  )
        30        S      tau(  30) = (  -0.2499979   0.5773512  -0.1180266  )
        31        Mo     tau(  31) = (  -0.2499787   0.5773156   0.2425145  )
        32        Mo     tau(  32) = (  -0.1271807   0.5060660   0.7281741  )
        33        S      tau(  33) = (  -0.2502658   0.5775034   0.6017985  )
        34        S      tau(  34) = (  -0.1249543   0.5051367   0.3669386  )
        35        S      tau(  35) = (  -0.1249864   0.5051552   0.1181399  )
        36        S      tau(  36) = (  -0.2525628   0.5785576   0.8514793  )
        37        Mo     tau(  37) = (  -0.3749985   0.7938567  -0.7272732  )
        38        Mo     tau(  38) = (  -0.2500001   0.7216874  -0.2424031  )
        39        S      tau(  39) = (  -0.3749980   0.7938584  -0.3667800  )
        40        S      tau(  40) = (  -0.2499984   0.7216877  -0.6030489  )
        41        S      tau(  41) = (  -0.2499984   0.7216878  -0.8514963  )
        42        S      tau(  42) = (  -0.3749982   0.7938585  -0.1180264  )
        43        Mo     tau(  43) = (  -0.3750043   0.7938372   0.2424536  )
        44        Mo     tau(  44) = (  -0.2503619   0.7218808   0.7263407  )
        45        S      tau(  45) = (  -0.3755748   0.7941519   0.6023691  )
        46        S      tau(  46) = (  -0.2500067   0.7216811   0.3668312  )
        47        S      tau(  47) = (  -0.2499793   0.7216445   0.1181126  )
        48        S      tau(  48) = (  -0.3746959   0.7932047   0.8515893  )
        49        Mo     tau(  49) = (   0.2500010   0.1443372  -0.7272732  )
        50        Mo     tau(  50) = (   0.3750034   0.0721723  -0.2424032  )
        51        S      tau(  51) = (   0.2500017   0.1443391  -0.3667788  )
        52        S      tau(  52) = (   0.3750010   0.0721682  -0.6030489  )
        53        S      tau(  53) = (   0.3750010   0.0721683  -0.8514963  )
        54        S      tau(  54) = (   0.2500016   0.1443391  -0.1180271  )
        55        Mo     tau(  55) = (   0.2500033   0.1443124   0.2424881  )
        56        Mo     tau(  56) = (   0.3752595   0.0716472   0.7255395  )
        57        S      tau(  57) = (   0.2498544   0.1431280   0.6011361  )
        58        S      tau(  58) = (   0.3750516   0.0721435   0.3668117  )
        59        S      tau(  59) = (   0.3750079   0.0721203   0.1180977  )
        60        S      tau(  60) = (   0.2517312   0.1427646   0.8506906  )
        61        Mo     tau(  61) = (   0.1250012   0.3608437  -0.7272732  )
        62        Mo     tau(  62) = (   0.2500029   0.2886782  -0.2424031  )
        63        S      tau(  63) = (   0.1250024   0.3608455  -0.3667794  )
        64        S      tau(  64) = (   0.2500012   0.2886747  -0.6030489  )
        65        S      tau(  65) = (   0.2500012   0.2886748  -0.8514963  )
        66        S      tau(  66) = (   0.1250021   0.3608455  -0.1180270  )
        67        Mo     tau(  67) = (   0.1249995   0.3608273   0.2424838  )
        68        Mo     tau(  68) = (   0.2535704   0.2866116   0.7259154  )
        69        S      tau(  69) = (   0.1241106   0.3617788   0.6079553  )
        70        S      tau(  70) = (   0.2499752   0.2886689   0.3668869  )
        71        S      tau(  71) = (   0.2500098   0.2886475   0.1181123  )
        72        S      tau(  72) = (   0.1336503   0.3523048   0.8541313  )
        73        Mo     tau(  73) = (   0.0000014   0.5773502  -0.7272732  )
        74        Mo     tau(  74) = (   0.1250045   0.5051840  -0.2424036  )
        75        S      tau(  75) = (   0.0000030   0.5773520  -0.3667799  )
        76        S      tau(  76) = (   0.1250014   0.5051812  -0.6030489  )
        77        S      tau(  77) = (   0.1250014   0.5051813  -0.8514963  )
        78        S      tau(  78) = (   0.0000026   0.5773517  -0.1180274  )
        79        Mo     tau(  79) = (   0.0000276   0.5772927   0.2425177  )
        80        Mo     tau(  80) = (   0.1255270   0.5059369   0.7313762  )
        81        S      tau(  81) = (   0.0011816   0.5764663   0.6064450  )
        82        S      tau(  82) = (   0.1250222   0.5051261   0.3669341  )
        83        S      tau(  83) = (   0.1249880   0.5051467   0.1180950  )
        84        S      tau(  84) = (  -0.0088763   0.5830479   0.8565830  )
        85        Mo     tau(  85) = (  -0.1249984   0.7938567  -0.7272732  )
        86        Mo     tau(  86) = (   0.0000069   0.7216896  -0.2424039  )
        87        S      tau(  87) = (  -0.1249975   0.7938582  -0.3667782  )
        88        S      tau(  88) = (   0.0000016   0.7216877  -0.6030489  )
        89        S      tau(  89) = (   0.0000016   0.7216878  -0.8514963  )
        90        S      tau(  90) = (  -0.1249973   0.7938582  -0.1180279  )
        91        Mo     tau(  91) = (  -0.1249699   0.7938095   0.2424907  )
        92        Mo     tau(  92) = (  -0.0004895   0.7231014   0.7275053  )
        93        S      tau(  93) = (  -0.1248847   0.7932555   0.6014963  )
        94        S      tau(  94) = (   0.0000405   0.7216116   0.3668908  )
        95        S      tau(  95) = (   0.0000242   0.7216332   0.1181249  )
        96        S      tau(  96) = (  -0.1259194   0.7949777   0.8510667  )
        97        Mo     tau(  97) = (   0.5000010   0.1443372  -0.7272732  )
        98        Mo     tau(  98) = (   0.6250001   0.0721662  -0.2424040  )
        99        S      tau(  99) = (   0.5000017   0.1443386  -0.3667801  )
       100        S      tau( 100) = (   0.6250010   0.0721682  -0.6030489  )
       101        S      tau( 101) = (   0.6250010   0.0721683  -0.8514963  )
       102        S      tau( 102) = (   0.5000020   0.1443388  -0.1180261  )
       103        Mo     tau( 103) = (   0.5000355   0.1442968   0.2424343  )
       104        Mo     tau( 104) = (   0.6251054   0.0720760   0.7269638  )
       105        S      tau( 105) = (   0.5007812   0.1439212   0.6015111  )
       106        S      tau( 106) = (   0.6250309   0.0721295   0.3668346  )
       107        S      tau( 107) = (   0.6250410   0.0721183   0.1180973  )
       108        S      tau( 108) = (   0.4998652   0.1442971   0.8504179  )
       109        Mo     tau( 109) = (   0.3750012   0.3608437  -0.7272732  )
       110        Mo     tau( 110) = (   0.4999991   0.2886761  -0.2424038  )
       111        S      tau( 111) = (   0.3750012   0.3608452  -0.3667804  )
       112        S      tau( 112) = (   0.5000012   0.2886747  -0.6030489  )
       113        S      tau( 113) = (   0.5000012   0.2886748  -0.8514963  )
       114        S      tau( 114) = (   0.3750014   0.3608455  -0.1180261  )
       115        Mo     tau( 115) = (   0.3749988   0.3608207   0.2424913  )
       116        Mo     tau( 116) = (   0.5005676   0.2886014   0.7258090  )
       117        S      tau( 117) = (   0.3761076   0.3615161   0.6013079  )
       118        S      tau( 118) = (   0.5000282   0.2886169   0.3668001  )
       119        S      tau( 119) = (   0.5000158   0.2886613   0.1180928  )
       120        S      tau( 120) = (   0.3768791   0.3600665   0.8508100  )
       121        Mo     tau( 121) = (   0.2500014   0.5773502  -0.7272732  )
       122        Mo     tau( 122) = (   0.3749983   0.5051825  -0.2424043  )
       123        S      tau( 123) = (   0.2500017   0.5773519  -0.3667810  )
       124        S      tau( 124) = (   0.3750014   0.5051812  -0.6030489  )
       125        S      tau( 125) = (   0.3750014   0.5051813  -0.8514963  )
       126        S      tau( 126) = (   0.2500018   0.5773519  -0.1180256  )
       127        Mo     tau( 127) = (   0.2499755   0.5773110   0.2424609  )
       128        Mo     tau( 128) = (   0.3758691   0.5051374   0.7277779  )
       129        S      tau( 129) = (   0.2483182   0.5768077   0.6062789  )
       130        S      tau( 130) = (   0.3749464   0.5051844   0.3668408  )
       131        S      tau( 131) = (   0.3749944   0.5051486   0.1180923  )
       132        S      tau( 132) = (   0.2574557   0.5818559   0.8585037  )
       133        Mo     tau( 133) = (   0.1250016   0.7938567  -0.7272732  )
       134        Mo     tau( 134) = (   0.2499995   0.7216883  -0.2424036  )
       135        S      tau( 135) = (   0.1250024   0.7938578  -0.3667813  )
       136        S      tau( 136) = (   0.2500016   0.7216877  -0.6030489  )
       137        S      tau( 137) = (   0.2500016   0.7216878  -0.8514963  )
       138        S      tau( 138) = (   0.1250024   0.7938579  -0.1180253  )
       139        Mo     tau( 139) = (   0.1250229   0.7938069   0.2425006  )
       140        Mo     tau( 140) = (   0.2504358   0.7224862   0.7284223  )
       141        S      tau( 141) = (   0.1254429   0.7935457   0.6029055  )
       142        S      tau( 142) = (   0.2500049   0.7216116   0.3668842  )
       143        S      tau( 143) = (   0.2500022   0.7216616   0.1181021  )
       144        S      tau( 144) = (   0.1246626   0.7944127   0.8519137  )
       145        Mo     tau( 145) = (   0.7500010   0.1443372  -0.7272732  )
       146        Mo     tau( 146) = (   0.8750038   0.0721696  -0.2424038  )
       147        S      tau( 147) = (   0.7500016   0.1443382  -0.3667789  )
       148        S      tau( 148) = (   0.8750010   0.0721682  -0.6030489  )
       149        S      tau( 149) = (   0.8750010   0.0721683  -0.8514963  )
       150        S      tau( 150) = (   0.7500016   0.1443384  -0.1180279  )
       151        Mo     tau( 151) = (   0.7500289   0.1443141   0.2424936  )
       152        Mo     tau( 152) = (   0.8748115   0.0715393   0.7280420  )
       153        S      tau( 153) = (   0.7503587   0.1440662   0.6027403  )
       154        S      tau( 154) = (   0.8750369   0.0721618   0.3668742  )
       155        S      tau( 155) = (   0.8750002   0.0721408   0.1181001  )
       156        S      tau( 156) = (   0.7494385   0.1444101   0.8516821  )
       157        Mo     tau( 157) = (   0.6250012   0.3608437  -0.7272732  )
       158        Mo     tau( 158) = (   0.7500028   0.2886769  -0.2424041  )
       159        S      tau( 159) = (   0.6250015   0.3608451  -0.3667792  )
       160        S      tau( 160) = (   0.7500012   0.2886747  -0.6030489  )
       161        S      tau( 161) = (   0.7500012   0.2886748  -0.8514963  )
       162        S      tau( 162) = (   0.6250016   0.3608454  -0.1180280  )
       163        Mo     tau( 163) = (   0.6250302   0.3608127   0.2424760  )
       164        Mo     tau( 164) = (   0.7487590   0.2885376   0.7272130  )
       165        S      tau( 165) = (   0.6254237   0.3608917   0.6015174  )
       166        S      tau( 166) = (   0.7500486   0.2886525   0.3668797  )
       167        S      tau( 167) = (   0.7500385   0.2886557   0.1181169  )
       168        S      tau( 168) = (   0.6239430   0.3610912   0.8510113  )
       169        Mo     tau( 169) = (   0.5000014   0.5773502  -0.7272732  )
       170        Mo     tau( 170) = (   0.6250029   0.5051841  -0.2424047  )
       171        S      tau( 171) = (   0.5000014   0.5773518  -0.3667794  )
       172        S      tau( 172) = (   0.6250014   0.5051812  -0.6030489  )
       173        S      tau( 173) = (   0.6250014   0.5051813  -0.8514963  )
       174        S      tau( 174) = (   0.5000016   0.5773516  -0.1180277  )
       175        Mo     tau( 175) = (   0.4999859   0.5773250   0.2424709  )
       176        Mo     tau( 176) = (   0.6245890   0.5053660   0.7261562  )
       177        S      tau( 177) = (   0.4993068   0.5776651   0.6022414  )
       178        S      tau( 178) = (   0.6249823   0.5051501   0.3668388  )
       179        S      tau( 179) = (   0.6250205   0.5051637   0.1181147  )
       180        S      tau( 180) = (   0.5009766   0.5773609   0.8515797  )
       181        Mo     tau( 181) = (   0.3750016   0.7938567  -0.7272732  )
       182        Mo     tau( 182) = (   0.5000025   0.7216901  -0.2424039  )
       183        S      tau( 183) = (   0.3750019   0.7938578  -0.3667793  )
       184        S      tau( 184) = (   0.5000016   0.7216877  -0.6030489  )
       185        S      tau( 185) = (   0.5000016   0.7216878  -0.8514963  )
       186        S      tau( 186) = (   0.3750020   0.7938579  -0.1180272  )
       187        Mo     tau( 187) = (   0.3749951   0.7938323   0.2424893  )
       188        Mo     tau( 188) = (   0.4998599   0.7217391   0.7271366  )
       189        S      tau( 189) = (   0.3746033   0.7939741   0.6029663  )
       190        S      tau( 190) = (   0.4999946   0.7216688   0.3668260  )
       191        S      tau( 191) = (   0.4999891   0.7216628   0.1180901  )
       192        S      tau( 192) = (   0.3755955   0.7938624   0.8526444  )
       193        Pt     tau( 193) = (   0.1194898   0.4990527   0.9549993  )
       194        Pd     tau( 194) = (   0.0026419   0.2990244   0.9662205  )
       195        Pt     tau( 195) = (   0.7487529   0.2885372   0.9733471  )

     --------------------------------------------
     DFT-D3 Dispersion Correction (3-body terms):
     --------------------------------------------
       Reference C6 values for interpolation: 

         atom   Coordination number   C6
         S          0.000           268.01
         S          0.995           261.99
         S          1.990           251.62
         Mo         0.000          1691.79
         Mo         1.942          1004.01
         Mo        11.056           674.22
         Pd         0.000          1217.01
         Pd         1.863           573.90
         Pd         5.710           531.75
         Pt         0.000           782.29
         Pt         1.919           692.72
         Pt         6.667           673.75

       Values used:

         atom   Coordination number  R0_AB[au]  C6      C8
         Mo        10.208            3.547    674.22  77634.20
         Mo        10.221            3.547    674.22  77634.20
         S          3.858            3.128    251.62  12327.25
         S          3.859            3.128    251.62  12327.25
         S          3.758            3.128    251.62  12327.25
         S          3.859            3.128    251.62  12327.25
         Mo        10.221            3.547    674.22  77634.20
         Mo        10.229            3.547    674.22  77634.20
         S          3.849            3.128    251.62  12327.25
         S          3.859            3.128    251.62  12327.25
         S          3.859            3.128    251.62  12327.25
         S          4.632            3.128    251.62  12327.25
         Mo        10.208            3.547    674.22  77634.20
         Mo        10.221            3.547    674.22  77634.20
         S          3.858            3.128    251.62  12327.25
         S          3.859            3.128    251.62  12327.25
         S          3.758            3.128    251.62  12327.25
         S          3.859            3.128    251.62  12327.25
         Mo        10.222            3.547    674.22  77634.20
         Mo        10.732            3.547    674.21  77634.20
         S          3.863            3.128    251.62  12327.25
         S          3.850            3.128    251.62  12327.25
         S          3.859            3.128    251.62  12327.25
         S          5.641            3.128    251.62  12327.25
         Mo        10.208            3.547    674.22  77634.20
         Mo        10.221            3.547    674.22  77634.20
         S          3.858            3.128    251.62  12327.25
         S          3.859            3.128    251.62  12327.25
         S          3.758            3.128    251.62  12327.25
         S          3.859            3.128    251.62  12327.25
         Mo        10.220            3.547    674.22  77634.20
         Mo        10.181            3.547    674.22  77634.20
         S          3.843            3.128    251.62  12327.25
         S          3.853            3.128    251.62  12327.25
         S          3.859            3.128    251.62  12327.25
         S          3.854            3.128    251.62  12327.25
         Mo        10.208            3.547    674.21  77634.20
         Mo        10.220            3.547    674.22  77634.20
         S          3.858            3.128    251.62  12327.25
         S          3.859            3.128    251.62  12327.25
         S          3.758            3.128    251.62  12327.25
         S          3.859            3.128    251.62  12327.25
         Mo        10.220            3.547    674.22  77634.20
         Mo        10.260            3.547    674.22  77634.20
         S          3.856            3.128    251.62  12327.25
         S          3.861            3.128    251.62  12327.25
         S          3.859            3.128    251.62  12327.25
         S          3.808            3.128    251.62  12327.25
         Mo        10.208            3.547    674.22  77634.20
         Mo        10.221            3.547    674.22  77634.20
         S          3.858            3.128    251.62  12327.25
         S          3.859            3.128    251.62  12327.25
         S          3.758            3.128    251.62  12327.25
         S          3.859            3.128    251.62  12327.25
         Mo        10.220            3.547    674.22  77634.20
         Mo        10.278            3.547    674.22  77634.20
         S          3.837            3.128    251.62  12327.25
         S          3.863            3.128    251.62  12327.25
         S          3.859            3.128    251.62  12327.25
         S          3.842            3.128    251.62  12327.25
         Mo        10.208            3.547    674.21  77634.20
         Mo        10.221            3.547    674.22  77634.20
         S          3.858            3.128    251.62  12327.25
         S          3.859            3.128    251.62  12327.25
         S          3.758            3.128    251.62  12327.25
         S          3.859            3.128    251.62  12327.25
         Mo        10.222            3.547    674.22  77634.20
         Mo        10.177            3.547    674.22  77634.20
         S          3.873            3.128    251.62  12327.25
         S          3.855            3.128    251.62  12327.25
         S          3.859            3.128    251.62  12327.25
         S          5.643            3.128    251.62  12327.25
         Mo        10.208            3.547    674.22  77634.20
         Mo        10.221            3.547    674.22  77634.20
         S          3.858            3.128    251.62  12327.25
         S          3.859            3.128    251.62  12327.25
         S          3.758            3.128    251.62  12327.25
         S          3.859            3.128    251.62  12327.25
         Mo        10.222            3.547    674.22  77634.20
         Mo        10.867            3.547    674.22  77634.20
         S          3.860            3.128    251.62  12327.25
         S          3.850            3.128    251.62  12327.25
         S          3.859            3.128    251.62  12327.25
         S          4.673            3.128    251.62  12327.25
         Mo        10.208            3.547    674.22  77634.20
         Mo        10.221            3.547    674.22  77634.20
         S          3.858            3.128    251.62  12327.25
         S          3.859            3.128    251.62  12327.25
         S          3.758            3.128    251.62  12327.25
         S          3.859            3.128    251.62  12327.25
         Mo        10.220            3.547    674.22  77634.20
         Mo        10.214            3.547    674.22  77634.20
         S          3.850            3.128    251.62  12327.25
         S          3.856            3.128    251.62  12327.25
         S          3.859            3.128    251.62  12327.25
         S          3.827            3.128    251.62  12327.25
         Mo        10.208            3.547    674.22  77634.20
         Mo        10.221            3.547    674.22  77634.20
         S          3.858            3.128    251.62  12327.25
         S          3.859            3.128    251.62  12327.25
         S          3.758            3.128    251.62  12327.25
         S          3.859            3.128    251.62  12327.25
         Mo        10.220            3.547    674.22  77634.20
         Mo        10.260            3.547    674.22  77634.20
         S          3.856            3.128    251.62  12327.25
         S          3.861            3.128    251.62  12327.25
         S          3.859            3.128    251.62  12327.25
         S          3.801            3.128    251.62  12327.25
         Mo        10.208            3.547    674.22  77634.20
         Mo        10.221            3.547    674.22  77634.20
         S          3.858            3.128    251.62  12327.25
         S          3.859            3.128    251.62  12327.25
         S          3.758            3.128    251.62  12327.25
         S          3.859            3.128    251.62  12327.25
         Mo        10.220            3.547    674.22  77634.20
         Mo        10.287            3.547    674.22  77634.20
         S          3.840            3.128    251.62  12327.25
         S          3.863            3.128    251.62  12327.25
         S          3.859            3.128    251.62  12327.25
         S          3.820            3.128    251.62  12327.25
         Mo        10.208            3.547    674.22  77634.20
         Mo        10.221            3.547    674.22  77634.20
         S          3.858            3.128    251.62  12327.25
         S          3.859            3.128    251.62  12327.25
         S          3.758            3.128    251.62  12327.25
         S          3.859            3.128    251.62  12327.25
         Mo        10.222            3.547    674.22  77634.20
         Mo        10.220            3.547    674.22  77634.20
         S          3.851            3.128    251.62  12327.25
         S          3.858            3.128    251.62  12327.25
         S          3.859            3.128    251.62  12327.25
         S          4.642            3.128    251.62  12327.25
         Mo        10.208            3.547    674.22  77634.20
         Mo        10.221            3.547    674.22  77634.20
         S          3.858            3.128    251.62  12327.25
         S          3.859            3.128    251.62  12327.25
         S          3.758            3.128    251.62  12327.25
         S          3.859            3.128    251.62  12327.25
         Mo        10.221            3.547    674.22  77634.20
         Mo        10.226            3.547    674.22  77634.20
         S          3.863            3.128    251.62  12327.25
         S          3.856            3.128    251.62  12327.25
         S          3.859            3.128    251.62  12327.25
         S          3.765            3.128    251.62  12327.25
         Mo        10.208            3.547    674.22  77634.20
         Mo        10.221            3.547    674.22  77634.20
         S          3.858            3.128    251.62  12327.25
         S          3.859            3.128    251.62  12327.25
         S          3.758            3.128    251.62  12327.25
         S          3.859            3.128    251.62  12327.25
         Mo        10.221            3.547    674.22  77634.20
         Mo        10.250            3.547    674.22  77634.20
         S          3.865            3.128    251.62  12327.25
         S          3.857            3.128    251.62  12327.25
         S          3.859            3.128    251.62  12327.25
         S          4.727            3.128    251.62  12327.25
         Mo        10.208            3.547    674.22  77634.20
         Mo        10.220            3.547    674.22  77634.20
         S          3.858            3.128    251.62  12327.25
         S          3.859            3.128    251.62  12327.25
         S          3.758            3.128    251.62  12327.25
         S          3.859            3.128    251.62  12327.25
         Mo        10.220            3.547    674.22  77634.20
         Mo        10.782            3.547    674.22  77634.20
         S          3.855            3.128    251.62  12327.25
         S          3.857            3.128    251.62  12327.25
         S          3.859            3.128    251.62  12327.25
         S          4.767            3.128    251.62  12327.25
         Mo        10.208            3.547    674.22  77634.20
         Mo        10.221            3.547    674.22  77634.20
         S          3.858            3.128    251.62  12327.25
         S          3.859            3.128    251.62  12327.25
         S          3.758            3.128    251.62  12327.25
         S          3.859            3.128    251.62  12327.25
         Mo        10.220            3.547    674.22  77634.20
         Mo        10.276            3.547    674.22  77634.20
         S          3.853            3.128    251.62  12327.25
         S          3.861            3.128    251.62  12327.25
         S          3.859            3.128    251.62  12327.25
         S          3.821            3.128    251.62  12327.25
         Mo        10.208            3.547    674.22  77634.20
         Mo        10.221            3.547    674.22  77634.20
         S          3.858            3.128    251.62  12327.25
         S          3.859            3.128    251.62  12327.25
         S          3.758            3.128    251.62  12327.25
         S          3.859            3.128    251.62  12327.25
         Mo        10.221            3.547    674.22  77634.20
         Mo        10.251            3.547    674.22  77634.20
         S          3.853            3.128    251.62  12327.25
         S          3.860            3.128    251.62  12327.25
         S          3.859            3.128    251.62  12327.25
         S          3.823            3.128    251.62  12327.25
         Pt         4.461            3.168    673.78  70065.07
         Pd         4.319            3.168    531.75  48720.73
         Pt         3.768            3.168    692.72  72035.25

         Molecular C6 ( Ry / a.u.^6 ) =  14174372.50


     number of k points=     4  Gaussian smearing, width (Ry)=  0.0100
                       cart. coord. in units 2pi/alat
        k(    1) = (   0.0000000   0.0000000   0.0000000), wk =   0.5000000
        k(    2) = (   0.0000000  -0.5773499   0.0000000), wk =   0.5000000
        k(    3) = (  -0.5000000  -0.2886744   0.0000000), wk =   0.5000000
        k(    4) = (  -0.5000000  -0.8660242   0.0000000), wk =   0.5000000

     Dense  grid:  7154885 G-vectors     FFT dimensions: ( 180, 180, 512)

     Smooth grid:  3090769 G-vectors     FFT dimensions: ( 135, 135, 400)

     Estimated max dynamical RAM per process >       4.33 GB

     Estimated total dynamical RAM >     155.86 GB

     Initial potential from superposition of free atoms

     starting charge    1745.9388, renormalised to    1746.0000

     negative rho (up, down):  8.771E-04 0.000E+00
     Starting wfcs are 1196 randomized atomic wfcs
     Checking if some PAW data can be deallocated... 

     total cpu time spent up to now is      179.7 secs

     Self-consistent Calculation

     iteration #  1     ecut=    77.00 Ry     beta= 0.20
     Davidson diagonalization with overlap
     ethr =  1.00E-02,  avg # of iterations =  2.0

     Threshold (ethr) on eigenvalues was too large:
     Diagonalizing with lowered threshold

     Davidson diagonalization with overlap
     ethr =  1.69E-04,  avg # of iterations = 16.2

     negative rho (up, down):  2.400E-04 0.000E+00

     total cpu time spent up to now is     2231.0 secs

     total energy              =  -35654.83750752 Ry
     estimated scf accuracy    <       6.59398739 Ry

     iteration #  2     ecut=    77.00 Ry     beta= 0.20
     Davidson diagonalization with overlap
     ethr =  3.78E-04,  avg # of iterations =  1.8

     negative rho (up, down):  2.614E-05 0.000E+00

     total cpu time spent up to now is     2633.4 secs

     total energy              =  -35653.50814646 Ry
     estimated scf accuracy    <       3.42445317 Ry

     iteration #  3     ecut=    77.00 Ry     beta= 0.20
     Davidson diagonalization with overlap
     ethr =  1.96E-04,  avg # of iterations = 18.5

     negative rho (up, down):  1.953E-05 0.000E+00

     total cpu time spent up to now is     3202.4 secs

     total energy              =  -35653.93128921 Ry
     estimated scf accuracy    <       1.23094853 Ry

     iteration #  4     ecut=    77.00 Ry     beta= 0.20
     Davidson diagonalization with overlap
     ethr =  7.05E-05,  avg # of iterations = 13.5

     negative rho (up, down):  1.769E-05 0.000E+00

     total cpu time spent up to now is     4075.2 secs

     total energy              =  -35654.57732729 Ry
     estimated scf accuracy    <       0.39682156 Ry

     iteration #  5     ecut=    77.00 Ry     beta= 0.20
     Davidson diagonalization with overlap
     ethr =  2.27E-05,  avg # of iterations = 15.8

     negative rho (up, down):  3.794E-05 0.000E+00

     total cpu time spent up to now is     5025.4 secs

     total energy              =  -35654.84464592 Ry
     estimated scf accuracy    <       0.23084707 Ry

     iteration #  6     ecut=    77.00 Ry     beta= 0.20
     Davidson diagonalization with overlap
     ethr =  1.32E-05,  avg # of iterations = 12.2

     negative rho (up, down):  1.054E-04 0.000E+00

     total cpu time spent up to now is     5518.6 secs

     total energy              =  -35654.84315478 Ry
     estimated scf accuracy    <       0.14222229 Ry

     iteration #  7     ecut=    77.00 Ry     beta= 0.20
     Davidson diagonalization with overlap
     c_bands:  1 eigenvalues not converged
     c_bands:  3 eigenvalues not converged
     c_bands:  2 eigenvalues not converged
     ethr =  8.15E-06,  avg # of iterations = 19.2

     negative rho (up, down):  6.563E-04 0.000E+00

     total cpu time spent up to now is     6105.6 secs

     total energy              =  -35654.85689659 Ry
     estimated scf accuracy    <       0.08148339 Ry

     iteration #  8     ecut=    77.00 Ry     beta= 0.20
     Davidson diagonalization with overlap
     c_bands:  1 eigenvalues not converged
     c_bands:  1 eigenvalues not converged
     c_bands:  2 eigenvalues not converged
     ethr =  4.67E-06,  avg # of iterations = 19.2

     negative rho (up, down):  4.648E-04 0.000E+00

     total cpu time spent up to now is     7135.0 secs

     total energy              =  -35654.87097002 Ry
     estimated scf accuracy    <       0.19282260 Ry

     iteration #  9     ecut=    77.00 Ry     beta= 0.20
     Davidson diagonalization with overlap
     c_bands:  3 eigenvalues not converged
     c_bands:  1 eigenvalues not converged
     c_bands:  5 eigenvalues not converged
     ethr =  4.67E-06,  avg # of iterations = 17.5

     negative rho (up, down):  4.060E-04 0.000E+00

     total cpu time spent up to now is     7626.7 secs

     total energy              =  -35654.88026486 Ry
     estimated scf accuracy    <       0.01998888 Ry

     iteration # 10     ecut=    77.00 Ry     beta= 0.20
     Davidson diagonalization with overlap
     c_bands:  1 eigenvalues not converged
     c_bands:  2 eigenvalues not converged
     c_bands:  5 eigenvalues not converged
     ethr =  1.14E-06,  avg # of iterations = 60.5

     negative rho (up, down):  4.540E-04 0.000E+00

     total cpu time spent up to now is    10008.0 secs

     total energy              =  -35654.91435596 Ry
     estimated scf accuracy    <       0.01414229 Ry

     iteration # 11     ecut=    77.00 Ry     beta= 0.20
     Davidson diagonalization with overlap
     c_bands:  1 eigenvalues not converged
     c_bands:  5 eigenvalues not converged
     ethr =  8.10E-07,  avg # of iterations = 10.5

     negative rho (up, down):  6.477E-04 0.000E+00

     total cpu time spent up to now is    10430.7 secs

     total energy              =  -35654.91026987 Ry
     estimated scf accuracy    <       0.00855909 Ry

     iteration # 12     ecut=    77.00 Ry     beta= 0.20
     Davidson diagonalization with overlap
     c_bands:  1 eigenvalues not converged
     c_bands:  5 eigenvalues not converged
     ethr =  4.90E-07,  avg # of iterations = 13.0

     negative rho (up, down):  8.276E-04 0.000E+00

     total cpu time spent up to now is    10972.9 secs

     total energy              =  -35654.91129858 Ry
     estimated scf accuracy    <       0.00102788 Ry

     iteration # 13     ecut=    77.00 Ry     beta= 0.20
     Davidson diagonalization with overlap
     c_bands:  5 eigenvalues not converged
     c_bands:  3 eigenvalues not converged
     c_bands:  1 eigenvalues not converged
     ethr =  5.89E-08,  avg # of iterations = 35.5

     negative rho (up, down):  8.153E-04 0.000E+00

     total cpu time spent up to now is    13494.9 secs

     total energy              =  -35654.91586802 Ry
     estimated scf accuracy    <       0.00359784 Ry

     iteration # 14     ecut=    77.00 Ry     beta= 0.20
     Davidson diagonalization with overlap
     c_bands:  2 eigenvalues not converged
     ethr =  5.89E-08,  avg # of iterations =  7.0

     negative rho (up, down):  8.274E-04 0.000E+00

     total cpu time spent up to now is    13919.0 secs

     total energy              =  -35654.91613537 Ry
     estimated scf accuracy    <       0.00363891 Ry

     iteration # 15     ecut=    77.00 Ry     beta= 0.20
     Davidson diagonalization with overlap
     ethr =  5.89E-08,  avg # of iterations =  2.0

     negative rho (up, down):  8.285E-04 0.000E+00

     total cpu time spent up to now is    14329.6 secs

     total energy              =  -35654.91534126 Ry
     estimated scf accuracy    <       0.00400675 Ry

     iteration # 16     ecut=    77.00 Ry     beta= 0.20
     Davidson diagonalization with overlap
     ethr =  5.89E-08,  avg # of iterations =  1.2

     negative rho (up, down):  8.687E-04 0.000E+00

     total cpu time spent up to now is    14713.2 secs

     total energy              =  -35654.91425326 Ry
     estimated scf accuracy    <       0.00279529 Ry

     iteration # 17     ecut=    77.00 Ry     beta= 0.20
     Davidson diagonalization with overlap
     ethr =  5.89E-08,  avg # of iterations =  7.5

     negative rho (up, down):  8.619E-04 0.000E+00

     total cpu time spent up to now is    15307.4 secs

     total energy              =  -35654.91431986 Ry
     estimated scf accuracy    <       0.00079883 Ry

     iteration # 18     ecut=    77.00 Ry     beta= 0.20
     Davidson diagonalization with overlap
     ethr =  4.58E-08,  avg # of iterations =  6.0

     negative rho (up, down):  8.487E-04 0.000E+00

     total cpu time spent up to now is    15903.9 secs

     total energy              =  -35654.91461233 Ry
     estimated scf accuracy    <       0.00013824 Ry

     iteration # 19     ecut=    77.00 Ry     beta= 0.20
     Davidson diagonalization with overlap
     c_bands:  3 eigenvalues not converged
     ethr =  7.92E-09,  avg # of iterations = 17.8

     negative rho (up, down):  8.577E-04 0.000E+00

     total cpu time spent up to now is    16782.4 secs

     total energy              =  -35654.91468662 Ry
     estimated scf accuracy    <       0.00008357 Ry

     iteration # 20     ecut=    77.00 Ry     beta= 0.20
     Davidson diagonalization with overlap
     ethr =  4.79E-09,  avg # of iterations = 10.2

     negative rho (up, down):  8.675E-04 0.000E+00

     total cpu time spent up to now is    17454.2 secs

     total energy              =  -35654.91472305 Ry
     estimated scf accuracy    <       0.00000998 Ry

     iteration # 21     ecut=    77.00 Ry     beta= 0.20
     Davidson diagonalization with overlap
     c_bands:  1 eigenvalues not converged
     ethr =  5.72E-10,  avg # of iterations = 18.2

     negative rho (up, down):  8.671E-04 0.000E+00

     total cpu time spent up to now is    19238.1 secs

     total energy              =  -35654.91475496 Ry
     estimated scf accuracy    <       0.00004569 Ry

     iteration # 22     ecut=    77.00 Ry     beta= 0.20
     Davidson diagonalization with overlap
     ethr =  5.72E-10,  avg # of iterations =  3.8

     negative rho (up, down):  8.689E-04 0.000E+00

     total cpu time spent up to now is    19666.2 secs

     total energy              =  -35654.91474110 Ry
     estimated scf accuracy    <       0.00002420 Ry

     iteration # 23     ecut=    77.00 Ry     beta= 0.20
     Davidson diagonalization with overlap
     ethr =  5.72E-10,  avg # of iterations =  9.2

     negative rho (up, down):  8.746E-04 0.000E+00

     total cpu time spent up to now is    20490.8 secs

     total energy              =  -35654.91474910 Ry
     estimated scf accuracy    <       0.00000425 Ry

     iteration # 24     ecut=    77.00 Ry     beta= 0.20
     Davidson diagonalization with overlap
     ethr =  2.44E-10,  avg # of iterations =  6.8

     negative rho (up, down):  8.817E-04 0.000E+00

     total cpu time spent up to now is    20967.4 secs

     total energy              =  -35654.91474438 Ry
     estimated scf accuracy    <       0.00000337 Ry

     iteration # 25     ecut=    77.00 Ry     beta= 0.20
     Davidson diagonalization with overlap
     ethr =  1.93E-10,  avg # of iterations =  6.0

     negative rho (up, down):  8.846E-04 0.000E+00

     total cpu time spent up to now is    21400.9 secs

     End of self-consistent calculation

          k = 0.0000 0.0000 0.0000 (386245 PWs)   bands (ev):

  -102.9377-102.3941 -88.8919 -71.2657 -71.2573 -71.2439 -71.2333 -71.2198
   -71.2119 -71.2015 -70.7361 -70.7352 -70.7055 -70.6987 -70.6916 -70.6742
   -70.6648 -66.6647 -66.6645 -66.6633 -66.6606 -66.6450 -66.6436 -66.6434
   -66.6434 -66.6434 -66.6434 -66.6433 -66.6433 -66.6433 -66.6433 -66.6432
   -66.6431 -66.6429 -66.6420 -66.6420 -66.6420 -66.6420 -66.6419 -66.6419
   -66.6408 -66.6316 -66.6278 -66.6224 -66.6221 -66.6220 -66.6220 -66.6220
   -66.6220 -66.6220 -66.6220 -66.6219 -66.6219 -66.6219 -66.6219 -66.6219
   -66.6218 -66.6218 -66.6216 -66.6215 -66.6214 -66.6206 -66.6206 -66.6205
   -66.6205 -66.6205 -66.6205 -66.6205 -66.6205 -66.6205 -66.6199 -66.6147
   -66.6109 -66.6030 -66.5993 -66.5946 -66.5910 -66.5884 -66.5844 -66.5788
   -66.5713 -57.2414 -57.1296 -57.1078 -56.6837 -56.6177 -56.5644 -54.7781
   -54.6447 -54.6081 -40.9920 -40.9920 -40.9920 -40.9920 -40.9919 -40.9918
   -40.9913 -40.9913 -40.9913 -40.9749 -40.9718 -40.9682 -40.9168 -40.9167
   -40.9167 -40.9167 -40.9167 -40.9167 -40.9167 -40.9166 -40.9166 -40.9165
   -40.9165 -40.9163 -40.9159 -40.9159 -40.9159 -40.9159 -40.9159 -40.9159
   -40.9059 -40.8994 -40.8938 -40.8869 -40.8798 -40.8735 -40.8355 -40.8242
   -40.8241 -40.8235 -40.8148 -40.7946 -40.7913 -40.7904 -40.7904 -40.7904
   -40.7904 -40.7904 -40.7904 -40.7903 -40.7903 -40.7903 -40.7901 -40.7901
   -40.7900 -40.7895 -40.7895 -40.7894 -40.7894 -40.7894 -40.7894 -40.7873
   -40.7828 -40.7825 -40.7825 -40.7825 -40.7825 -40.7825 -40.7825 -40.7825
   -40.7825 -40.7823 -40.7823 -40.7821 -40.7818 -40.7818 -40.7818 -40.7818
   -40.7818 -40.7817 -40.7817 -40.7765 -40.7752 -40.7718 -40.7679 -40.7600
   -40.7591 -40.7578 -40.7554 -40.7554 -40.7554 -40.7554 -40.7554 -40.7553
   -40.7553 -40.7553 -40.7553 -40.7552 -40.7552 -40.7551 -40.7550 -40.7544
   -40.7544 -40.7544 -40.7544 -40.7544 -40.7544 -40.7488 -40.7467 -40.7459
   -40.7410 -40.7406 -40.7406 -40.7406 -40.7406 -40.7406 -40.7406 -40.7405
   -40.7405 -40.7405 -40.7405 -40.7405 -40.7405 -40.7405 -40.7403 -40.7403
   -40.7402 -40.7401 -40.7400 -40.7398 -40.7398 -40.7397 -40.7397 -40.7397
   -40.7397 -40.7397 -40.7397 -40.7397 -40.7377 -40.7340 -40.7327 -40.7302
   -40.7276 -40.7256 -40.7220 -40.7150 -40.7122 -40.7069 -40.6770 -40.6770
   -40.6770 -40.6769 -40.6769 -40.6768 -40.6760 -40.6760 -40.6760 -40.6574
   -40.6465 -40.6453 -40.6299 -40.6299 -40.6299 -40.6299 -40.6299 -40.6299
   -40.6299 -40.6298 -40.6298 -40.6297 -40.6296 -40.6295 -40.6288 -40.6288
   -40.6288 -40.6288 -40.6288 -40.6288 -40.6112 -40.6072 -40.6021 -40.5959
   -40.5898 -40.5857 -40.5823 -40.5823 -40.5821 -40.5821 -40.5812 -40.5811
   -40.5508 -40.5403 -20.3011 -20.1436 -20.0417 -19.9315 -19.7472 -19.5977
   -19.3948 -19.3273 -19.3061 -19.2928 -19.2781 -19.2775 -19.2735 -19.2659
   -19.2571 -19.2399 -19.1918 -19.1905 -19.1832 -19.1762 -19.1702 -19.1582
   -19.0868 -19.0860 -19.0814 -19.0789 -19.0768 -19.0730 -18.9741 -18.8716
   -18.8476 -18.7395 -18.6699 -18.6343 -18.5983 -18.5972 -18.5621 -18.5343
   -18.5080 -18.4892 -18.4674 -18.4661 -18.4624 -18.4520 -18.4157 -18.3922
   -18.3513 -18.3352 -18.3269 -18.3240 -18.3123 -18.2903 -18.2616 -18.2415
   -18.2275 -18.2249 -18.2226 -18.2148 -18.2084 -18.2039 -18.1714 -18.1621
   -18.1608 -18.1600 -18.1598 -18.1586 -18.1551 -18.1326 -18.1301 -18.1254
   -18.1231 -18.1189 -18.1174 -18.1163 -18.1159 -18.1144 -18.0926 -18.0924
   -18.0897 -18.0879 -18.0796 -18.0748 -18.0719 -18.0614 -18.0596 -18.0505
   -18.0468 -18.0453 -18.0426 -18.0338 -18.0311 -18.0278 -17.9981 -17.9951
   -17.9887 -17.9847 -17.9818 -17.9658 -17.9623 -17.9599 -17.9580 -17.9377
   -17.9353 -17.9337 -17.9239 -17.9225 -17.9158 -17.9130 -17.9084 -17.9065
   -17.9002 -17.8989 -17.8964 -17.8815 -17.8812 -17.8808 -17.8716 -17.8709
   -17.8682 -17.8648 -17.8612 -17.8610 -17.8378 -17.8377 -17.8369 -17.8358
   -17.8346 -17.8343 -12.2718 -12.2387 -12.1140 -12.0046 -11.9324 -11.8433
   -11.8402 -11.8334 -11.7335 -11.7263 -11.7132 -11.6830 -11.6225 -11.6036
   -11.5953 -11.5718 -11.5540 -11.5373 -11.4318 -11.3601 -11.3149 -11.2997
   -11.2862 -11.2770 -11.2706 -11.2563 -11.2447 -11.2089 -11.1811 -11.1762
   -11.1724 -11.1688 -11.1681 -11.1644 -11.1565 -11.1373 -11.1328 -11.1207
   -11.1074 -11.1040 -11.0987 -11.0930 -11.0889 -11.0857 -11.0715 -11.0707
   -11.0467 -11.0328 -11.0167 -11.0058 -11.0018 -10.9950 -10.9840 -10.9772
   -10.9545 -10.9502 -10.9413 -10.9359 -10.9313 -10.9236 -10.9227 -10.9145
   -10.8952 -10.8883 -10.8844 -10.8823 -10.8811 -10.8741 -10.8716 -10.8697
   -10.8685 -10.8657 -10.8591 -10.8555 -10.8516 -10.8459 -10.8253 -10.8220
   -10.8205 -10.8194 -10.8174 -10.8155 -10.8119 -10.8114 -10.8031 -10.7791
   -10.7785 -10.7783 -10.7778 -10.7774 -10.7754 -10.7332 -10.7093 -10.7037
   -10.6838 -10.6725 -10.6631 -10.6382 -10.6330 -10.6264 -10.6199 -10.5678
   -10.5009 -10.4271 -10.3280 -10.2196 -10.1985 -10.1707 -10.1322 -10.0325
   -10.0055  -9.9693  -9.9559  -9.8964  -9.8787  -9.8670  -9.8540  -9.8456
    -9.8387  -9.8222  -9.8178  -9.8146  -9.8131  -9.8121  -9.8072  -9.8052
    -9.7983  -9.7940  -9.7909  -9.7903  -9.7861  -9.7778  -9.7636  -9.7537
    -9.7444  -9.7225  -9.6918  -9.6773  -9.6721  -9.6717  -9.6659  -9.6627
    -9.6615  -9.6584  -9.6581  -9.6577  -9.6572  -9.6552  -9.6284  -9.6229
    -9.6084  -9.5915  -9.5823  -9.5820  -9.5819  -9.5817  -9.5812  -9.5811
    -9.5787  -9.5702  -9.5641  -9.5538  -9.5516  -9.5335  -9.5165  -9.5068
    -9.4950  -9.4420  -9.4229  -9.4207  -9.4099  -9.4050  -9.3988  -9.3915
    -9.3879  -9.3775  -9.3748  -9.3678  -9.3566  -9.3376  -9.3087  -9.2987
    -9.2924  -9.2863  -9.2765  -9.2636  -9.2540  -9.2365  -9.2266  -9.2240
    -9.2230  -9.2212  -9.2186  -9.2151  -9.1900  -9.1863  -9.1589  -9.1536
    -9.1466  -9.1116  -9.0951  -9.0735  -9.0403  -9.0329  -9.0224  -9.0200
    -9.0198  -9.0046  -8.9888  -8.9886  -8.9840  -8.9580  -8.9578  -8.9575
    -8.9569  -8.9495  -8.9431  -8.9404  -8.9356  -8.9293  -8.8663  -8.8623
    -8.8617  -8.8615  -8.8613  -8.8609  -8.8511  -8.8121  -8.8000  -8.7988
    -8.7894  -8.7833  -8.7800  -8.7364  -8.7180  -8.7114  -8.7067  -8.7030
    -8.6988  -8.6740  -8.6411  -8.6360  -8.6337  -8.6318  -8.6313  -8.6304
    -8.6064  -8.5928  -8.5648  -8.4896  -8.4351  -8.4136  -8.4066  -8.4065
    -8.4019  -8.4013  -8.3962  -8.3950  -8.3927  -8.3790  -8.3416  -8.3168
    -8.3162  -8.3161  -8.3159  -8.3154  -8.3140  -8.2930  -8.2908  -8.2896
    -8.2891  -8.2882  -8.2869  -8.2706  -8.2643  -8.2614  -8.2610  -8.2606
    -8.2602  -8.2568  -8.2487  -8.1995  -8.1114  -8.0517  -7.9476  -7.9017
    -7.9004  -7.8974  -7.8627  -7.8442  -7.8166  -7.8103  -7.7853  -7.7758
    -7.7531  -7.7218  -7.6978  -7.6887  -7.6850  -7.6714  -7.6656  -7.6609
    -7.6516  -7.6447  -7.6367  -7.6317  -7.6230  -7.6135  -7.5943  -7.5866
    -7.5752  -7.5746  -7.5744  -7.5739  -7.5735  -7.5697  -7.5567  -7.5489
    -7.5478  -7.5476  -7.5467  -7.5456  -7.5432  -7.5291  -7.5252  -7.5230
    -7.5225  -7.5223  -7.5221  -7.5209  -7.5113  -7.5093  -7.5003  -7.4932
    -7.4841  -7.4764  -7.4629  -7.4599  -7.4469  -7.4356  -7.4122  -7.4041
    -7.3997  -7.3966  -7.3900  -7.3657  -7.3623  -7.3537  -7.3442  -7.3432
    -7.3414  -7.3356  -7.3289  -7.3214  -7.3033  -7.2907  -7.2904  -7.2722
    -7.2720  -7.2540  -7.2539  -7.2456  -7.2315  -7.2127  -7.2004  -7.1735
    -7.1690  -7.1529  -7.1266  -7.0987  -7.0226  -7.0114  -6.9714  -6.9388
    -6.9272  -6.9100  -6.9023  -6.8741  -6.8255  -6.8208  -6.8192  -6.8173
    -6.7865  -6.7707  -6.7577  -6.7399  -6.7365  -6.7351  -6.7224  -6.7070
    -6.6835  -6.6676  -6.6641  -6.6619  -6.6609  -6.6403  -6.6288  -6.6167
    -6.6111  -6.6025  -6.6009  -6.5963  -6.5806  -6.5648  -6.5577  -6.5553
    -6.5537  -6.5527  -6.5504  -6.5467  -6.5458  -6.5412  -6.5381  -6.5377
    -6.5376  -6.5374  -6.5373  -6.5369  -6.5297  -6.5117  -6.4949  -6.4848
    -6.4828  -6.4636  -6.4504  -6.4499  -6.4480  -6.4134  -6.4057  -6.4021
    -6.3792  -6.3732  -6.3708  -6.3702  -6.3693  -6.3665  -6.3571  -6.3365
    -6.3310  -6.3300  -6.3291  -6.3263  -6.3231  -6.2995  -6.2968  -6.2930
    -6.2928  -6.2919  -6.2911  -6.2853  -6.2719  -6.1421  -6.0563  -6.0304
    -5.8859  -5.7111  -5.6307  -5.5752  -5.4513  -5.4313  -5.4096  -5.3243
    -5.1853  -4.4249  -4.2120  -3.9370  -3.8943  -3.8874  -3.8852  -3.8774
    -3.8731  -3.8685  -3.8664  -3.8653  -3.8615  -3.8456  -3.8414  -3.7946
    -3.7485  -3.7410  -3.7326  -3.7316  -3.7222  -3.7186  -3.7144  -3.7132
    -3.7089  -3.6270  -3.6201  -3.5849  -3.5586  -3.5529  -3.5510  -3.5444
    -3.5348  -3.5234  -3.5172  -3.5108  -3.5103  -3.5093  -3.5061  -3.5016
    -3.4965  -3.4897  -3.4853  -3.4822  -3.4818  -3.4812  -3.4749  -3.4685
    -3.4662  -3.4647  -3.4605  -3.4518  -3.4493  -3.4467  -3.4459  -3.4420
    -3.4398  -3.4353  -3.4274  -3.4254  -3.4223  -3.4013  -3.3973  -3.3963
    -3.3882  -3.3858  -3.3841  -3.3820  -3.3801  -3.3721  -3.3587  -3.3476
    -3.3436  -3.3409  -3.3331  -3.3277  -3.3242  -3.3168  -3.3064  -3.2960
    -3.2600  -3.2548  -3.2526  -3.2325  -3.2258  -3.1404  -3.1341  -3.1199
    -3.1080  -3.1027  -3.0974  -3.0942  -3.0914  -3.0848  -3.0829  -3.0796
    -3.0492  -3.0404  -3.0316  -3.0203  -3.0183  -3.0119  -3.0116  -3.0096
    -3.0082  -3.0044  -3.0025  -3.0024  -2.9985  -2.9942  -2.9934  -2.9892
    -2.9882  -2.9801  -2.9766  -2.9735  -2.9730  -2.9710  -2.9660  -2.9658
    -2.9651  -2.9628  -2.9593  -2.9459  -2.9448  -2.9336  -2.9274  -2.9187
    -2.9131  -2.9109  -2.9012  -2.8862  -2.8497  -2.8459  -2.8457  -2.8454
    -2.8453  -2.8432  -2.8421  -2.8416  -2.8413  -2.8352  -2.8296  -2.8227
    -2.8179  -2.7881  -2.7728  -2.7719  -2.7616  -2.7567  -2.7545  -2.7087
    -2.6978  -2.6799  -2.6777  -2.6739  -2.6643  -2.6636  -2.6619  -2.6565
    -2.6539  -2.6389  -2.6238  -2.5943  -2.5862  -2.5822  -2.5714  -2.5200
    -2.5029  -2.4991  -2.4693  -2.4622  -2.4518  -2.4485  -2.4474  -2.4423

          k = 0.0000-0.5773 0.0000 (386352 PWs)   bands (ev):

  -102.9377-102.3941 -88.8919 -71.2657 -71.2573 -71.2439 -71.2333 -71.2198
   -71.2119 -71.2015 -70.7361 -70.7352 -70.7055 -70.6987 -70.6916 -70.6742
   -70.6648 -66.6598 -66.6585 -66.6584 -66.6584 -66.6582 -66.6570 -66.6570
   -66.6478 -66.6478 -66.6477 -66.6476 -66.6470 -66.6464 -66.6464 -66.6404
   -66.6327 -66.6327 -66.6327 -66.6327 -66.6327 -66.6325 -66.6325 -66.6325
   -66.6320 -66.6313 -66.6313 -66.6313 -66.6313 -66.6283 -66.6282 -66.6282
   -66.6280 -66.6268 -66.6268 -66.6251 -66.6221 -66.6221 -66.6220 -66.6220
   -66.6219 -66.6219 -66.6219 -66.6217 -66.6216 -66.6205 -66.6205 -66.6205
   -66.6205 -66.6175 -66.6175 -66.6174 -66.6173 -66.6161 -66.6161 -66.6144
   -66.6084 -66.6059 -66.5989 -66.5931 -66.5909 -66.5889 -66.5849 -66.5790
   -66.5711 -57.2414 -57.1296 -57.1078 -56.6837 -56.6177 -56.5645 -54.7781
   -54.6447 -54.6081 -40.9605 -40.9604 -40.9604 -40.9604 -40.9604 -40.9603
   -40.9602 -40.9600 -40.9596 -40.9596 -40.9596 -40.9596 -40.9505 -40.9478
   -40.9345 -40.9336 -40.9336 -40.9336 -40.9333 -40.9328 -40.9328 -40.9308
   -40.9215 -40.9215 -40.9214 -40.9213 -40.9208 -40.9208 -40.9204 -40.9148
   -40.8885 -40.8795 -40.8708 -40.8708 -40.8708 -40.8708 -40.8707 -40.8707
   -40.8707 -40.8706 -40.8700 -40.8700 -40.8700 -40.8700 -40.8478 -40.8408
   -40.8388 -40.8341 -40.8290 -40.8198 -40.8121 -40.8120 -40.8120 -40.8117
   -40.8113 -40.8113 -40.8046 -40.8026 -40.8026 -40.8025 -40.8024 -40.8016
   -40.8016 -40.7925 -40.7912 -40.7912 -40.7911 -40.7911 -40.7904 -40.7904
   -40.7813 -40.7733 -40.7719 -40.7703 -40.7659 -40.7650 -40.7616 -40.7616
   -40.7616 -40.7616 -40.7615 -40.7615 -40.7614 -40.7614 -40.7608 -40.7608
   -40.7608 -40.7608 -40.7560 -40.7529 -40.7528 -40.7528 -40.7526 -40.7520
   -40.7520 -40.7495 -40.7454 -40.7411 -40.7411 -40.7410 -40.7409 -40.7408
   -40.7405 -40.7405 -40.7405 -40.7405 -40.7405 -40.7403 -40.7401 -40.7401
   -40.7401 -40.7399 -40.7397 -40.7397 -40.7397 -40.7397 -40.7329 -40.7318
   -40.7318 -40.7318 -40.7317 -40.7310 -40.7310 -40.7310 -40.7255 -40.7168
   -40.7149 -40.7133 -40.7102 -40.7102 -40.7101 -40.7101 -40.7101 -40.7100
   -40.7099 -40.7098 -40.7091 -40.7091 -40.7091 -40.7091 -40.6964 -40.6882
   -40.6815 -40.6755 -40.6754 -40.6754 -40.6754 -40.6754 -40.6753 -40.6753
   -40.6752 -40.6752 -40.6744 -40.6744 -40.6744 -40.6743 -40.6633 -40.6633
   -40.6632 -40.6629 -40.6622 -40.6622 -40.6532 -40.6498 -40.6460 -40.6439
   -40.6439 -40.6439 -40.6437 -40.6432 -40.6429 -40.6429 -40.6340 -40.6269
   -40.6269 -40.6268 -40.6267 -40.6259 -40.6259 -40.6202 -40.6155 -40.6137
   -40.5963 -40.5963 -40.5963 -40.5960 -40.5952 -40.5952 -40.5894 -40.5865
   -40.5669 -40.5539 -20.1938 -19.9372 -19.9090 -19.8829 -19.8112 -19.7940
   -19.7679 -19.6991 -19.6891 -19.5421 -19.4741 -19.4660 -19.3844 -19.3729
   -19.2773 -19.2707 -19.1620 -19.1022 -18.9295 -18.9187 -18.8465 -18.8118
   -18.7723 -18.7631 -18.7603 -18.7600 -18.7570 -18.7268 -18.7117 -18.6953
   -18.6907 -18.6855 -18.6740 -18.6390 -18.6261 -18.6038 -18.5963 -18.5934
   -18.5912 -18.5723 -18.5681 -18.5331 -18.5288 -18.5176 -18.5101 -18.5022
   -18.4783 -18.4532 -18.4491 -18.4464 -18.4250 -18.4018 -18.4008 -18.3764
   -18.3722 -18.3526 -18.3341 -18.3182 -18.2899 -18.2863 -18.2679 -18.2374
   -18.2353 -18.2241 -18.2109 -18.1828 -18.1728 -18.1643 -18.1501 -18.1404
   -18.1386 -18.1374 -18.1371 -18.1182 -18.1143 -18.1113 -18.1092 -18.1058
   -18.1042 -18.0989 -18.0946 -18.0929 -18.0807 -18.0690 -18.0518 -18.0489
   -18.0485 -18.0437 -18.0407 -18.0397 -18.0383 -18.0290 -18.0281 -18.0184
   -17.9919 -17.9891 -17.9873 -17.9764 -17.9733 -17.9605 -17.9499 -17.9339
   -17.9312 -17.9202 -17.9148 -17.8981 -17.8866 -17.8825 -17.8805 -17.8782
   -17.8590 -17.8586 -17.8583 -17.8577 -17.8575 -17.8562 -17.8441 -17.8434
   -17.8244 -17.8230 -17.7999 -17.7987 -17.7806 -17.7788 -17.7661 -17.7648
   -17.7587 -17.7585 -12.2066 -12.1458 -11.9556 -11.8264 -11.7703 -11.7084
   -11.7071 -11.6294 -11.5845 -11.5426 -11.5410 -11.5394 -11.5269 -11.5252
   -11.5196 -11.5059 -11.4682 -11.4599 -11.4427 -11.4355 -11.4293 -11.4199
   -11.3996 -11.3817 -11.3651 -11.3510 -11.3355 -11.3183 -11.3155 -11.3079
   -11.3075 -11.2997 -11.2961 -11.2940 -11.2709 -11.2500 -11.2449 -11.2386
   -11.2331 -11.2252 -11.2141 -11.2106 -11.2029 -11.1900 -11.1859 -11.1829
   -11.1764 -11.1532 -11.1262 -11.1176 -11.1109 -11.0693 -11.0576 -11.0380
   -11.0320 -10.9996 -10.9959 -10.9731 -10.9685 -10.9571 -10.9489 -10.9433
   -10.9229 -10.8957 -10.8819 -10.8788 -10.8781 -10.8729 -10.8573 -10.8523
   -10.8513 -10.8498 -10.8494 -10.8487 -10.8425 -10.8391 -10.8330 -10.8318
   -10.8261 -10.8249 -10.8221 -10.8203 -10.8131 -10.7849 -10.7832 -10.7823
   -10.7821 -10.7535 -10.6896 -10.6500 -10.5935 -10.5841 -10.5692 -10.5549
   -10.5214 -10.4887 -10.4731 -10.4315 -10.3921 -10.3071 -10.2990 -10.2440
   -10.2120 -10.2026 -10.1787 -10.1612 -10.1565 -10.1526 -10.1395 -10.1245
   -10.0956 -10.0856 -10.0756 -10.0734 -10.0698 -10.0651 -10.0555 -10.0552
   -10.0185 -10.0041  -9.9818  -9.9703  -9.9660  -9.9567  -9.9498  -9.9363
    -9.9325  -9.9281  -9.9178  -9.9043  -9.8834  -9.8643  -9.8462  -9.8319
    -9.8263  -9.8167  -9.8036  -9.7951  -9.7835  -9.7585  -9.7480  -9.7447
    -9.7123  -9.7020  -9.6836  -9.6821  -9.6685  -9.6626  -9.6478  -9.6259
    -9.6215  -9.6126  -9.6061  -9.6000  -9.5903  -9.5788  -9.5391  -9.5346
    -9.5316  -9.5309  -9.5254  -9.5131  -9.5091  -9.5037  -9.4995  -9.4979
    -9.4795  -9.4779  -9.4497  -9.4338  -9.4280  -9.4011  -9.3915  -9.3817
    -9.3350  -9.2872  -9.2841  -9.2710  -9.2653  -9.2535  -9.2514  -9.2436
    -9.2108  -9.2025  -9.1948  -9.1822  -9.1704  -9.1659  -9.1509  -9.1328
    -9.1177  -9.1053  -9.1000  -9.0928  -9.0898  -9.0768  -9.0678  -9.0558
    -9.0510  -9.0280  -9.0118  -9.0012  -8.9949  -8.9876  -8.9829  -8.9809
    -8.9667  -8.9449  -8.9417  -8.9324  -8.9290  -8.9272  -8.9266  -8.9226
    -8.9185  -8.9100  -8.9083  -8.9076  -8.8994  -8.8968  -8.8929  -8.8851
    -8.8793  -8.8790  -8.8741  -8.8618  -8.8369  -8.8334  -8.8326  -8.8297
    -8.8272  -8.8249  -8.8033  -8.8022  -8.7975  -8.7854  -8.7749  -8.7724
    -8.7720  -8.7696  -8.7575  -8.7491  -8.7032  -8.6962  -8.6925  -8.6762
    -8.6200  -8.5538  -8.5426  -8.5380  -8.5110  -8.4848  -8.4779  -8.4433
    -8.4131  -8.3945  -8.3928  -8.3410  -8.3118  -8.3014  -8.2754  -8.2207
    -8.1667  -8.1667  -8.1579  -8.1577  -8.1472  -8.1465  -8.1443  -8.1314
    -8.1052  -8.0973  -8.0452  -8.0123  -8.0079  -7.9863  -7.9789  -7.9713
    -7.9274  -7.8975  -7.8938  -7.8800  -7.8723  -7.8699  -7.8648  -7.8554
    -7.8507  -7.8485  -7.8430  -7.8422  -7.8352  -7.8328  -7.8296  -7.8280
    -7.8206  -7.8202  -7.8097  -7.8084  -7.8072  -7.8056  -7.8046  -7.8040
    -7.8012  -7.7974  -7.7972  -7.7943  -7.7811  -7.7763  -7.7702  -7.7688
    -7.7650  -7.7416  -7.7366  -7.7355  -7.7354  -7.7276  -7.7083  -7.7059
    -7.7054  -7.7043  -7.7022  -7.6939  -7.6893  -7.6844  -7.6610  -7.6574
    -7.6511  -7.6475  -7.6445  -7.6400  -7.6381  -7.6251  -7.6231  -7.6137
    -7.6034  -7.6031  -7.6022  -7.6004  -7.5907  -7.5795  -7.5654  -7.5147
    -7.5031  -7.4987  -7.4964  -7.4855  -7.4752  -7.4508  -7.3934  -7.3654
    -7.3057  -7.2623  -7.2141  -7.2089  -7.2074  -7.2024  -7.1810  -7.1699
    -7.1571  -7.1509  -7.1441  -7.1322  -7.1228  -7.1189  -7.0810  -7.0713
    -7.0657  -7.0609  -7.0582  -7.0294  -7.0159  -7.0061  -6.9930  -6.9556
    -6.9513  -6.9489  -6.9391  -6.9350  -6.9222  -6.9091  -6.8996  -6.8974
    -6.8905  -6.8831  -6.8658  -6.8365  -6.8170  -6.8029  -6.7929  -6.7834
    -6.7495  -6.7284  -6.7208  -6.7028  -6.6938  -6.6689  -6.6604  -6.6501
    -6.6448  -6.6443  -6.6434  -6.6400  -6.6361  -6.6269  -6.6267  -6.6254
    -6.6252  -6.6180  -6.6180  -6.6178  -6.6177  -6.5888  -6.5761  -6.5550
    -6.5279  -6.5156  -6.4597  -6.4427  -6.3842  -6.3791  -6.3605  -6.3571
    -6.3560  -6.3525  -6.3473  -6.3311  -6.3166  -6.3160  -6.3123  -6.3115
    -6.3043  -6.3029  -6.2948  -6.2903  -6.2858  -6.2750  -6.2521  -6.2445
    -6.2432  -6.2392  -6.2299  -6.1604  -6.0813  -6.0400  -6.0285  -6.0207
    -5.9807  -5.9637  -5.9477  -5.9012  -5.8932  -5.8726  -5.8436  -5.7764
    -5.7303  -5.6752  -5.6473  -5.6367  -5.5770  -5.5240  -5.4439  -5.4175
    -5.3301  -4.4101  -4.2558  -4.1370  -4.1324  -4.1051  -4.0915  -3.9853
    -3.9659  -3.9608  -3.9575  -3.9048  -3.8940  -3.8820  -3.8785  -3.8692
    -3.8633  -3.8516  -3.8483  -3.8372  -3.8365  -3.8047  -3.7807  -3.7490
    -3.7275  -3.6890  -3.6755  -3.6505  -3.6442  -3.6419  -3.6359  -3.6140
    -3.5948  -3.5918  -3.5884  -3.5775  -3.5626  -3.5592  -3.5523  -3.5480
    -3.5419  -3.5275  -3.5245  -3.5206  -3.5136  -3.5107  -3.5007  -3.4975
    -3.4946  -3.4854  -3.4813  -3.4666  -3.4643  -3.4602  -3.4518  -3.4299
    -3.4179  -3.3961  -3.3896  -3.3857  -3.3830  -3.3828  -3.3785  -3.3732
    -3.3644  -3.3404  -3.3339  -3.3248  -3.3199  -3.3175  -3.3158  -3.3143
    -3.3116  -3.3082  -3.2958  -3.2862  -3.2813  -3.2744  -3.2681  -3.2615
    -3.2597  -3.2532  -3.2488  -3.2460  -3.2414  -3.2323  -3.2246  -3.2218
    -3.2125  -3.2098  -3.1996  -3.1994  -3.1993  -3.1949  -3.1808  -3.1476
    -3.1460  -3.1370  -3.1198  -3.1167  -3.1050  -3.1025  -3.0974  -3.0649
    -3.0638  -3.0612  -3.0592  -3.0587  -3.0581  -3.0529  -3.0490  -3.0481
    -3.0435  -3.0423  -3.0331  -3.0284  -3.0278  -3.0260  -3.0226  -3.0161
    -3.0120  -3.0092  -3.0071  -3.0045  -2.9979  -2.9854  -2.9842  -2.9806
    -2.9791  -2.9723  -2.9678  -2.9598  -2.9490  -2.9431  -2.9362  -2.9292
    -2.9234  -2.9168  -2.9101  -2.9094  -2.8825  -2.8415  -2.8387  -2.8275
    -2.8236  -2.7940  -2.7857  -2.7661  -2.7537  -2.6978  -2.6641  -2.6476
    -2.6354  -2.6169  -2.6110  -2.6013  -2.5917  -2.5834  -2.5804  -2.5740
    -2.5658  -2.5627  -2.5622  -2.5514  -2.5091  -2.4929  -2.4528  -2.4396
    -2.4353  -2.4336  -2.4261  -2.4216  -2.4176  -2.4027  -2.3816  -2.3793

          k =-0.5000-0.2887 0.0000 (386352 PWs)   bands (ev):

  -102.9377-102.3941 -88.8919 -71.2657 -71.2573 -71.2439 -71.2333 -71.2198
   -71.2119 -71.2015 -70.7361 -70.7352 -70.7055 -70.6987 -70.6916 -70.6742
   -70.6648 -66.6597 -66.6584 -66.6584 -66.6584 -66.6582 -66.6570 -66.6570
   -66.6478 -66.6478 -66.6477 -66.6476 -66.6475 -66.6464 -66.6464 -66.6401
   -66.6327 -66.6327 -66.6327 -66.6327 -66.6326 -66.6326 -66.6325 -66.6325
   -66.6315 -66.6313 -66.6313 -66.6313 -66.6313 -66.6282 -66.6282 -66.6282
   -66.6280 -66.6268 -66.6268 -66.6250 -66.6226 -66.6221 -66.6220 -66.6220
   -66.6220 -66.6219 -66.6219 -66.6218 -66.6216 -66.6205 -66.6205 -66.6205
   -66.6205 -66.6175 -66.6175 -66.6174 -66.6173 -66.6161 -66.6161 -66.6140
   -66.6103 -66.6045 -66.5982 -66.5928 -66.5922 -66.5888 -66.5848 -66.5788
   -66.5711 -57.2414 -57.1296 -57.1078 -56.6837 -56.6177 -56.5644 -54.7781
   -54.6447 -54.6081 -40.9604 -40.9604 -40.9604 -40.9604 -40.9604 -40.9603
   -40.9601 -40.9601 -40.9596 -40.9596 -40.9596 -40.9596 -40.9441 -40.9426
   -40.9390 -40.9362 -40.9336 -40.9336 -40.9336 -40.9333 -40.9328 -40.9328
   -40.9286 -40.9215 -40.9215 -40.9214 -40.9213 -40.9208 -40.9208 -40.9133
   -40.8930 -40.8709 -40.8708 -40.8708 -40.8708 -40.8707 -40.8707 -40.8707
   -40.8706 -40.8702 -40.8700 -40.8700 -40.8700 -40.8700 -40.8481 -40.8417
   -40.8351 -40.8322 -40.8293 -40.8157 -40.8121 -40.8120 -40.8120 -40.8118
   -40.8113 -40.8113 -40.8076 -40.8026 -40.8026 -40.8025 -40.8023 -40.8016
   -40.8016 -40.7938 -40.7912 -40.7912 -40.7911 -40.7911 -40.7904 -40.7904
   -40.7805 -40.7759 -40.7730 -40.7683 -40.7658 -40.7631 -40.7616 -40.7616
   -40.7616 -40.7616 -40.7615 -40.7615 -40.7615 -40.7614 -40.7608 -40.7608
   -40.7608 -40.7608 -40.7583 -40.7529 -40.7528 -40.7528 -40.7526 -40.7520
   -40.7520 -40.7503 -40.7443 -40.7417 -40.7411 -40.7411 -40.7410 -40.7409
   -40.7407 -40.7405 -40.7405 -40.7405 -40.7405 -40.7405 -40.7404 -40.7401
   -40.7401 -40.7401 -40.7397 -40.7397 -40.7397 -40.7397 -40.7322 -40.7318
   -40.7318 -40.7317 -40.7317 -40.7310 -40.7310 -40.7309 -40.7253 -40.7194
   -40.7142 -40.7130 -40.7102 -40.7102 -40.7101 -40.7101 -40.7101 -40.7101
   -40.7099 -40.7098 -40.7091 -40.7091 -40.7091 -40.7091 -40.6967 -40.6928
   -40.6828 -40.6754 -40.6754 -40.6754 -40.6754 -40.6753 -40.6753 -40.6752
   -40.6752 -40.6744 -40.6744 -40.6744 -40.6743 -40.6716 -40.6633 -40.6632
   -40.6632 -40.6630 -40.6622 -40.6622 -40.6535 -40.6519 -40.6442 -40.6439
   -40.6439 -40.6439 -40.6438 -40.6436 -40.6429 -40.6429 -40.6295 -40.6273
   -40.6269 -40.6269 -40.6268 -40.6267 -40.6259 -40.6259 -40.6215 -40.6020
   -40.5963 -40.5963 -40.5962 -40.5960 -40.5952 -40.5952 -40.5896 -40.5787
   -40.5649 -40.5631 -20.1666 -20.0133 -19.9094 -19.9040 -19.8124 -19.8044
   -19.7018 -19.6972 -19.5991 -19.5669 -19.4716 -19.4690 -19.3825 -19.3762
   -19.2864 -19.2719 -19.2418 -19.1026 -18.9675 -18.8772 -18.8290 -18.7797
   -18.7685 -18.7646 -18.7609 -18.7585 -18.7427 -18.7394 -18.7069 -18.6947
   -18.6896 -18.6840 -18.6750 -18.6519 -18.6437 -18.6009 -18.5969 -18.5936
   -18.5866 -18.5736 -18.5600 -18.5531 -18.5376 -18.5196 -18.5113 -18.4959
   -18.4547 -18.4500 -18.4490 -18.4415 -18.4270 -18.4057 -18.3935 -18.3796
   -18.3706 -18.3563 -18.3228 -18.3020 -18.2918 -18.2883 -18.2617 -18.2573
   -18.2330 -18.2258 -18.2080 -18.1930 -18.1671 -18.1602 -18.1520 -18.1417
   -18.1384 -18.1379 -18.1366 -18.1282 -18.1141 -18.1127 -18.1074 -18.1064
   -18.1039 -18.1015 -18.0937 -18.0884 -18.0854 -18.0810 -18.0515 -18.0508
   -18.0479 -18.0451 -18.0416 -18.0398 -18.0365 -18.0352 -18.0299 -18.0206
   -17.9949 -17.9920 -17.9798 -17.9771 -17.9749 -17.9695 -17.9401 -17.9336
   -17.9272 -17.9249 -17.9095 -17.8932 -17.8857 -17.8847 -17.8779 -17.8728
   -17.8589 -17.8586 -17.8583 -17.8580 -17.8568 -17.8560 -17.8446 -17.8430
   -17.8255 -17.8222 -17.8010 -17.7979 -17.7819 -17.7777 -17.7668 -17.7639
   -17.7588 -17.7583 -12.1779 -12.1438 -11.9501 -11.8187 -11.7843 -11.7483
   -11.6967 -11.6722 -11.6340 -11.5648 -11.5437 -11.5387 -11.5362 -11.5329
   -11.5091 -11.4955 -11.4600 -11.4398 -11.4330 -11.4267 -11.4252 -11.4045
   -11.3871 -11.3731 -11.3711 -11.3469 -11.3264 -11.3224 -11.3141 -11.3088
   -11.3013 -11.2974 -11.2936 -11.2927 -11.2547 -11.2456 -11.2448 -11.2383
   -11.2279 -11.2215 -11.2113 -11.2103 -11.1995 -11.1887 -11.1864 -11.1768
   -11.1687 -11.1487 -11.1398 -11.1341 -11.1127 -11.0949 -11.0782 -11.0389
   -11.0208 -11.0106 -11.0034 -10.9777 -10.9732 -10.9694 -10.9568 -10.9480
   -10.9285 -10.8921 -10.8832 -10.8786 -10.8718 -10.8651 -10.8600 -10.8558
   -10.8507 -10.8502 -10.8499 -10.8498 -10.8448 -10.8387 -10.8326 -10.8319
   -10.8256 -10.8236 -10.8230 -10.8219 -10.7909 -10.7835 -10.7828 -10.7826
   -10.7778 -10.7442 -10.7002 -10.6154 -10.5879 -10.5792 -10.5695 -10.5491
   -10.5147 -10.4629 -10.4332 -10.4083 -10.3886 -10.3386 -10.3106 -10.2798
   -10.2137 -10.1927 -10.1715 -10.1710 -10.1543 -10.1499 -10.1383 -10.1221
   -10.0960 -10.0817 -10.0785 -10.0730 -10.0629 -10.0622 -10.0581 -10.0440
   -10.0253 -10.0101  -9.9845  -9.9746  -9.9702  -9.9464  -9.9401  -9.9331
    -9.9299  -9.9149  -9.9033  -9.8861  -9.8781  -9.8675  -9.8543  -9.8474
    -9.8360  -9.8182  -9.8083  -9.8027  -9.7664  -9.7527  -9.7365  -9.7324
    -9.7185  -9.7032  -9.6982  -9.6854  -9.6708  -9.6539  -9.6513  -9.6408
    -9.6392  -9.6169  -9.6063  -9.5988  -9.5869  -9.5799  -9.5658  -9.5334
    -9.5304  -9.5229  -9.5190  -9.5163  -9.5124  -9.5057  -9.5011  -9.4995
    -9.4935  -9.4792  -9.4693  -9.4501  -9.4426  -9.4086  -9.3996  -9.3730
    -9.3224  -9.3108  -9.2909  -9.2704  -9.2629  -9.2574  -9.2507  -9.2308
    -9.2291  -9.2092  -9.1935  -9.1768  -9.1704  -9.1609  -9.1511  -9.1408
    -9.1217  -9.1180  -9.0957  -9.0924  -9.0885  -9.0791  -9.0518  -9.0456
    -9.0333  -9.0264  -9.0173  -9.0032  -8.9891  -8.9866  -8.9835  -8.9769
    -8.9451  -8.9342  -8.9317  -8.9307  -8.9297  -8.9263  -8.9222  -8.9194
    -8.9162  -8.9100  -8.9080  -8.9063  -8.9050  -8.9023  -8.8983  -8.8934
    -8.8884  -8.8792  -8.8786  -8.8559  -8.8370  -8.8327  -8.8323  -8.8305
    -8.8264  -8.8234  -8.8120  -8.8032  -8.8019  -8.7954  -8.7808  -8.7720
    -8.7718  -8.7684  -8.7550  -8.7374  -8.7020  -8.6927  -8.6814  -8.6609
    -8.6343  -8.5533  -8.5449  -8.5432  -8.5202  -8.4903  -8.4855  -8.4705
    -8.4239  -8.3989  -8.3913  -8.3590  -8.3335  -8.3158  -8.2331  -8.1802
    -8.1672  -8.1665  -8.1622  -8.1574  -8.1553  -8.1463  -8.1455  -8.1165
    -8.1073  -8.0909  -8.0221  -8.0129  -8.0055  -7.9893  -7.9531  -7.9287
    -7.9223  -7.9045  -7.8904  -7.8859  -7.8770  -7.8705  -7.8607  -7.8577
    -7.8519  -7.8470  -7.8423  -7.8383  -7.8368  -7.8329  -7.8301  -7.8239
    -7.8205  -7.8191  -7.8175  -7.8084  -7.8077  -7.8050  -7.8038  -7.8031
    -7.8014  -7.7973  -7.7971  -7.7915  -7.7744  -7.7729  -7.7700  -7.7691
    -7.7515  -7.7408  -7.7367  -7.7358  -7.7343  -7.7279  -7.7078  -7.7065
    -7.7049  -7.7046  -7.6996  -7.6931  -7.6924  -7.6771  -7.6675  -7.6624
    -7.6523  -7.6476  -7.6472  -7.6447  -7.6420  -7.6270  -7.6243  -7.6219
    -7.6067  -7.6033  -7.6028  -7.5975  -7.5965  -7.5821  -7.5532  -7.5100
    -7.5026  -7.5005  -7.4982  -7.4850  -7.4585  -7.4477  -7.3909  -7.3391
    -7.2919  -7.2668  -7.2601  -7.2115  -7.2095  -7.2071  -7.2046  -7.1706
    -7.1633  -7.1593  -7.1491  -7.1455  -7.1212  -7.1112  -7.0883  -7.0780
    -7.0713  -7.0655  -7.0552  -7.0429  -7.0210  -7.0148  -7.0040  -6.9791
    -6.9543  -6.9534  -6.9496  -6.9291  -6.9218  -6.9041  -6.8988  -6.8981
    -6.8914  -6.8901  -6.8520  -6.8253  -6.8151  -6.8029  -6.7937  -6.7849
    -6.7440  -6.7231  -6.7199  -6.7041  -6.6744  -6.6623  -6.6552  -6.6474
    -6.6447  -6.6442  -6.6438  -6.6338  -6.6276  -6.6267  -6.6262  -6.6213
    -6.6184  -6.6180  -6.6179  -6.6164  -6.6079  -6.6049  -6.5908  -6.5458
    -6.5206  -6.5114  -6.4744  -6.4583  -6.4458  -6.3617  -6.3600  -6.3568
    -6.3563  -6.3507  -6.3449  -6.3165  -6.3162  -6.3119  -6.3115  -6.3078
    -6.3018  -6.2959  -6.2955  -6.2920  -6.2877  -6.2543  -6.2448  -6.2445
    -6.2432  -6.2273  -6.1698  -6.1292  -6.1041  -6.0370  -6.0286  -6.0137
    -5.9831  -5.9581  -5.9523  -5.9006  -5.8936  -5.8806  -5.8491  -5.7652
    -5.7417  -5.7078  -5.6476  -5.6394  -5.5946  -5.5141  -5.4604  -5.4312
    -5.3339  -4.4348  -4.2297  -4.1355  -4.1335  -4.1194  -4.0758  -3.9883
    -3.9722  -3.9620  -3.9466  -3.9384  -3.8841  -3.8796  -3.8711  -3.8641
    -3.8523  -3.8516  -3.8443  -3.8374  -3.8353  -3.8326  -3.7659  -3.7475
    -3.7334  -3.7205  -3.6551  -3.6485  -3.6390  -3.6376  -3.6351  -3.6125
    -3.5908  -3.5876  -3.5849  -3.5777  -3.5608  -3.5576  -3.5512  -3.5468
    -3.5422  -3.5341  -3.5240  -3.5175  -3.5129  -3.5111  -3.5063  -3.5007
    -3.4866  -3.4774  -3.4721  -3.4704  -3.4561  -3.4559  -3.4386  -3.4263
    -3.4184  -3.3936  -3.3890  -3.3844  -3.3833  -3.3812  -3.3792  -3.3719
    -3.3592  -3.3433  -3.3341  -3.3278  -3.3231  -3.3189  -3.3180  -3.3149
    -3.3134  -3.3081  -3.2956  -3.2912  -3.2829  -3.2745  -3.2734  -3.2694
    -3.2626  -3.2532  -3.2484  -3.2477  -3.2455  -3.2363  -3.2283  -3.2230
    -3.2131  -3.2119  -3.1995  -3.1994  -3.1986  -3.1919  -3.1719  -3.1473
    -3.1421  -3.1400  -3.1180  -3.1125  -3.1033  -3.1003  -3.0963  -3.0638
    -3.0630  -3.0611  -3.0596  -3.0592  -3.0582  -3.0551  -3.0504  -3.0462
    -3.0423  -3.0392  -3.0345  -3.0279  -3.0273  -3.0228  -3.0195  -3.0177
    -3.0122  -3.0075  -3.0037  -3.0012  -2.9971  -2.9856  -2.9846  -2.9809
    -2.9787  -2.9692  -2.9677  -2.9571  -2.9526  -2.9434  -2.9383  -2.9342
    -2.9199  -2.9192  -2.9145  -2.9026  -2.8949  -2.8443  -2.8376  -2.8311
    -2.8290  -2.8028  -2.7798  -2.7604  -2.7526  -2.7165  -2.6721  -2.6457
    -2.6417  -2.6254  -2.6150  -2.6034  -2.5977  -2.5889  -2.5785  -2.5763
    -2.5655  -2.5639  -2.5636  -2.5459  -2.4875  -2.4647  -2.4465  -2.4446
    -2.4348  -2.4304  -2.4236  -2.4211  -2.4032  -2.3805  -2.3799  -2.3668

          k =-0.5000-0.8660 0.0000 (386352 PWs)   bands (ev):

  -102.9377-102.3941 -88.8919 -71.2657 -71.2573 -71.2439 -71.2333 -71.2198
   -71.2119 -71.2015 -70.7361 -70.7352 -70.7055 -70.6987 -70.6916 -70.6742
   -70.6648 -66.6601 -66.6584 -66.6584 -66.6584 -66.6583 -66.6570 -66.6570
   -66.6478 -66.6478 -66.6477 -66.6476 -66.6464 -66.6464 -66.6455 -66.6411
   -66.6328 -66.6327 -66.6327 -66.6327 -66.6327 -66.6327 -66.6324 -66.6323
   -66.6321 -66.6313 -66.6313 -66.6313 -66.6313 -66.6282 -66.6282 -66.6281
   -66.6281 -66.6273 -66.6268 -66.6268 -66.6221 -66.6220 -66.6220 -66.6220
   -66.6220 -66.6219 -66.6216 -66.6216 -66.6210 -66.6205 -66.6205 -66.6205
   -66.6205 -66.6175 -66.6175 -66.6174 -66.6174 -66.6161 -66.6161 -66.6138
   -66.6088 -66.6041 -66.5977 -66.5958 -66.5920 -66.5886 -66.5839 -66.5789
   -66.5712 -57.2414 -57.1296 -57.1078 -56.6837 -56.6177 -56.5645 -54.7781
   -54.6447 -54.6081 -40.9606 -40.9605 -40.9604 -40.9604 -40.9604 -40.9604
   -40.9602 -40.9602 -40.9601 -40.9596 -40.9596 -40.9596 -40.9596 -40.9508
   -40.9336 -40.9336 -40.9335 -40.9334 -40.9328 -40.9328 -40.9296 -40.9256
   -40.9215 -40.9215 -40.9214 -40.9213 -40.9208 -40.9208 -40.9091 -40.9032
   -40.8927 -40.8882 -40.8708 -40.8708 -40.8708 -40.8708 -40.8707 -40.8707
   -40.8707 -40.8706 -40.8700 -40.8700 -40.8700 -40.8700 -40.8528 -40.8470
   -40.8411 -40.8335 -40.8290 -40.8202 -40.8121 -40.8120 -40.8120 -40.8118
   -40.8113 -40.8113 -40.8026 -40.8026 -40.8024 -40.8024 -40.8016 -40.8016
   -40.8014 -40.7950 -40.7912 -40.7912 -40.7911 -40.7911 -40.7904 -40.7904
   -40.7824 -40.7756 -40.7704 -40.7678 -40.7654 -40.7633 -40.7617 -40.7616
   -40.7616 -40.7616 -40.7616 -40.7615 -40.7613 -40.7613 -40.7608 -40.7608
   -40.7608 -40.7608 -40.7539 -40.7528 -40.7528 -40.7528 -40.7527 -40.7520
   -40.7520 -40.7497 -40.7463 -40.7423 -40.7411 -40.7411 -40.7410 -40.7409
   -40.7407 -40.7405 -40.7405 -40.7405 -40.7405 -40.7405 -40.7404 -40.7401
   -40.7401 -40.7401 -40.7397 -40.7397 -40.7397 -40.7397 -40.7322 -40.7318
   -40.7318 -40.7317 -40.7317 -40.7310 -40.7310 -40.7299 -40.7257 -40.7183
   -40.7140 -40.7105 -40.7102 -40.7101 -40.7101 -40.7101 -40.7101 -40.7100
   -40.7100 -40.7098 -40.7091 -40.7091 -40.7091 -40.7091 -40.6976 -40.6963
   -40.6754 -40.6754 -40.6754 -40.6754 -40.6753 -40.6753 -40.6752 -40.6752
   -40.6744 -40.6744 -40.6743 -40.6743 -40.6691 -40.6666 -40.6633 -40.6632
   -40.6632 -40.6630 -40.6622 -40.6622 -40.6555 -40.6520 -40.6445 -40.6439
   -40.6439 -40.6439 -40.6436 -40.6432 -40.6429 -40.6429 -40.6357 -40.6269
   -40.6269 -40.6268 -40.6268 -40.6259 -40.6259 -40.6235 -40.6186 -40.6038
   -40.5991 -40.5963 -40.5963 -40.5962 -40.5960 -40.5952 -40.5952 -40.5896
   -40.5732 -40.5450 -20.1754 -19.9958 -19.9091 -19.9029 -19.8115 -19.8045
   -19.7013 -19.6984 -19.6057 -19.5781 -19.4716 -19.4697 -19.3819 -19.3769
   -19.2931 -19.2722 -19.2581 -19.0492 -18.9383 -18.8950 -18.8420 -18.8305
   -18.7640 -18.7636 -18.7606 -18.7597 -18.7476 -18.7309 -18.6988 -18.6946
   -18.6900 -18.6873 -18.6617 -18.6345 -18.6307 -18.6003 -18.5971 -18.5941
   -18.5892 -18.5797 -18.5607 -18.5390 -18.5343 -18.5200 -18.5101 -18.4938
   -18.4806 -18.4520 -18.4512 -18.4454 -18.4311 -18.4259 -18.3990 -18.3722
   -18.3712 -18.3591 -18.3289 -18.3139 -18.2909 -18.2781 -18.2596 -18.2455
   -18.2301 -18.2168 -18.2140 -18.1857 -18.1807 -18.1629 -18.1455 -18.1414
   -18.1382 -18.1379 -18.1339 -18.1166 -18.1149 -18.1140 -18.1108 -18.1067
   -18.1031 -18.1004 -18.0972 -18.0876 -18.0805 -18.0746 -18.0514 -18.0499
   -18.0467 -18.0435 -18.0410 -18.0390 -18.0389 -18.0340 -18.0271 -18.0201
   -17.9940 -17.9896 -17.9828 -17.9763 -17.9710 -17.9664 -17.9506 -17.9347
   -17.9291 -17.9198 -17.9160 -17.8930 -17.8872 -17.8818 -17.8805 -17.8784
   -17.8594 -17.8588 -17.8582 -17.8574 -17.8570 -17.8565 -17.8449 -17.8428
   -17.8257 -17.8218 -17.8009 -17.7978 -17.7816 -17.7777 -17.7666 -17.7641
   -17.7587 -17.7584 -12.1775 -12.1540 -11.9955 -11.7985 -11.7723 -11.7332
   -11.6842 -11.6312 -11.5948 -11.5807 -11.5442 -11.5399 -11.5345 -11.5280
[...]
     atom  156 type  2   force =     0.00125204    0.00019999    0.00227342
     atom  157 type  1   force =    -0.00000011   -0.00000204    0.00068851
     atom  158 type  1   force =    -0.00001015   -0.00000612    0.00000012
     atom  159 type  2   force =    -0.00000371   -0.00000175    0.00000222
     atom  160 type  2   force =    -0.00000120   -0.00000109    0.00161591
     atom  161 type  2   force =    -0.00000144   -0.00000147   -0.00236055
     atom  162 type  2   force =     0.00000798   -0.00000175    0.00002082
     atom  163 type  1   force =     0.00006253   -0.00013082   -0.00023859
     atom  164 type  1   force =     0.00009693   -0.00018595    0.00249416
     atom  165 type  2   force =    -0.00102271    0.00015730   -0.00109897
     atom  166 type  2   force =    -0.00006586   -0.00003050    0.00017731
     atom  167 type  2   force =     0.00011231   -0.00001259   -0.00017396
     atom  168 type  2   force =     0.00003400   -0.00059288    0.00088172
     atom  169 type  1   force =    -0.00000103   -0.00000219    0.00068834
     atom  170 type  1   force =    -0.00001234   -0.00001533    0.00001364
     atom  171 type  2   force =    -0.00000596   -0.00000125    0.00000349
     atom  172 type  2   force =    -0.00000146   -0.00000098    0.00161576
     atom  173 type  2   force =    -0.00000151   -0.00000149   -0.00236049
     atom  174 type  2   force =    -0.00000382   -0.00000426    0.00001662
     atom  175 type  1   force =    -0.00001580    0.00004610    0.00003528
     atom  176 type  1   force =    -0.00034633   -0.00116785   -0.00110755
     atom  177 type  2   force =    -0.00091312    0.00013431   -0.00173858
     atom  178 type  2   force =    -0.00006772   -0.00020989   -0.00004972
     atom  179 type  2   force =    -0.00000178    0.00003307   -0.00006700
     atom  180 type  2   force =     0.00105465    0.00011350   -0.00074239
     atom  181 type  1   force =     0.00000010   -0.00000231    0.00068877
     atom  182 type  1   force =    -0.00001157   -0.00001367    0.00000440
     atom  183 type  2   force =    -0.00000400   -0.00000334    0.00000374
     atom  184 type  2   force =    -0.00000166   -0.00000093    0.00161577
     atom  185 type  2   force =    -0.00000170   -0.00000139   -0.00236043
     atom  186 type  2   force =    -0.00000373   -0.00000624    0.00002398
     atom  187 type  1   force =     0.00002892    0.00006211   -0.00005183
     atom  188 type  1   force =    -0.00023905   -0.00069580   -0.00062486
     atom  189 type  2   force =     0.00050700   -0.00254072   -0.00083885
     atom  190 type  2   force =     0.00008322    0.00009983    0.00000928
     atom  191 type  2   force =    -0.00008605    0.00006059   -0.00006360
     atom  192 type  2   force =     0.00096256    0.00069461   -0.00030116
     atom  193 type  3   force =     0.00330039    0.00312187   -0.00275850
     atom  194 type  4   force =    -0.00209445    0.00118389    0.00205334
     atom  195 type  3   force =    -0.00796707   -0.00198378   -0.00301079

     Total force =     0.018807     Total SCF correction =     0.000894
     Energy error            =      4.9E-04 Ry
     Gradient error          =      8.0E-03 Ry/Bohr

     number of scf cycles    =  28
     number of bfgs steps    =  27

     energy             old  =  -35654.9431092948 Ry
     energy             new  =  -35654.9436031940 Ry

     CASE: energy            _new < energy            _old

     new trust radius        =       0.0578959825 bohr
     new conv_thr            =       0.0000000494 Ry


ATOMIC_POSITIONS (angstrom)
Mo               0.0000119917        1.8193638619       -9.1672481230    0   0   0
Mo               1.5756136568        0.9097075315       -3.0554901653    0   0   0
S                0.0000188998        1.8193822938       -4.6232556019    0   0   0
S                1.5756321638        0.9096773839       -7.6014065489    0   0   0
S                1.5756326175        0.9096785128      -10.7330757790    0   0   0
S                0.0000189190        1.8193860094       -1.4877129945    0   0   0
Mo              -0.0002368771        1.8188741665        3.0583791719
Mo               1.5758902805        0.8942661822        9.1339293453
S               -0.0113705934        1.7616381390        7.5439217380
S                1.5761083944        0.9091783802        4.6245262999
S                1.5755704062        0.9090154823        1.4902280518
S                0.0066704724        1.8025658646       10.7042737434
Mo              -1.5756053507        4.5484193819       -9.1672481230    0   0   0
Mo               0.0000378379        3.6387394919       -3.0554952701    0   0   0
S               -1.5755913433        4.5484363582       -4.6232494962    0   0   0
S                0.0000148214        3.6387329039       -7.6014065489    0   0   0
S                0.0000152751        3.6387340328      -10.7330757790    0   0   0
S               -1.5755906502        4.5484413613       -1.4877305502    0   0   0
Mo              -1.5753277238        4.5483333551        3.0589142870
Mo               0.0248901074        3.5909536507        9.0862719986
S               -1.6066732121        4.5531343225        7.6037659454
S                0.0001171515        3.6383036980        4.6270221966
S                0.0002752503        3.6387637084        1.4910238612
S               -1.4268597127        4.6121194012       10.6859013763
Mo              -3.1512226931        7.2774749019       -9.1672481230    0   0   0
Mo              -1.5755910988        6.3678216792       -3.0555115988    0   0   0
S               -3.1512162438        7.2774954350       -4.6232578178    0   0   0
S               -1.5756025210        6.3677884239       -7.6014065489    0   0   0
S               -1.5756020673        6.3677895528      -10.7330757790    0   0   0
S               -3.1512127704        7.2774877076       -1.4877200710    0   0   0
Mo              -3.1510088823        7.2771196374        3.0578457898
Mo              -1.5911142654        6.4034011070        9.1444977071
S               -3.1891562377        7.2762890751        7.5767280146
S               -1.5751652769        6.3681218804        4.6262109430
S               -1.5751687899        6.3673070737        1.4902991020
S               -3.1529927278        7.2860832951       10.7324844760
Mo              -4.7268400355       10.0065304219       -9.1672481230    0   0   0
Mo              -3.1512405618        9.0968403586       -3.0554816746    0   0   0
S               -4.7268341792       10.0065523623       -4.6232463762    0   0   0
S               -3.1512198634        9.0968439439       -7.6014065489    0   0   0
S               -3.1512194097        9.0968450728      -10.7330757790    0   0   0
S               -4.7268370797       10.0065537885       -1.4877176751    0   0   0
Mo              -4.7270196485       10.0057313867        3.0579414504
Mo              -3.1560022148        9.0913668798        9.1515365646
S               -4.7326390814        9.9855070292        7.5809411019
S               -3.1506898672        9.0963775426        4.6248747322
S               -3.1510683733        9.0969814047        1.4900785738
S               -4.7203728061       10.0115835899       10.7199788965
Mo               3.1512517547        1.8193638619       -9.1672481230    0   0   0
Mo               4.7269020221        0.9097289540       -3.0554823951    0   0   0
S                3.1512612351        1.8193882564       -4.6232320683    0   0   0
S                4.7268719268        0.9096773839       -7.6014065489    0   0   0
S                4.7268723805        0.9096785128      -10.7330757790    0   0   0
S                3.1512592485        1.8193890201       -1.4877261251    0   0   0
Mo               3.1517469297        1.8190708446        3.0574113469
Mo               4.7324101544        0.9006885888        9.1481413297
S                3.1656824642        1.8047416701        7.5708609475
S                4.7287115038        0.9102112223        4.6245318453
S                4.7265705983        0.9091449512        1.4893943618
S                3.1568751595        1.7884046232       10.7072588818
Mo               1.5756344123        4.5484193819       -9.1672481230    0   0   0
Mo               3.1512756394        3.6387769522       -3.0554814834    0   0   0
S                1.5756504879        4.5484423799       -4.6232390542    0   0   0
S                3.1512545844        3.6387329039       -7.6014065489    0   0   0
S                3.1512550381        3.6387340328      -10.7330757790    0   0   0
S                1.5756466253        4.5484431864       -1.4877251801    0   0   0
Mo               1.5757830245        4.5483652398        3.0583936984
Mo               3.1798543750        3.6163766012        9.1495925608
S                1.6090812409        4.5709046602        7.5943541355
S                3.1525267494        3.6385009566        4.6250041767
S                3.1508743595        3.6387190689        1.4900278380
S                1.5893016602        4.3645029554       10.7579357352
Mo               0.0000170699        7.2774749019       -9.1672481230    0   0   0
Mo               1.5756764447        6.3678236689       -3.0554877708    0   0   0
S                0.0000381981        7.2774979204       -4.6232454413    0   0   0
S                1.5756372420        6.3677884239       -7.6014065489    0   0   0
S                1.5756376957        6.3677895528      -10.7330757790    0   0   0
S                0.0000328088        7.2774946042       -1.4877307940    0   0   0
Mo               0.0001848724        7.2774285173        3.0575758708
Mo               1.5659716886        6.3495499924        9.2040859680
S                0.0319652717        7.2759287589        7.6133009504
S                1.5757113445        6.3681256017        4.6248803580
S                1.5754951984        6.3673732883        1.4897454000
S               -0.1099379423        7.3607069945       10.7757190903
Mo              -1.5756002725       10.0065304219       -9.1672481230    0   0   0
Mo               0.0000873425        9.0968676911       -3.0554912329    0   0   0
S               -1.5755883952       10.0065504530       -4.6232240150    0   0   0
S                0.0000198996        9.0968439439       -7.6014065489    0   0   0
S                0.0000203533        9.0968450728      -10.7330757790    0   0   0
S               -1.5755859047       10.0065492576       -1.4877362381    0   0   0
Mo              -1.5752858908       10.0065525015        3.0576623808
Mo              -0.0011479455        9.1134095725        9.1557925029
S               -1.5769207478        9.9988320967        7.5785954899
S                0.0003236917        9.0967914530        4.6254234873
S               -0.0001318003        9.0968421649        1.4900305651
S               -1.5893284177       10.0125929817       10.7211520104
Mo               6.3024915177        1.8193638619       -9.1672481230    0   0   0
Mo               7.8781001445        0.9096521684       -3.0554919963    0   0   0
S                6.3025008696        1.8193826232       -4.6232480596    0   0   0
S                7.8781116898        0.9096773839       -7.6014065489    0   0   0
S                7.8781121435        0.9096785128      -10.7330757790    0   0   0
S                6.3025042007        1.8193849068       -1.4877147524    0   0   0
Mo               6.3032835168        1.8194440457        3.0562567446
Mo               7.8654557847        0.8915348283        9.1747560176
S                6.3128846341        1.8315191263        7.5993325252
S                7.8777941254        0.9097952230        4.6254836579
S                7.8792057635        0.9092338311        1.4891574548
S                6.2950714798        1.8050842731       10.7435955359
Mo               4.7268741753        4.5484193819       -9.1672481230    0   0   0
Mo               6.3024679138        3.6387501714       -3.0554895197    0   0   0
S                4.7268748770        4.5484386753       -4.6232519432    0   0   0
S                6.3024943474        3.6387329039       -7.6014065489    0   0   0
S                6.3024948011        3.6387340328      -10.7330757790    0   0   0
S                4.7268770533        4.5484432419       -1.4877137856    0   0   0
Mo               4.7273904635        4.5483380112        3.0571683368
Mo               6.2959269999        3.6349643094        9.1952714513
S                4.7498232735        4.5548138744        7.6064326341
S                6.3030159560        3.6382508472        4.6249870054
S                6.3034067449        3.6395165971        1.4891350427
S                4.7094551980        4.5360205355       10.7540740322
Mo               3.1512568329        7.2774749019       -9.1672481230    0   0   0
Mo               4.7268384135        6.3678043337       -3.0554959052    0   0   0
S                3.1512606125        7.2774972547       -4.6232589675    0   0   0
S                4.7268770050        6.3677884239       -7.6014065489    0   0   0
S                4.7268774587        6.3677895528      -10.7330757790    0   0   0
S                3.1512629079        7.2774963749       -1.4877081835    0   0   0
Mo               3.1510545121        7.2769602146        3.0572720053
Mo               4.7280543535        6.3588721882        9.1991557014
S                3.1309010178        7.2564227458        7.6534858103
S                4.7267382834        6.3674174251        4.6253444907
S                4.7263241622        6.3676442278        1.4893278656
S                3.2114665534        7.3110497291       10.8313069195
Mo               1.5756394905       10.0065304219       -9.1672481230    0   0   0
Mo               3.1512330605        9.0968514907       -3.0554878870    0   0   0
S                1.5756499830       10.0065443759       -4.6232632674    0   0   0
S                3.1512596626        9.0968439439       -7.6014065489    0   0   0
S                3.1512601163        9.0968450728      -10.7330757790    0   0   0
S                1.5756503041       10.0065459699       -1.4877044377    0   0   0
Mo               1.5757730161       10.0064044460        3.0577072880
Mo               3.1450507061        9.0951869611        9.1889204158
S                1.5860001666       10.0024461702        7.5924426467
S                3.1509179865        9.0958137291        4.6255574315
S                3.1508102591        9.0959422153        1.4896708609
S                1.5622176107        9.9941462209       10.7472374232
Mo               9.4537312807        1.8193638619       -9.1672481230    0   0   0
Mo              11.0293863460        0.9096952246       -3.0554894007    0   0   0
S                9.4537395970        1.8193770750       -4.6232328036    0   0   0
S               11.0293514528        0.9096773839       -7.6014065489    0   0   0
S               11.0293519066        0.9096785128      -10.7330757790    0   0   0
S                9.4537393632        1.8193794783       -1.4877366147    0   0   0
Mo               9.4535585485        1.8189491845        3.0577344094
Mo              11.0332378311        0.8867451944        9.1636913497
S                9.4419566624        1.8296799817        7.6324443419
S               11.0280369517        0.9085107281        4.6252827079
S               11.0293421005        0.9089999234        1.4903550831
S                9.4534689205        1.7187247264       10.7882796854
Mo               7.8781139383        4.5484193819       -9.1672481230    0   0   0
Mo               9.4537539161        3.6387607911       -3.0554933032    0   0   0
S                7.8781175448        4.5484378232       -4.6232366318    0   0   0
S                9.4537341104        3.6387329039       -7.6014065489    0   0   0
S                9.4537345641        3.6387340328      -10.7330757790    0   0   0
S                7.8781194018        4.5484411585       -1.4877377057    0   0   0
Mo               7.8783645738        4.5484172767        3.0576711492
Mo               9.4532093024        3.6360073104        9.1979479324
S                7.8870680773        4.5380887811        7.6488774297
S                9.4533836682        3.6382630241        4.6258670310
S                9.4543346963        3.6388012310        1.4906889456
S                7.8191252379        4.5845657232       10.8216244121
Mo               6.3024965959        7.2774749019       -9.1672481230    0   0   0
Mo               7.8781361655        6.3678242352       -3.0555014130    0   0   0
S                6.3024973331        7.2774953556       -4.6232392528    0   0   0
S                7.8781167680        6.3677884239       -7.6014065489    0   0   0
S                7.8781172217        6.3677895528      -10.7330757790    0   0   0
S                6.3024989866        7.2774929744       -1.4877349119    0   0   0
Mo               6.3022988578        7.2767627002        3.0572094544
Mo               7.8694726346        6.3731260949        9.1909504217
S                6.2917413343        7.2641228047        7.6170589261
S                7.8775640606        6.3672700571        4.6253602915
S                7.8786258485        6.3676260175        1.4897792181
S                6.3012406669        7.2892902385       10.7593387037
Mo               4.7268792535       10.0065304219       -9.1672481230    0   0   0
Mo               6.3025111524        9.0968738021       -3.0554915260    0   0   0
S                4.7268840634       10.0065452125       -4.6232380477    0   0   0
S                6.3024994256        9.0968439439       -7.6014065489    0   0   0
S                6.3024998793        9.0968450728      -10.7330757790    0   0   0
S                4.7268847312       10.0065459141       -1.4877283294    0   0   0
Mo               4.7264720140       10.0054335355        3.0576136765
Mo               6.2979967649        9.0907678090        9.1698410012
S                4.7116388271        9.9888318543        7.6016987880
S                6.3016437658        9.0953236737        4.6253690744
S                6.3027138128        9.0963135330        1.4898654711
S                4.7340431635       10.0000263717       10.7462101356
Pt               1.4863651760        6.2474337202       12.0100880551
Pd              -0.1883294109        4.0702819471       12.5484976164
Pt               9.6876073007        3.6975584697       12.0485784078



     Writing config-only to output data dir ./outdir/pwscf.save/ :
     XML data file
     NEW-OLD atomic charge density approx. for the potential

     negative rho (up, down):  9.442E-04 0.000E+00

     total cpu time spent up to now is   256660.3 secs

     Self-consistent Calculation

     iteration #  1     ecut=    77.00 Ry     beta= 0.20
     Davidson diagonalization with overlap
     ethr =  1.00E-06,  avg # of iterations = 19.0

     negative rho (up, down):  9.352E-04 0.000E+00

     total cpu time spent up to now is   257890.2 secs

     total energy              =  -35654.94783394 Ry
     estimated scf accuracy    <       0.00425119 Ry

     iteration #  2     ecut=    77.00 Ry     beta= 0.20
     Davidson diagonalization with overlap
     ethr =  2.43E-07,  avg # of iterations = 13.5

     negative rho (up, down):  9.299E-04 0.000E+00

     total cpu time spent up to now is   258418.0 secs

     total energy              =  -35654.94743811 Ry
     estimated scf accuracy    <       0.00249158 Ry

     iteration #  3     ecut=    77.00 Ry     beta= 0.20
     Davidson diagonalization with overlap
     ethr =  1.43E-07,  avg # of iterations =  2.0

     negative rho (up, down):  9.248E-04 0.000E+00

     total cpu time spent up to now is   258828.5 secs

     total energy              =  -35654.94599095 Ry
     estimated scf accuracy    <       0.00034573 Ry

     iteration #  4     ecut=    77.00 Ry     beta= 0.20
     Davidson diagonalization with overlap
