
     Program PWSCF v.7.3 starts on 12Feb2024 at  2:51:48 

     This program is part of the open-source Quantum ESPRESSO suite
     for quantum simulation of materials; please cite
         "P. Giannozzi et al., J. Phys.:Condens. Matter 21 395502 (2009);
         "P. Giannozzi et al., J. Phys.:Condens. Matter 29 465901 (2017);
         "P. Giannozzi et al., J. Chem. Phys. 152 154105 (2020);
          URL http://www.quantum-espresso.org", 
     in publications or presentations arising from this work. More details at
     http://www.quantum-espresso.org/quote

     Parallel version (MPI & OpenMP), running on      36 processor cores
     Number of MPI processes:                36
     Threads/MPI process:                     1

     MPI processes distributed on     1 nodes
     554177 MiB available memory on the printing compute node when the environment starts
 
     Waiting for input...
     Reading input from standard input
Warning: card &CELL ignored
Warning: card / ignored

     Current dimensions of program PWSCF are:
     Max number of different atomic species (ntypx) = 10
     Max number of k-points (npk) =  40000
     Max angular momentum in pseudopotentials (lmaxx) =  4
     file Mo.pbe-spn-kjpaw_psl.1.0.0.UPF: wavefunction(s)  4S 4D renormalized
     file S.pbe-n-kjpaw_psl.1.0.0.UPF: wavefunction(s)  3S 3P renormalized
     file Pt.pbe-spfn-kjpaw_psl.1.0.0.UPF: wavefunction(s)  5P 4F renormalized
 
     R & G space division:  proc/nbgrp/npool/nimage =      36
     Subspace diagonalization in iterative solution of the eigenvalue problem:
     one sub-group per band group will be used
     scalapack distributed-memory algorithm (size of sub-group:  6*  6 procs)

 
     Parallelization info
     --------------------
     sticks:   dense  smooth     PW     G-vecs:    dense   smooth      PW
     Min         585     334     89               198743    85850   11735
     Max         586     335     90               198750    85861   11748
     Sum       21073   12049   3205              7154885  3090769  422587
 
     Using Slab Decomposition
 


     bravais-lattice index     =            0
     lattice parameter (alat)  =      23.8199  a.u.
     unit-cell volume          =   33861.0370 (a.u.)^3
     number of atoms/cell      =          195
     number of atomic types    =            3
     number of electrons       =      1760.00
     number of Kohn-Sham states=         1056
     kinetic-energy cutoff     =      77.0000  Ry
     charge density cutoff     =     539.0000  Ry
     scf convergence threshold =      1.0E-06
     mixing beta               =       0.2000
     number of iterations used =            8  plain     mixing
     energy convergence thresh.=      1.0E-04
     force convergence thresh. =      1.0E-03
     Exchange-correlation= SLA  PW   PBX  PBC
                           (   1   4   3   4   0   0   0)
     nstep                     =         1000


     Effective Screening Medium Method
     =================================
     Boundary Conditions: Vacuum-Slab-Vacuum
     total charge in unit cell        =   0.0000
     grid points for fit at edges     =        4 
 

     celldm(1)=  23.819920  celldm(2)=   0.000000  celldm(3)=   0.000000
     celldm(4)=   0.000000  celldm(5)=   0.000000  celldm(6)=   0.000000

     crystal axes: (cart. coord. in units of alat)
               a(1) = (   1.000000   0.000000   0.000000 )  
               a(2) = (  -0.499999   0.866026   0.000000 )  
               a(3) = (   0.000000   0.000000   2.893000 )  

     reciprocal axes: (cart. coord. in units 2 pi/alat)
               b(1) = (  1.000000  0.577349  0.000000 )  
               b(2) = (  0.000000  1.154700  0.000000 )  
               b(3) = (  0.000000  0.000000  0.345662 )  


     PseudoPot. # 1 for Mo read from file:
     ./pseudo/Mo.pbe-spn-kjpaw_psl.1.0.0.UPF
     MD5 check sum: 317bf72632116215fd98f72de1686f13
     Pseudo is Projector augmented-wave + core cor, Zval = 14.0
     Generated using 'atomic' code by A. Dal Corso  v.7.2
     Shape of augmentation charge: PSQ
     Using radial grid of 1229 points,  6 beta functions with: 
                l(1) =   0
                l(2) =   0
                l(3) =   1
                l(4) =   1
                l(5) =   2
                l(6) =   2
     Q(r) pseudized with 0 coefficients 


     PseudoPot. # 2 for S  read from file:
     ./pseudo/S.pbe-n-kjpaw_psl.1.0.0.UPF
     MD5 check sum: 8b7b5302570d38d5e87fed6a1065abda
     Pseudo is Projector augmented-wave + core cor, Zval =  6.0
     Generated using 'atomic' code by A. Dal Corso  v.7.2
     Shape of augmentation charge: PSQ
     Using radial grid of 1151 points,  6 beta functions with: 
                l(1) =   0
                l(2) =   0
                l(3) =   1
                l(4) =   1
                l(5) =   2
                l(6) =   2
     Q(r) pseudized with 0 coefficients 


     PseudoPot. # 3 for Pt read from file:
     ./pseudo/Pt.pbe-spfn-kjpaw_psl.1.0.0.UPF
     MD5 check sum: 620096ebf4e6ebacc94de60fd67efcb5
     Pseudo is Projector augmented-wave + core cor, Zval = 32.0
     Generated using 'atomic' code by A. Dal Corso  v.7.2
     Shape of augmentation charge: PSQ
     Using radial grid of 1277 points,  8 beta functions with: 
                l(1) =   0
                l(2) =   0
                l(3) =   1
                l(4) =   1
                l(5) =   2
                l(6) =   2
                l(7) =   3
                l(8) =   3
     Q(r) pseudized with 0 coefficients 


     atomic species   valence    mass     pseudopotential
     Mo               14.00    95.95000     Mo( 1.00)
     S                 6.00    32.06000     S ( 1.00)
     Pt               32.00   195.08400     Pt( 1.00)

     No symmetry found



   Cartesian axes

     site n.     atom                  positions (alat units)
         1        Mo     tau(   1) = (   0.0000010   0.1443372  -0.7272732  )
         2        Mo     tau(   2) = (   0.1249995   0.0721706  -0.2424038  )
         3        S      tau(   3) = (   0.0000015   0.1443386  -0.3667807  )
         4        S      tau(   4) = (   0.1250010   0.0721682  -0.6030489  )
         5        S      tau(   5) = (   0.1250010   0.0721683  -0.8514963  )
         6        S      tau(   6) = (   0.0000015   0.1443389  -0.1180260  )
         7        Mo     tau(   7) = (   0.0000165   0.1443639   0.2424458  )
         8        Mo     tau(   8) = (   0.1250235   0.0717246   0.7263406  )
         9        S      tau(   9) = (   0.0005369   0.1448386   0.6015218  )
        10        S      tau(  10) = (   0.1249954   0.0721618   0.3668135  )
        11        S      tau(  11) = (   0.1250195   0.0721779   0.1180823  )
        12        S      tau(  12) = (  -0.0003270   0.1431025   0.8512079  )
        13        Mo     tau(  13) = (  -0.1249989   0.3608437  -0.7272732  )
        14        Mo     tau(  14) = (   0.0000030   0.2886752  -0.2424042  )
        15        S      tau(  15) = (  -0.1249977   0.3608450  -0.3667802  )
        16        S      tau(  16) = (   0.0000012   0.2886747  -0.6030489  )
        17        S      tau(  17) = (   0.0000012   0.2886748  -0.8514963  )
        18        S      tau(  18) = (  -0.1249977   0.3608454  -0.1180274  )
        19        Mo     tau(  19) = (  -0.1249838   0.3608611   0.2424564  )
        20        Mo     tau(  20) = (  -0.0010112   0.2875499   0.7275042  )
        21        S      tau(  21) = (  -0.1249589   0.3614723   0.6028911  )
        22        S      tau(  22) = (   0.0000229   0.2887164   0.3668462  )
        23        S      tau(  23) = (   0.0000319   0.2887039   0.1180849  )
        24        S      tau(  24) = (  -0.1254179   0.3601432   0.8519775  )
        25        Mo     tau(  25) = (  -0.2499987   0.5773502  -0.7272732  )
        26        Mo     tau(  26) = (  -0.1249977   0.5051839  -0.2424055  )
        27        S      tau(  27) = (  -0.2499981   0.5773518  -0.3667809  )
        28        S      tau(  28) = (  -0.1249986   0.5051812  -0.6030489  )
        29        S      tau(  29) = (  -0.1249986   0.5051813  -0.8514963  )
        30        S      tau(  30) = (  -0.2499979   0.5773512  -0.1180266  )
        31        Mo     tau(  31) = (  -0.2499892   0.5773423   0.2424725  )
        32        Mo     tau(  32) = (  -0.1256606   0.5052028   0.7286154  )
        33        S      tau(  33) = (  -0.2498226   0.5768374   0.6031862  )
        34        S      tau(  34) = (  -0.1249521   0.5051863   0.3668519  )
        35        S      tau(  35) = (  -0.1249975   0.5051799   0.1180722  )
        36        S      tau(  36) = (  -0.2499767   0.5778459   0.8528940  )
        37        Mo     tau(  37) = (  -0.3749985   0.7938567  -0.7272732  )
        38        Mo     tau(  38) = (  -0.2500001   0.7216874  -0.2424031  )
        39        S      tau(  39) = (  -0.3749980   0.7938584  -0.3667800  )
        40        S      tau(  40) = (  -0.2499984   0.7216877  -0.6030489  )
        41        S      tau(  41) = (  -0.2499984   0.7216878  -0.8514963  )
        42        S      tau(  42) = (  -0.3749982   0.7938585  -0.1180264  )
        43        Mo     tau(  43) = (  -0.3749918   0.7938447   0.2424454  )
        44        Mo     tau(  44) = (  -0.2499337   0.7214685   0.7273252  )
        45        S      tau(  45) = (  -0.3749119   0.7930997   0.6024017  )
        46        S      tau(  46) = (  -0.2499835   0.7216794   0.3668152  )
        47        S      tau(  47) = (  -0.2499982   0.7216718   0.1180690  )
        48        S      tau(  48) = (  -0.3745581   0.7945239   0.8516564  )
        49        Mo     tau(  49) = (   0.2500010   0.1443372  -0.7272732  )
        50        Mo     tau(  50) = (   0.3750034   0.0721723  -0.2424032  )
        51        S      tau(  51) = (   0.2500017   0.1443391  -0.3667788  )
        52        S      tau(  52) = (   0.3750010   0.0721682  -0.6030489  )
        53        S      tau(  53) = (   0.3750010   0.0721683  -0.8514963  )
        54        S      tau(  54) = (   0.2500016   0.1443391  -0.1180271  )
        55        Mo     tau(  55) = (   0.2500049   0.1443558   0.2424800  )
        56        Mo     tau(  56) = (   0.3750695   0.0717200   0.7264262  )
        57        S      tau(  57) = (   0.2500704   0.1440362   0.6019475  )
        58        S      tau(  58) = (   0.3750099   0.0721483   0.3668106  )
        59        S      tau(  59) = (   0.3749948   0.0721851   0.1180824  )
        60        S      tau(  60) = (   0.2500131   0.1413211   0.8516135  )
        61        Mo     tau(  61) = (   0.1250012   0.3608437  -0.7272732  )
        62        Mo     tau(  62) = (   0.2500029   0.2886782  -0.2424031  )
        63        S      tau(  63) = (   0.1250024   0.3608455  -0.3667794  )
        64        S      tau(  64) = (   0.2500012   0.2886747  -0.6030489  )
        65        S      tau(  65) = (   0.2500012   0.2886748  -0.8514963  )
        66        S      tau(  66) = (   0.1250021   0.3608455  -0.1180270  )
        67        Mo     tau(  67) = (   0.1250220   0.3608739   0.2424909  )
        68        Mo     tau(  68) = (   0.2500516   0.2862417   0.7284634  )
        69        S      tau(  69) = (   0.1251493   0.3619302   0.6061672  )
        70        S      tau(  70) = (   0.2500021   0.2887137   0.3669053  )
        71        S      tau(  71) = (   0.2500084   0.2886924   0.1181099  )
        72        S      tau(  72) = (   0.1241634   0.3514816   0.8558063  )
        73        Mo     tau(  73) = (   0.0000014   0.5773502  -0.7272732  )
        74        Mo     tau(  74) = (   0.1250045   0.5051840  -0.2424036  )
        75        S      tau(  75) = (   0.0000030   0.5773520  -0.3667799  )
        76        S      tau(  76) = (   0.1250014   0.5051812  -0.6030489  )
        77        S      tau(  77) = (   0.1250014   0.5051813  -0.8514963  )
        78        S      tau(  78) = (   0.0000026   0.5773517  -0.1180274  )
        79        Mo     tau(  79) = (   0.0000298   0.5773239   0.2424318  )
        80        Mo     tau(  80) = (   0.1235562   0.5053489   0.7306566  )
        81        S      tau(  81) = (   0.0009343   0.5763644   0.6059345  )
        82        S      tau(  82) = (   0.1250078   0.5051967   0.3669171  )
        83        S      tau(  83) = (   0.1250403   0.5051743   0.1180834  )
        84        S      tau(  84) = (  -0.0065880   0.5806588   0.8588888  )
        85        Mo     tau(  85) = (  -0.1249984   0.7938567  -0.7272732  )
        86        Mo     tau(  86) = (   0.0000069   0.7216896  -0.2424039  )
        87        S      tau(  87) = (  -0.1249975   0.7938582  -0.3667782  )
        88        S      tau(  88) = (   0.0000016   0.7216877  -0.6030489  )
        89        S      tau(  89) = (   0.0000016   0.7216878  -0.8514963  )
        90        S      tau(  90) = (  -0.1249973   0.7938582  -0.1180279  )
        91        Mo     tau(  91) = (  -0.1249912   0.7938418   0.2424335  )
        92        Mo     tau(  92) = (  -0.0002856   0.7221962   0.7280430  )
        93        S      tau(  93) = (  -0.1248457   0.7930650   0.6025902  )
        94        S      tau(  94) = (  -0.0000060   0.7216208   0.3667980  )
        95        S      tau(  95) = (   0.0000209   0.7216773   0.1180639  )
        96        S      tau(  96) = (  -0.1254320   0.7945446   0.8518225  )
        97        Mo     tau(  97) = (   0.5000010   0.1443372  -0.7272732  )
        98        Mo     tau(  98) = (   0.6250001   0.0721662  -0.2424040  )
        99        S      tau(  99) = (   0.5000017   0.1443386  -0.3667801  )
       100        S      tau( 100) = (   0.6250010   0.0721682  -0.6030489  )
       101        S      tau( 101) = (   0.6250010   0.0721683  -0.8514963  )
       102        S      tau( 102) = (   0.5000020   0.1443388  -0.1180261  )
       103        Mo     tau( 103) = (   0.4999955   0.1443611   0.2424567  )
       104        Mo     tau( 104) = (   0.6246463   0.0728119   0.7256413  )
       105        S      tau( 105) = (   0.4995556   0.1446831   0.6015045  )
       106        S      tau( 106) = (   0.6250311   0.0722157   0.3667721  )
       107        S      tau( 107) = (   0.6249808   0.0721636   0.1180639  )
       108        S      tau( 108) = (   0.5004658   0.1432308   0.8511310  )
       109        Mo     tau( 109) = (   0.3750012   0.3608437  -0.7272732  )
       110        Mo     tau( 110) = (   0.4999991   0.2886761  -0.2424038  )
       111        S      tau( 111) = (   0.3750012   0.3608452  -0.3667804  )
       112        S      tau( 112) = (   0.5000012   0.2886747  -0.6030489  )
       113        S      tau( 113) = (   0.5000012   0.2886748  -0.8514963  )
       114        S      tau( 114) = (   0.3750014   0.3608455  -0.1180261  )
       115        Mo     tau( 115) = (   0.3749911   0.3608734   0.2424983  )
       116        Mo     tau( 116) = (   0.5011245   0.2875246   0.7272611  )
       117        S      tau( 117) = (   0.3748808   0.3618865   0.6059605  )
       118        S      tau( 118) = (   0.4999884   0.2887132   0.3668588  )
       119        S      tau( 119) = (   0.4999854   0.2887028   0.1180988  )
       120        S      tau( 120) = (   0.3760770   0.3514537   0.8556312  )
       121        Mo     tau( 121) = (   0.2500014   0.5773502  -0.7272732  )
       122        Mo     tau( 122) = (   0.3749983   0.5051825  -0.2424043  )
       123        S      tau( 123) = (   0.2500017   0.5773519  -0.3667810  )
       124        S      tau( 124) = (   0.3750014   0.5051812  -0.6030489  )
       125        S      tau( 125) = (   0.3750014   0.5051813  -0.8514963  )
       126        S      tau( 126) = (   0.2500018   0.5773519  -0.1180256  )
       127        Mo     tau( 127) = (   0.2500077   0.5773382   0.2424971  )
       128        Mo     tau( 128) = (   0.3766993   0.5053238   0.7304272  )
       129        S      tau( 129) = (   0.2500029   0.5764488   0.6074621  )
       130        S      tau( 130) = (   0.3750022   0.5051973   0.3669226  )
       131        S      tau( 131) = (   0.3749796   0.5051747   0.1180897  )
       132        S      tau( 132) = (   0.2502086   0.5906803   0.8517598  )
       133        Mo     tau( 133) = (   0.1250016   0.7938567  -0.7272732  )
       134        Mo     tau( 134) = (   0.2499995   0.7216883  -0.2424036  )
       135        S      tau( 135) = (   0.1250024   0.7938578  -0.3667813  )
       136        S      tau( 136) = (   0.2500016   0.7216877  -0.6030489  )
       137        S      tau( 137) = (   0.2500016   0.7216878  -0.8514963  )
       138        S      tau( 138) = (   0.1250024   0.7938579  -0.1180253  )
       139        Mo     tau( 139) = (   0.1250030   0.7938506   0.2424689  )
       140        Mo     tau( 140) = (   0.2500869   0.7270239   0.7252501  )
       141        S      tau( 141) = (   0.1234110   0.7947569   0.6009716  )
       142        S      tau( 142) = (   0.2500041   0.7216753   0.3668766  )
       143        S      tau( 143) = (   0.2500092   0.7216778   0.1181077  )
       144        S      tau( 144) = (   0.1247568   0.7963642   0.8506634  )
       145        Mo     tau( 145) = (   0.7500010   0.1443372  -0.7272732  )
       146        Mo     tau( 146) = (   0.8750038   0.0721696  -0.2424038  )
       147        S      tau( 147) = (   0.7500016   0.1443382  -0.3667789  )
       148        S      tau( 148) = (   0.8750010   0.0721682  -0.6030489  )
       149        S      tau( 149) = (   0.8750010   0.0721683  -0.8514963  )
       150        S      tau( 150) = (   0.7500016   0.1443384  -0.1180279  )
       151        Mo     tau( 151) = (   0.7500056   0.1443690   0.2423906  )
       152        Mo     tau( 152) = (   0.8754762   0.0728639   0.7256129  )
       153        S      tau( 153) = (   0.7500308   0.1452012   0.6014640  )
       154        S      tau( 154) = (   0.8749862   0.0722263   0.3667681  )
       155        S      tau( 155) = (   0.8750254   0.0721591   0.1180621  )
       156        S      tau( 156) = (   0.7500441   0.1442691   0.8503988  )
       157        Mo     tau( 157) = (   0.6250012   0.3608437  -0.7272732  )
       158        Mo     tau( 158) = (   0.7500028   0.2886769  -0.2424041  )
       159        S      tau( 159) = (   0.6250015   0.3608451  -0.3667792  )
       160        S      tau( 160) = (   0.7500012   0.2886747  -0.6030489  )
       161        S      tau( 161) = (   0.7500012   0.2886748  -0.8514963  )
       162        S      tau( 162) = (   0.6250016   0.3608454  -0.1180280  )
       163        Mo     tau( 163) = (   0.6249990   0.3608612   0.2424707  )
       164        Mo     tau( 164) = (   0.7500746   0.2887820   0.7269162  )
       165        S      tau( 165) = (   0.6251905   0.3614018   0.6027475  )
       166        S      tau( 166) = (   0.7500151   0.2886908   0.3668035  )
       167        S      tau( 167) = (   0.7499992   0.2887185   0.1180565  )
       168        S      tau( 168) = (   0.6254399   0.3601689   0.8517611  )
       169        Mo     tau( 169) = (   0.5000014   0.5773502  -0.7272732  )
       170        Mo     tau( 170) = (   0.6250029   0.5051841  -0.2424047  )
       171        S      tau( 171) = (   0.5000014   0.5773518  -0.3667794  )
       172        S      tau( 172) = (   0.6250014   0.5051812  -0.6030489  )
       173        S      tau( 173) = (   0.6250014   0.5051813  -0.8514963  )
       174        S      tau( 174) = (   0.5000016   0.5773516  -0.1180277  )
       175        Mo     tau( 175) = (   0.4999861   0.5773259   0.2424414  )
       176        Mo     tau( 176) = (   0.6258514   0.5052144   0.7284022  )
       177        S      tau( 177) = (   0.4992455   0.5763364   0.6056359  )
       178        S      tau( 178) = (   0.6249791   0.5051944   0.3668559  )
       179        S      tau( 179) = (   0.6250105   0.5051778   0.1180820  )
       180        S      tau( 180) = (   0.5069392   0.5807955   0.8586037  )
       181        Mo     tau( 181) = (   0.3750016   0.7938567  -0.7272732  )
       182        Mo     tau( 182) = (   0.5000025   0.7216901  -0.2424039  )
       183        S      tau( 183) = (   0.3750019   0.7938578  -0.3667793  )
       184        S      tau( 184) = (   0.5000016   0.7216877  -0.6030489  )
       185        S      tau( 185) = (   0.5000016   0.7216878  -0.8514963  )
       186        S      tau( 186) = (   0.3750020   0.7938579  -0.1180272  )
       187        Mo     tau( 187) = (   0.3750095   0.7938535   0.2424732  )
       188        Mo     tau( 188) = (   0.5004392   0.7222160   0.7277389  )
       189        S      tau( 189) = (   0.3766340   0.7948794   0.6008559  )
       190        S      tau( 190) = (   0.5000179   0.7216263   0.3668038  )
       191        S      tau( 191) = (   0.4999965   0.7216810   0.1180753  )
       192        S      tau( 192) = (   0.3755295   0.7963504   0.8505132  )
       193        Pt     tau( 193) = (   0.1371069   0.5032381   0.9573497  )
       194        Pt     tau( 194) = (   0.3635722   0.5033563   0.9571359  )
       195        Pt     tau( 195) = (   0.2500603   0.7270155   0.9776311  )

     --------------------------------------------
     DFT-D3 Dispersion Correction (3-body terms):
     --------------------------------------------
       Reference C6 values for interpolation: 

         atom   Coordination number   C6
         S          0.000           268.01
         S          0.995           261.99
         S          1.990           251.62
         Mo         0.000          1691.79
         Mo         1.942          1004.01
         Mo        11.056           674.22
         Pt         0.000           782.29
         Pt         1.919           692.72
         Pt         6.667           673.75

       Values used:

         atom   Coordination number  R0_AB[au]  C6      C8
         Mo        10.208            3.547    674.22  77634.20
         Mo        10.221            3.547    674.22  77634.20
         S          3.858            3.128    251.62  12327.25
         S          3.859            3.128    251.62  12327.25
         S          3.758            3.128    251.62  12327.25
         S          3.859            3.128    251.62  12327.25
         Mo        10.220            3.547    674.22  77634.20
         Mo        10.265            3.547    674.22  77634.20
         S          3.854            3.128    251.62  12327.25
         S          3.861            3.128    251.62  12327.25
         S          3.859            3.128    251.62  12327.25
         S          3.825            3.128    251.62  12327.25
         Mo        10.208            3.547    674.22  77634.20
         Mo        10.221            3.547    674.22  77634.20
         S          3.858            3.128    251.62  12327.25
         S          3.859            3.128    251.62  12327.25
         S          3.758            3.128    251.62  12327.25
         S          3.859            3.128    251.62  12327.25
         Mo        10.221            3.547    674.22  77634.20
         Mo        10.226            3.547    674.22  77634.20
         S          3.865            3.128    251.62  12327.25
         S          3.857            3.128    251.62  12327.25
         S          3.859            3.128    251.62  12327.25
         S          3.768            3.128    251.62  12327.25
         Mo        10.208            3.547    674.22  77634.20
         Mo        10.221            3.547    674.22  77634.20
         S          3.858            3.128    251.62  12327.25
         S          3.859            3.128    251.62  12327.25
         S          3.758            3.128    251.62  12327.25
         S          3.859            3.128    251.62  12327.25
         Mo        10.221            3.547    674.22  77634.20
         Mo        10.240            3.547    674.22  77634.20
         S          3.856            3.128    251.62  12327.25
         S          3.856            3.128    251.62  12327.25
         S          3.859            3.128    251.62  12327.25
         S          3.825            3.128    251.62  12327.25
         Mo        10.208            3.547    674.22  77634.20
         Mo        10.221            3.547    674.22  77634.20
         S          3.858            3.128    251.62  12327.25
         S          3.859            3.128    251.62  12327.25
         S          3.758            3.128    251.62  12327.25
         S          3.859            3.128    251.62  12327.25
         Mo        10.220            3.547    674.22  77634.20
         Mo        10.249            3.547    674.22  77634.20
         S          3.856            3.128    251.62  12327.25
         S          3.859            3.128    251.62  12327.25
         S          3.859            3.128    251.62  12327.25
         S          3.818            3.128    251.62  12327.25
         Mo        10.208            3.547    674.22  77634.20
         Mo        10.221            3.547    674.22  77634.20
         S          3.858            3.128    251.62  12327.25
         S          3.859            3.128    251.62  12327.25
         S          3.758            3.128    251.62  12327.25
         S          3.859            3.128    251.62  12327.25
         Mo        10.220            3.547    674.22  77634.20
         Mo        10.265            3.547    674.22  77634.20
         S          3.844            3.128    251.62  12327.25
         S          3.861            3.128    251.62  12327.25
         S          3.859            3.128    251.62  12327.25
         S          3.845            3.128    251.62  12327.25
         Mo        10.208            3.547    674.22  77634.20
         Mo        10.221            3.547    674.22  77634.20
         S          3.858            3.128    251.62  12327.25
         S          3.859            3.128    251.62  12327.25
         S          3.758            3.128    251.62  12327.25
         S          3.859            3.128    251.62  12327.25
         Mo        10.222            3.547    674.22  77634.20
         Mo        10.162            3.547    674.22  77634.20
         S          3.858            3.128    251.62  12327.25
         S          3.852            3.128    251.62  12327.25
         S          3.859            3.128    251.62  12327.25
         S          4.676            3.128    251.62  12327.25
         Mo        10.208            3.547    674.22  77634.20
         Mo        10.221            3.547    674.22  77634.20
         S          3.858            3.128    251.62  12327.25
         S          3.859            3.128    251.62  12327.25
         S          3.758            3.128    251.62  12327.25
         S          3.859            3.128    251.62  12327.25
         Mo        10.221            3.547    674.22  77634.20
         Mo        10.847            3.547    674.22  77634.20
         S          3.845            3.128    251.62  12327.25
         S          3.850            3.128    251.62  12327.25
         S          3.859            3.128    251.62  12327.25
         S          4.639            3.128    251.62  12327.25
         Mo        10.208            3.547    674.22  77634.20
         Mo        10.221            3.547    674.22  77634.20
         S          3.858            3.128    251.62  12327.25
         S          3.859            3.128    251.62  12327.25
         S          3.758            3.128    251.62  12327.25
         S          3.859            3.128    251.62  12327.25
         Mo        10.220            3.547    674.22  77634.20
         Mo        10.236            3.547    674.22  77634.20
         S          3.858            3.128    251.62  12327.25
         S          3.859            3.128    251.62  12327.25
         S          3.859            3.128    251.62  12327.25
         S          3.814            3.128    251.62  12327.25
         Mo        10.208            3.547    674.21  77634.20
         Mo        10.221            3.547    674.22  77634.20
         S          3.858            3.128    251.62  12327.25
         S          3.859            3.128    251.62  12327.25
         S          3.758            3.128    251.62  12327.25
         S          3.859            3.128    251.62  12327.25
         Mo        10.220            3.547    674.22  77634.20
         Mo        10.301            3.547    674.22  77634.20
         S          3.855            3.128    251.62  12327.25
         S          3.864            3.128    251.62  12327.25
         S          3.859            3.128    251.62  12327.25
         S          3.825            3.128    251.62  12327.25
         Mo        10.208            3.547    674.21  77634.20
         Mo        10.221            3.547    674.22  77634.20
         S          3.858            3.128    251.62  12327.25
         S          3.859            3.128    251.62  12327.25
         S          3.758            3.128    251.62  12327.25
         S          3.859            3.128    251.62  12327.25
         Mo        10.222            3.547    674.22  77634.20
         Mo        10.225            3.547    674.22  77634.20
         S          3.857            3.128    251.62  12327.25
         S          3.857            3.128    251.62  12327.25
         S          3.859            3.128    251.62  12327.25
         S          4.678            3.128    251.62  12327.25
         Mo        10.208            3.547    674.22  77634.20
         Mo        10.221            3.547    674.22  77634.20
         S          3.858            3.128    251.62  12327.25
         S          3.859            3.128    251.62  12327.25
         S          3.758            3.128    251.62  12327.25
         S          3.859            3.128    251.62  12327.25
         Mo        10.222            3.547    674.22  77634.20
         Mo        10.847            3.547    674.22  77634.20
         S          3.874            3.128    251.62  12327.25
         S          3.850            3.128    251.62  12327.25
         S          3.859            3.128    251.62  12327.25
         S          6.648            3.128    251.62  12327.25
         Mo        10.208            3.547    674.22  77634.20
         Mo        10.221            3.547    674.22  77634.20
         S          3.858            3.128    251.62  12327.25
         S          3.859            3.128    251.62  12327.25
         S          3.758            3.128    251.62  12327.25
         S          3.859            3.128    251.62  12327.25
         Mo        10.220            3.547    674.22  77634.20
         Mo        10.626            3.547    674.22  77634.20
         S          3.839            3.128    251.62  12327.25
         S          3.855            3.128    251.62  12327.25
         S          3.859            3.128    251.62  12327.25
         S          4.788            3.128    251.62  12327.25
         Mo        10.208            3.547    674.22  77634.20
         Mo        10.221            3.547    674.22  77634.20
         S          3.858            3.128    251.62  12327.25
         S          3.859            3.128    251.62  12327.25
         S          3.758            3.128    251.62  12327.25
         S          3.859            3.128    251.62  12327.25
         Mo        10.220            3.547    674.22  77634.20
         Mo        10.301            3.547    674.22  77634.20
         S          3.857            3.128    251.62  12327.25
         S          3.864            3.128    251.62  12327.25
         S          3.859            3.128    251.62  12327.25
         S          3.809            3.128    251.62  12327.25
         Mo        10.208            3.547    674.22  77634.20
         Mo        10.220            3.547    674.22  77634.20
         S          3.858            3.128    251.62  12327.25
         S          3.859            3.128    251.62  12327.25
         S          3.758            3.128    251.62  12327.25
         S          3.859            3.128    251.62  12327.25
         Mo        10.221            3.547    674.22  77634.20
         Mo        10.259            3.547    674.22  77634.20
         S          3.864            3.128    251.62  12327.25
         S          3.861            3.128    251.62  12327.25
         S          3.859            3.128    251.62  12327.25
         S          3.771            3.128    251.62  12327.25
         Mo        10.208            3.547    674.22  77634.20
         Mo        10.221            3.547    674.22  77634.20
         S          3.858            3.128    251.62  12327.25
         S          3.859            3.128    251.62  12327.25
         S          3.758            3.128    251.62  12327.25
         S          3.859            3.128    251.62  12327.25
         Mo        10.221            3.547    674.22  77634.20
         Mo        10.240            3.547    674.22  77634.20
         S          3.842            3.128    251.62  12327.25
         S          3.856            3.128    251.62  12327.25
         S          3.859            3.128    251.62  12327.25
         S          4.645            3.128    251.62  12327.25
         Mo        10.208            3.547    674.22  77634.20
         Mo        10.221            3.547    674.22  77634.20
         S          3.858            3.128    251.62  12327.25
         S          3.859            3.128    251.62  12327.25
         S          3.758            3.128    251.62  12327.25
         S          3.859            3.128    251.62  12327.25
         Mo        10.220            3.547    674.22  77634.20
         Mo        10.236            3.547    674.22  77634.20
         S          3.837            3.128    251.62  12327.25
         S          3.859            3.128    251.62  12327.25
         S          3.859            3.128    251.62  12327.25
         S          4.790            3.128    251.62  12327.25
         Pt         4.856            3.168    673.75  70061.90
         Pt         4.855            3.168    673.75  70061.90
         Pt         3.994            3.168    692.72  72035.22

         Molecular C6 ( Ry / a.u.^6 ) =  14196297.57


     number of k points=     4  Gaussian smearing, width (Ry)=  0.0100
                       cart. coord. in units 2pi/alat
        k(    1) = (   0.0000000   0.0000000   0.0000000), wk =   0.5000000
        k(    2) = (   0.0000000  -0.5773499   0.0000000), wk =   0.5000000
        k(    3) = (  -0.5000000  -0.2886744   0.0000000), wk =   0.5000000
        k(    4) = (  -0.5000000  -0.8660242   0.0000000), wk =   0.5000000

     Dense  grid:  7154885 G-vectors     FFT dimensions: ( 180, 180, 512)

     Smooth grid:  3090769 G-vectors     FFT dimensions: ( 135, 135, 400)

     Estimated max dynamical RAM per process >       4.33 GB

     Estimated total dynamical RAM >     155.80 GB

     Initial potential from superposition of free atoms

     starting charge    1759.9390, renormalised to    1760.0000

     negative rho (up, down):  7.006E-04 0.000E+00
     Starting wfcs are 1203 randomized atomic wfcs
     Checking if some PAW data can be deallocated... 

     total cpu time spent up to now is      179.3 secs

     Self-consistent Calculation

     iteration #  1     ecut=    77.00 Ry     beta= 0.20
     Davidson diagonalization with overlap
     ethr =  1.00E-02,  avg # of iterations =  2.0

     Threshold (ethr) on eigenvalues was too large:
     Diagonalizing with lowered threshold

     Davidson diagonalization with overlap
     ethr =  1.41E-04,  avg # of iterations = 17.8

     negative rho (up, down):  1.571E-04 0.000E+00

     total cpu time spent up to now is     2411.3 secs

     total energy              =  -36817.58651647 Ry
     estimated scf accuracy    <       6.65760270 Ry

     iteration #  2     ecut=    77.00 Ry     beta= 0.20
     Davidson diagonalization with overlap
     ethr =  3.78E-04,  avg # of iterations =  1.0

     negative rho (up, down):  1.584E-05 0.000E+00

     total cpu time spent up to now is     2785.4 secs

     total energy              =  -36816.30287190 Ry
     estimated scf accuracy    <       3.53868043 Ry

     iteration #  3     ecut=    77.00 Ry     beta= 0.20
     Davidson diagonalization with overlap
     ethr =  2.01E-04,  avg # of iterations = 16.5

     negative rho (up, down):  6.828E-06 0.000E+00

     total cpu time spent up to now is     3288.1 secs

     total energy              =  -36816.37947001 Ry
     estimated scf accuracy    <       1.11095134 Ry

     iteration #  4     ecut=    77.00 Ry     beta= 0.20
     Davidson diagonalization with overlap
     c_bands:  2 eigenvalues not converged
     ethr =  6.31E-05,  avg # of iterations = 14.5

     negative rho (up, down):  1.603E-05 0.000E+00

     total cpu time spent up to now is     4517.6 secs

     total energy              =  -36817.33124473 Ry
     estimated scf accuracy    <       1.23969319 Ry

     iteration #  5     ecut=    77.00 Ry     beta= 0.20
     Davidson diagonalization with overlap
     ethr =  6.31E-05,  avg # of iterations =  4.0

     negative rho (up, down):  2.843E-05 0.000E+00

     total cpu time spent up to now is     4937.7 secs

     total energy              =  -36817.37663811 Ry
     estimated scf accuracy    <       0.29094162 Ry

     iteration #  6     ecut=    77.00 Ry     beta= 0.20
     Davidson diagonalization with overlap
     c_bands:  1 eigenvalues not converged
     ethr =  1.65E-05,  avg # of iterations = 18.2

     negative rho (up, down):  5.604E-05 0.000E+00

     total cpu time spent up to now is     5815.1 secs

     total energy              =  -36817.52714947 Ry
     estimated scf accuracy    <       0.13124254 Ry

     iteration #  7     ecut=    77.00 Ry     beta= 0.20
     Davidson diagonalization with overlap
     c_bands:  2 eigenvalues not converged
     c_bands:  1 eigenvalues not converged
     c_bands:  1 eigenvalues not converged
     ethr =  7.46E-06,  avg # of iterations = 25.0

     negative rho (up, down):  1.561E-04 0.000E+00

     total cpu time spent up to now is     6768.7 secs

     total energy              =  -36817.58475267 Ry
     estimated scf accuracy    <       0.04275210 Ry

     iteration #  8     ecut=    77.00 Ry     beta= 0.20
     Davidson diagonalization with overlap
     c_bands:  3 eigenvalues not converged
     c_bands:  4 eigenvalues not converged
     ethr =  2.43E-06,  avg # of iterations = 70.8

     negative rho (up, down):  2.236E-04 0.000E+00

     total cpu time spent up to now is     9071.3 secs

     total energy              =  -36817.61813363 Ry
     estimated scf accuracy    <       0.01375822 Ry

     iteration #  9     ecut=    77.00 Ry     beta= 0.20
     Davidson diagonalization with overlap
     c_bands:  2 eigenvalues not converged
     c_bands:  4 eigenvalues not converged
     ethr =  7.82E-07,  avg # of iterations = 15.2

     negative rho (up, down):  3.570E-04 0.000E+00

     total cpu time spent up to now is     9720.6 secs

     total energy              =  -36817.62367602 Ry
     estimated scf accuracy    <       0.00404999 Ry

     iteration # 10     ecut=    77.00 Ry     beta= 0.20
     Davidson diagonalization with overlap
     ethr =  2.30E-07,  avg # of iterations = 18.8

     negative rho (up, down):  3.970E-04 0.000E+00

     total cpu time spent up to now is    10898.0 secs

     total energy              =  -36817.62719054 Ry
     estimated scf accuracy    <       0.01313329 Ry

     iteration # 11     ecut=    77.00 Ry     beta= 0.20
     Davidson diagonalization with overlap
     ethr =  2.30E-07,  avg # of iterations =  9.0

     negative rho (up, down):  5.255E-04 0.000E+00

     total cpu time spent up to now is    11388.6 secs

     total energy              =  -36817.62634037 Ry
     estimated scf accuracy    <       0.00347808 Ry

     iteration # 12     ecut=    77.00 Ry     beta= 0.20
     Davidson diagonalization with overlap
     ethr =  1.98E-07,  avg # of iterations =  9.0

     negative rho (up, down):  6.029E-04 0.000E+00

     total cpu time spent up to now is    12215.5 secs

     total energy              =  -36817.62936883 Ry
     estimated scf accuracy    <       0.00270867 Ry

     iteration # 13     ecut=    77.00 Ry     beta= 0.20
     Davidson diagonalization with overlap
     ethr =  1.54E-07,  avg # of iterations =  1.0

     negative rho (up, down):  7.197E-04 0.000E+00

     total cpu time spent up to now is    12589.9 secs

     total energy              =  -36817.62845537 Ry
     estimated scf accuracy    <       0.00190908 Ry

     iteration # 14     ecut=    77.00 Ry     beta= 0.20
     Davidson diagonalization with overlap
     ethr =  1.08E-07,  avg # of iterations =  1.5

     negative rho (up, down):  7.928E-04 0.000E+00

     total cpu time spent up to now is    12983.0 secs

     total energy              =  -36817.62821645 Ry
     estimated scf accuracy    <       0.00046103 Ry

     iteration # 15     ecut=    77.00 Ry     beta= 0.20
     Davidson diagonalization with overlap
     c_bands:  2 eigenvalues not converged
     ethr =  2.62E-08,  avg # of iterations = 21.5

     negative rho (up, down):  7.900E-04 0.000E+00

     total cpu time spent up to now is    14176.5 secs

     total energy              =  -36817.62879843 Ry
     estimated scf accuracy    <       0.00048060 Ry

     iteration # 16     ecut=    77.00 Ry     beta= 0.20
     Davidson diagonalization with overlap
     ethr =  2.62E-08,  avg # of iterations =  1.2

     negative rho (up, down):  7.876E-04 0.000E+00

     total cpu time spent up to now is    14559.8 secs

     total energy              =  -36817.62871548 Ry
     estimated scf accuracy    <       0.00020347 Ry

     iteration # 17     ecut=    77.00 Ry     beta= 0.20
     Davidson diagonalization with overlap
     ethr =  1.16E-08,  avg # of iterations = 12.8

     negative rho (up, down):  8.047E-04 0.000E+00

     total cpu time spent up to now is    15241.6 secs

     total energy              =  -36817.62879482 Ry
     estimated scf accuracy    <       0.00002466 Ry

     iteration # 18     ecut=    77.00 Ry     beta= 0.20
     Davidson diagonalization with overlap
     c_bands:  1 eigenvalues not converged
     c_bands:  2 eigenvalues not converged
     ethr =  1.40E-09,  avg # of iterations = 18.5

     negative rho (up, down):  8.305E-04 0.000E+00

     total cpu time spent up to now is    16776.6 secs

     total energy              =  -36817.62883374 Ry
     estimated scf accuracy    <       0.00002472 Ry

     iteration # 19     ecut=    77.00 Ry     beta= 0.20
     Davidson diagonalization with overlap
     ethr =  1.40E-09,  avg # of iterations = 10.2

     negative rho (up, down):  8.359E-04 0.000E+00

     total cpu time spent up to now is    17633.9 secs

     total energy              =  -36817.62884011 Ry
     estimated scf accuracy    <       0.00003071 Ry

     iteration # 20     ecut=    77.00 Ry     beta= 0.20
     Davidson diagonalization with overlap
     ethr =  1.40E-09,  avg # of iterations =  1.2

     negative rho (up, down):  8.397E-04 0.000E+00

     total cpu time spent up to now is    18017.5 secs

     total energy              =  -36817.62883347 Ry
     estimated scf accuracy    <       0.00001096 Ry

     iteration # 21     ecut=    77.00 Ry     beta= 0.20
     Davidson diagonalization with overlap
     ethr =  6.23E-10,  avg # of iterations =  8.0

     negative rho (up, down):  8.537E-04 0.000E+00

     total cpu time spent up to now is    18545.6 secs

     End of self-consistent calculation

          k = 0.0000 0.0000 0.0000 (386245 PWs)   bands (ev):

  -103.1781-103.1735-102.5069 -71.5408 -71.5381 -71.5155 -71.5133 -71.5127
   -71.5107 -71.4760 -71.4734 -71.4612 -71.4586 -71.4350 -71.4322 -71.4295
   -71.4268 -70.8785 -70.8582 -70.8538 -70.8162 -70.8058 -70.7872 -70.7839
   -66.7415 -66.7415 -66.7402 -66.7340 -66.7205 -66.7204 -66.7203 -66.7203
   -66.7203 -66.7202 -66.7202 -66.7202 -66.7202 -66.7201 -66.7201 -66.7199
   -66.7191 -66.7189 -66.7189 -66.7189 -66.7189 -66.7189 -66.7189 -66.7164
   -66.7137 -66.7083 -66.6993 -66.6993 -66.6991 -66.6989 -66.6989 -66.6989
   -66.6989 -66.6988 -66.6988 -66.6988 -66.6988 -66.6988 -66.6988 -66.6988
   -66.6987 -66.6987 -66.6986 -66.6985 -66.6983 -66.6976 -66.6975 -66.6975
   -66.6975 -66.6975 -66.6975 -66.6975 -66.6974 -66.6974 -66.6888 -66.6852
   -66.6822 -66.6778 -66.6757 -66.6745 -66.6672 -66.6667 -66.6632 -66.6507
   -57.5695 -57.5154 -57.3408 -57.3301 -57.2990 -57.2485 -56.8406 -56.6803
   -56.6372 -41.0689 -41.0688 -41.0688 -41.0688 -41.0688 -41.0687 -41.0682
   -41.0682 -41.0682 -41.0496 -41.0487 -41.0440 -40.9936 -40.9936 -40.9935
   -40.9935 -40.9935 -40.9935 -40.9935 -40.9935 -40.9935 -40.9934 -40.9933
   -40.9933 -40.9928 -40.9928 -40.9928 -40.9928 -40.9928 -40.9928 -40.9795
   -40.9776 -40.9692 -40.9678 -40.9598 -40.9546 -40.9299 -40.9056 -40.9012
   -40.9011 -40.9005 -40.8895 -40.8673 -40.8673 -40.8672 -40.8672 -40.8672
   -40.8672 -40.8672 -40.8672 -40.8671 -40.8671 -40.8671 -40.8670 -40.8670
   -40.8664 -40.8664 -40.8663 -40.8663 -40.8663 -40.8663 -40.8615 -40.8598
   -40.8596 -40.8595 -40.8595 -40.8595 -40.8594 -40.8594 -40.8594 -40.8594
   -40.8593 -40.8593 -40.8591 -40.8588 -40.8588 -40.8588 -40.8587 -40.8587
   -40.8587 -40.8579 -40.8566 -40.8510 -40.8502 -40.8452 -40.8404 -40.8375
   -40.8329 -40.8323 -40.8322 -40.8322 -40.8322 -40.8322 -40.8322 -40.8321
   -40.8321 -40.8321 -40.8321 -40.8320 -40.8319 -40.8313 -40.8313 -40.8313
   -40.8313 -40.8313 -40.8312 -40.8312 -40.8248 -40.8191 -40.8190 -40.8181
   -40.8177 -40.8176 -40.8176 -40.8175 -40.8175 -40.8175 -40.8175 -40.8175
   -40.8174 -40.8174 -40.8174 -40.8174 -40.8174 -40.8173 -40.8172 -40.8172
   -40.8172 -40.8169 -40.8168 -40.8168 -40.8168 -40.8168 -40.8167 -40.8167
   -40.8167 -40.8167 -40.8167 -40.8166 -40.8142 -40.8108 -40.8081 -40.8060
   -40.8044 -40.8018 -40.7956 -40.7944 -40.7924 -40.7539 -40.7538 -40.7538
   -40.7538 -40.7537 -40.7537 -40.7529 -40.7529 -40.7529 -40.7304 -40.7283
   -40.7254 -40.7068 -40.7068 -40.7068 -40.7067 -40.7067 -40.7067 -40.7067
   -40.7067 -40.7067 -40.7066 -40.7065 -40.7065 -40.7057 -40.7057 -40.7057
   -40.7057 -40.7057 -40.7057 -40.6850 -40.6841 -40.6811 -40.6781 -40.6731
   -40.6644 -40.6591 -40.6591 -40.6591 -40.6590 -40.6581 -40.6580 -40.6291
   -40.6260 -20.8791 -20.2300 -20.1459 -20.0502 -19.9840 -19.5595 -19.4778
   -19.3988 -19.3914 -19.3653 -19.3568 -19.3524 -19.3504 -19.3410 -19.3390
   -19.3046 -19.2740 -19.2630 -19.2601 -19.2517 -19.2507 -19.2207 -19.1692
   -19.1594 -19.1581 -19.1552 -19.1549 -19.1433 -19.0630 -19.0337 -18.9258
   -18.7589 -18.7172 -18.7013 -18.6944 -18.6745 -18.6244 -18.6224 -18.5916
   -18.5827 -18.5447 -18.5417 -18.5390 -18.5375 -18.5067 -18.4821 -18.4221
   -18.4138 -18.4037 -18.4025 -18.3942 -18.3705 -18.3326 -18.3180 -18.3023
   -18.3023 -18.3005 -18.2920 -18.2837 -18.2730 -18.2414 -18.2412 -18.2375
   -18.2373 -18.2364 -18.2364 -18.2182 -18.2172 -18.2030 -18.2028 -18.1998
   -18.1975 -18.1943 -18.1929 -18.1928 -18.1803 -18.1775 -18.1673 -18.1650
   -18.1648 -18.1534 -18.1526 -18.1487 -18.1404 -18.1299 -18.1262 -18.1259
   -18.1219 -18.1211 -18.1084 -18.1068 -18.1040 -18.0814 -18.0751 -18.0685
   -18.0626 -18.0467 -18.0442 -18.0389 -18.0355 -18.0345 -18.0158 -18.0128
   -18.0108 -18.0028 -17.9948 -17.9900 -17.9891 -17.9863 -17.9862 -17.9757
   -17.9746 -17.9741 -17.9585 -17.9580 -17.9576 -17.9492 -17.9462 -17.9435
   -17.9417 -17.9394 -17.9383 -17.9147 -17.9144 -17.9132 -17.9125 -17.9118
   -17.9118 -12.8477 -12.7001 -12.6744 -12.1416 -12.0562 -11.9253 -11.9224
   -11.9133 -11.8299 -11.8144 -11.8099 -11.7846 -11.7160 -11.7050 -11.6730
   -11.6633 -11.6548 -11.5901 -11.5516 -11.5234 -11.4009 -11.3728 -11.3713
   -11.3573 -11.3532 -11.3507 -11.3365 -11.3241 -11.2617 -11.2526 -11.2502
   -11.2487 -11.2458 -11.2434 -11.2380 -11.2146 -11.2096 -11.1875 -11.1808
   -11.1797 -11.1770 -11.1746 -11.1721 -11.1677 -11.1529 -11.1496 -11.1209
   -11.1083 -11.0919 -11.0849 -11.0821 -11.0716 -11.0630 -11.0518 -11.0409
   -11.0229 -11.0209 -11.0144 -11.0098 -11.0072 -11.0009 -10.9982 -10.9714
   -10.9665 -10.9642 -10.9634 -10.9592 -10.9515 -10.9485 -10.9457 -10.9455
   -10.9435 -10.9405 -10.9332 -10.9271 -10.9242 -10.9064 -10.9013 -10.9012
   -10.8971 -10.8957 -10.8944 -10.8897 -10.8885 -10.8779 -10.8575 -10.8555
   -10.8551 -10.8547 -10.8540 -10.8537 -10.8403 -10.7944 -10.7864 -10.7688
   -10.7422 -10.7273 -10.7193 -10.7122 -10.7045 -10.6915 -10.6719 -10.6064
   -10.4434 -10.3911 -10.3873 -10.3040 -10.2449 -10.2384 -10.1397 -10.1110
   -10.0472 -10.0283  -9.9844  -9.9662  -9.9441  -9.9340  -9.9315  -9.9194
    -9.9015  -9.8979  -9.8943  -9.8884  -9.8875  -9.8835  -9.8766  -9.8721
    -9.8706  -9.8689  -9.8666  -9.8628  -9.8554  -9.8515  -9.8463  -9.8389
    -9.8347  -9.7710  -9.7667  -9.7515  -9.7490  -9.7441  -9.7407  -9.7386
    -9.7369  -9.7352  -9.7342  -9.7333  -9.7251  -9.7128  -9.6910  -9.6817
    -9.6813  -9.6611  -9.6591  -9.6585  -9.6584  -9.6583  -9.6579  -9.6568
    -9.6450  -9.6346  -9.6230  -9.6217  -9.6061  -9.6019  -9.6013  -9.5705
    -9.5463  -9.4958  -9.4954  -9.4867  -9.4816  -9.4794  -9.4752  -9.4680
    -9.4585  -9.4557  -9.4517  -9.4355  -9.4297  -9.4075  -9.3894  -9.3668
    -9.3570  -9.3484  -9.3466  -9.3339  -9.3330  -9.3016  -9.3006  -9.2995
    -9.2981  -9.2971  -9.2941  -9.2805  -9.2590  -9.2507  -9.2365  -9.2319
    -9.2107  -9.1961  -9.1373  -9.1010  -9.0997  -9.0974  -9.0951  -9.0797
    -9.0776  -9.0707  -9.0660  -9.0598  -9.0552  -9.0349  -9.0344  -9.0342
    -9.0327  -9.0319  -9.0182  -9.0151  -8.9975  -8.9971  -8.9715  -8.9402
    -8.9387  -8.9384  -8.9378  -8.9378  -8.9354  -8.9038  -8.8783  -8.8665
    -8.8626  -8.8596  -8.8345  -8.8128  -8.7882  -8.7845  -8.7805  -8.7791
    -8.7602  -8.7557  -8.7107  -8.7105  -8.7090  -8.7087  -8.7056  -8.7050
    -8.6653  -8.6646  -8.6219  -8.5318  -8.5046  -8.4842  -8.4833  -8.4828
    -8.4780  -8.4774  -8.4717  -8.4715  -8.4378  -8.4343  -8.4016  -8.3941
    -8.3927  -8.3926  -8.3924  -8.3919  -8.3866  -8.3786  -8.3661  -8.3659
    -8.3652  -8.3647  -8.3619  -8.3610  -8.3379  -8.3379  -8.3374  -8.3373
    -8.3368  -8.3362  -8.2335  -8.2138  -8.1246  -8.1168  -7.9838  -7.9784
    -7.9750  -7.9748  -7.9544  -7.9206  -7.9004  -7.8896  -7.8862  -7.8449
    -7.8184  -7.8016  -7.7669  -7.7655  -7.7584  -7.7561  -7.7305  -7.7299
    -7.7245  -7.7234  -7.7157  -7.7154  -7.6892  -7.6828  -7.6791  -7.6523
    -7.6517  -7.6510  -7.6504  -7.6499  -7.6494  -7.6395  -7.6324  -7.6255
    -7.6253  -7.6241  -7.6234  -7.6229  -7.6220  -7.6173  -7.6047  -7.5996
    -7.5995  -7.5988  -7.5986  -7.5986  -7.5978  -7.5799  -7.5683  -7.5487
    -7.5473  -7.5420  -7.5384  -7.5226  -7.5169  -7.5065  -7.4958  -7.4868
    -7.4827  -7.4762  -7.4594  -7.4587  -7.4410  -7.4369  -7.4214  -7.4210
    -7.4127  -7.4107  -7.4031  -7.3984  -7.3790  -7.3675  -7.3675  -7.3491
    -7.3490  -7.3354  -7.3307  -7.3306  -7.3077  -7.2747  -7.2713  -7.2488
    -7.2439  -7.2236  -7.2098  -7.1859  -7.1245  -7.0406  -7.0183  -7.0039
    -6.9961  -6.9861  -6.9367  -6.9298  -6.9075  -6.8971  -6.8969  -6.8959
    -6.8657  -6.8507  -6.8164  -6.8163  -6.8144  -6.8055  -6.7961  -6.7934
    -6.7411  -6.7396  -6.7388  -6.7350  -6.7036  -6.7022  -6.6954  -6.6892
    -6.6874  -6.6777  -6.6574  -6.6479  -6.6410  -6.6322  -6.6308  -6.6299
    -6.6266  -6.6265  -6.6235  -6.6160  -6.6156  -6.6155  -6.6144  -6.6144
    -6.6141  -6.6137  -6.6119  -6.6027  -6.5729  -6.5652  -6.5641  -6.5455
    -6.5326  -6.5289  -6.5286  -6.5259  -6.5257  -6.4964  -6.4719  -6.4601
    -6.4542  -6.4493  -6.4485  -6.4470  -6.4429  -6.4427  -6.4282  -6.4151
    -6.4094  -6.4064  -6.4050  -6.4029  -6.3962  -6.3827  -6.3714  -6.3696
    -6.3692  -6.3685  -6.3671  -6.3629  -6.3050  -6.2183  -6.1787  -6.0627
    -5.7980  -5.7678  -5.6806  -5.5784  -5.5336  -5.4282  -5.2778  -5.2694
    -4.4084  -4.2851  -4.0738  -3.9687  -3.9681  -3.9620  -3.9533  -3.9497
    -3.9468  -3.9431  -3.9429  -3.9417  -3.9247  -3.9120  -3.8957  -3.8207
    -3.8158  -3.8102  -3.8081  -3.8069  -3.8041  -3.7925  -3.7904  -3.7881
    -3.7072  -3.6990  -3.6796  -3.6393  -3.6316  -3.6271  -3.6236  -3.6150
    -3.6069  -3.5958  -3.5887  -3.5881  -3.5840  -3.5831  -3.5804  -3.5779
    -3.5720  -3.5624  -3.5585  -3.5581  -3.5580  -3.5562  -3.5502  -3.5436
    -3.5425  -3.5390  -3.5281  -3.5251  -3.5249  -3.5240  -3.5205  -3.5164
    -3.5146  -3.5023  -3.5002  -3.4976  -3.4798  -3.4788  -3.4749  -3.4697
    -3.4670  -3.4605  -3.4582  -3.4541  -3.4525  -3.4379  -3.4301  -3.4280
    -3.4177  -3.4082  -3.4063  -3.3991  -3.3971  -3.3940  -3.3482  -3.3475
    -3.3251  -3.3225  -3.3157  -3.3116  -3.2365  -3.2155  -3.2042  -3.1841
    -3.1830  -3.1756  -3.1751  -3.1702  -3.1642  -3.1634  -3.1506  -3.1468
    -3.1235  -3.1067  -3.1061  -3.0954  -3.0902  -3.0887  -3.0861  -3.0849
    -3.0813  -3.0808  -3.0791  -3.0787  -3.0737  -3.0696  -3.0690  -3.0568
    -3.0546  -3.0531  -3.0504  -3.0498  -3.0484  -3.0479  -3.0452  -3.0440
    -3.0399  -3.0378  -3.0279  -3.0152  -3.0093  -2.9971  -2.9943  -2.9892
    -2.9883  -2.9879  -2.9804  -2.9405  -2.9224  -2.9223  -2.9222  -2.9220
    -2.9219  -2.9218  -2.9193  -2.9191  -2.9170  -2.9028  -2.8987  -2.8910
    -2.8740  -2.8582  -2.8499  -2.8398  -2.8345  -2.8312  -2.7950  -2.7892
    -2.7585  -2.7571  -2.7514  -2.7501  -2.7413  -2.7401  -2.7342  -2.7318
    -2.7233  -2.6877  -2.6786  -2.6596  -2.6541  -2.6489  -2.5807  -2.5764
    -2.5742  -2.5700  -2.5523  -2.5347  -2.5319  -2.5247  -2.5207  -2.5201

          k = 0.0000-0.5773 0.0000 (386352 PWs)   bands (ev):

  -103.1781-103.1735-102.5069 -71.5408 -71.5382 -71.5155 -71.5133 -71.5128
   -71.5107 -71.4760 -71.4734 -71.4612 -71.4586 -71.4349 -71.4322 -71.4295
   -71.4268 -70.8785 -70.8582 -70.8538 -70.8162 -70.8058 -70.7872 -70.7839
   -66.7354 -66.7353 -66.7353 -66.7351 -66.7340 -66.7340 -66.7329 -66.7247
   -66.7246 -66.7246 -66.7246 -66.7233 -66.7233 -66.7222 -66.7145 -66.7140
   -66.7096 -66.7096 -66.7095 -66.7095 -66.7095 -66.7095 -66.7095 -66.7094
   -66.7086 -66.7082 -66.7082 -66.7082 -66.7082 -66.7052 -66.7051 -66.7051
   -66.7049 -66.7038 -66.7038 -66.6991 -66.6989 -66.6988 -66.6988 -66.6988
   -66.6988 -66.6988 -66.6987 -66.6985 -66.6975 -66.6975 -66.6975 -66.6975
   -66.6944 -66.6944 -66.6944 -66.6943 -66.6931 -66.6931 -66.6880 -66.6857
   -66.6817 -66.6781 -66.6758 -66.6718 -66.6693 -66.6689 -66.6617 -66.6506
   -57.5695 -57.5154 -57.3408 -57.3301 -57.2990 -57.2485 -56.8406 -56.6803
   -56.6372 -41.0373 -41.0372 -41.0372 -41.0372 -41.0372 -41.0372 -41.0372
   -41.0370 -41.0365 -41.0365 -41.0365 -41.0365 -41.0300 -41.0237 -41.0125
   -41.0105 -41.0104 -41.0104 -41.0102 -41.0097 -41.0097 -41.0029 -40.9983
   -40.9983 -40.9983 -40.9983 -40.9977 -40.9977 -40.9878 -40.9860 -40.9709
   -40.9636 -40.9477 -40.9476 -40.9476 -40.9476 -40.9476 -40.9476 -40.9476
   -40.9476 -40.9469 -40.9469 -40.9469 -40.9469 -40.9307 -40.9248 -40.9236
   -40.9171 -40.9169 -40.9057 -40.8911 -40.8892 -40.8890 -40.8889 -40.8888
   -40.8883 -40.8883 -40.8794 -40.8794 -40.8794 -40.8793 -40.8785 -40.8785
   -40.8758 -40.8681 -40.8681 -40.8681 -40.8681 -40.8674 -40.8674 -40.8582
   -40.8557 -40.8553 -40.8483 -40.8448 -40.8386 -40.8386 -40.8385 -40.8385
   -40.8385 -40.8385 -40.8384 -40.8384 -40.8378 -40.8378 -40.8378 -40.8378
   -40.8331 -40.8299 -40.8298 -40.8297 -40.8296 -40.8290 -40.8290 -40.8279
   -40.8228 -40.8221 -40.8179 -40.8179 -40.8179 -40.8178 -40.8177 -40.8176
   -40.8175 -40.8174 -40.8174 -40.8174 -40.8174 -40.8170 -40.8170 -40.8170
   -40.8167 -40.8167 -40.8167 -40.8167 -40.8163 -40.8112 -40.8101 -40.8088
   -40.8088 -40.8088 -40.8088 -40.8080 -40.8080 -40.8076 -40.7983 -40.7966
   -40.7879 -40.7872 -40.7870 -40.7870 -40.7870 -40.7869 -40.7869 -40.7867
   -40.7867 -40.7860 -40.7860 -40.7860 -40.7860 -40.7692 -40.7608 -40.7596
   -40.7562 -40.7522 -40.7522 -40.7522 -40.7522 -40.7522 -40.7522 -40.7522
   -40.7521 -40.7513 -40.7513 -40.7512 -40.7512 -40.7401 -40.7401 -40.7400
   -40.7399 -40.7391 -40.7391 -40.7323 -40.7260 -40.7241 -40.7209 -40.7208
   -40.7207 -40.7205 -40.7199 -40.7198 -40.7198 -40.7140 -40.7038 -40.7038
   -40.7037 -40.7037 -40.7028 -40.7028 -40.7011 -40.6960 -40.6915 -40.6741
   -40.6731 -40.6731 -40.6731 -40.6730 -40.6721 -40.6721 -40.6705 -40.6497
   -40.6326 -20.8679 -20.0300 -19.9915 -19.9689 -19.9061 -19.8701 -19.8070
   -19.7687 -19.7437 -19.6259 -19.5570 -19.5424 -19.4884 -19.4477 -19.4125
   -19.3454 -19.3370 -19.0794 -19.0170 -18.9698 -18.9178 -18.8765 -18.8420
   -18.8386 -18.8373 -18.8367 -18.8348 -18.8044 -18.7784 -18.7737 -18.7727
   -18.7648 -18.7520 -18.7448 -18.6985 -18.6736 -18.6735 -18.6701 -18.6653
   -18.6552 -18.6296 -18.6283 -18.6144 -18.5952 -18.5878 -18.5597 -18.5370
   -18.5294 -18.5235 -18.5170 -18.5014 -18.4922 -18.4714 -18.4643 -18.4528
   -18.4399 -18.4362 -18.3746 -18.3691 -18.3625 -18.3314 -18.3277 -18.3095
   -18.3052 -18.2871 -18.2751 -18.2482 -18.2315 -18.2291 -18.2172 -18.2158
   -18.2152 -18.2131 -18.1944 -18.1887 -18.1881 -18.1878 -18.1843 -18.1822
   -18.1781 -18.1698 -18.1628 -18.1597 -18.1480 -18.1313 -18.1277 -18.1239
   -18.1189 -18.1176 -18.1166 -18.1124 -18.1088 -18.1061 -18.0951 -18.0778
   -18.0692 -18.0543 -18.0533 -18.0504 -18.0396 -18.0144 -18.0126 -18.0018
   -17.9943 -17.9840 -17.9768 -17.9658 -17.9604 -17.9543 -17.9530 -17.9365
   -17.9355 -17.9346 -17.9345 -17.9334 -17.9327 -17.9213 -17.9201 -17.9021
   -17.8996 -17.8775 -17.8755 -17.8584 -17.8560 -17.8434 -17.8421 -17.8355
   -17.8354 -12.8104 -12.6675 -12.6508 -11.9638 -11.8582 -11.8055 -11.7605
   -11.7409 -11.6668 -11.6317 -11.6218 -11.6191 -11.6095 -11.6001 -11.5867
   -11.5651 -11.5589 -11.5534 -11.5164 -11.5102 -11.5035 -11.4752 -11.4652
   -11.4509 -11.4423 -11.4369 -11.4274 -11.4035 -11.3952 -11.3837 -11.3814
   -11.3723 -11.3712 -11.3582 -11.3519 -11.3300 -11.3224 -11.3200 -11.3173
   -11.2986 -11.2923 -11.2825 -11.2808 -11.2779 -11.2702 -11.2634 -11.2618
   -11.2486 -11.2271 -11.2021 -11.2008 -11.1958 -11.1612 -11.1572 -11.0917
   -11.0826 -11.0726 -11.0563 -11.0533 -11.0328 -11.0282 -11.0143 -11.0110
   -10.9870 -10.9647 -10.9570 -10.9519 -10.9507 -10.9366 -10.9283 -10.9282
   -10.9270 -10.9265 -10.9238 -10.9177 -10.9157 -10.9089 -10.9089 -10.9052
   -10.9016 -10.8999 -10.8978 -10.8959 -10.8611 -10.8601 -10.8593 -10.8591
   -10.8196 -10.7611 -10.6954 -10.6588 -10.6572 -10.6449 -10.6218 -10.5949
   -10.5766 -10.5387 -10.5224 -10.4796 -10.4783 -10.3884 -10.3472 -10.2970
   -10.2838 -10.2581 -10.2405 -10.2313 -10.2302 -10.2157 -10.1906 -10.1756
   -10.1616 -10.1561 -10.1501 -10.1458 -10.1453 -10.1345 -10.1280 -10.1127
   -10.0941 -10.0655 -10.0592 -10.0395 -10.0351 -10.0211 -10.0210 -10.0126
   -10.0065 -10.0036  -9.9737  -9.9572  -9.9329  -9.9242  -9.9206  -9.9014
    -9.8965  -9.8841  -9.8748  -9.8725  -9.8414  -9.8326  -9.8127  -9.7975
    -9.7837  -9.7651  -9.7632  -9.7555  -9.7420  -9.7269  -9.7212  -9.6987
    -9.6971  -9.6874  -9.6865  -9.6668  -9.6657  -9.6483  -9.6123  -9.6100
    -9.6047  -9.6034  -9.5982  -9.5925  -9.5793  -9.5785  -9.5761  -9.5652
    -9.5555  -9.5497  -9.5341  -9.5206  -9.4865  -9.4797  -9.4641  -9.4108
    -9.3876  -9.3738  -9.3518  -9.3495  -9.3385  -9.3315  -9.3203  -9.3024
    -9.2896  -9.2857  -9.2628  -9.2616  -9.2410  -9.2404  -9.2187  -9.2130
    -9.1892  -9.1863  -9.1736  -9.1728  -9.1563  -9.1561  -9.1335  -9.1136
    -9.1066  -9.0824  -9.0779  -9.0723  -9.0719  -9.0596  -9.0460  -9.0394
    -9.0203  -9.0170  -9.0153  -9.0070  -9.0063  -9.0048  -9.0010  -9.0001
    -8.9891  -8.9852  -8.9841  -8.9794  -8.9746  -8.9677  -8.9667  -8.9662
    -8.9561  -8.9553  -8.9420  -8.9176  -8.9099  -8.9095  -8.9057  -8.9056
    -8.9003  -8.8909  -8.8797  -8.8779  -8.8663  -8.8593  -8.8496  -8.8482
    -8.8476  -8.8354  -8.8235  -8.7989  -8.7748  -8.7709  -8.7702  -8.7218
    -8.7032  -8.6604  -8.6208  -8.6193  -8.5719  -8.5667  -8.5559  -8.5190
    -8.4964  -8.4789  -8.4611  -8.4300  -8.3892  -8.3578  -8.3258  -8.2560
    -8.2447  -8.2434  -8.2399  -8.2342  -8.2315  -8.2310  -8.2230  -8.2220
    -8.1810  -8.1564  -8.1459  -8.0863  -8.0851  -8.0335  -8.0013  -7.9824
    -7.9782  -7.9574  -7.9566  -7.9533  -7.9445  -7.9369  -7.9355  -7.9286
    -7.9253  -7.9224  -7.9159  -7.9141  -7.9081  -7.9070  -7.9055  -7.8974
    -7.8971  -7.8865  -7.8858  -7.8856  -7.8835  -7.8812  -7.8794  -7.8788
    -7.8748  -7.8742  -7.8723  -7.8635  -7.8618  -7.8479  -7.8469  -7.8456
    -7.8432  -7.8134  -7.8130  -7.8125  -7.8124  -7.7834  -7.7826  -7.7823
    -7.7808  -7.7725  -7.7707  -7.7587  -7.7514  -7.7463  -7.7383  -7.7255
    -7.7244  -7.7234  -7.7208  -7.7124  -7.7018  -7.7006  -7.6865  -7.6856
    -7.6808  -7.6795  -7.6790  -7.6746  -7.6659  -7.6167  -7.6049  -7.5876
    -7.5793  -7.5755  -7.5650  -7.5575  -7.5416  -7.5145  -7.4718  -7.4207
    -7.3646  -7.3351  -7.3169  -7.2867  -7.2859  -7.2840  -7.2782  -7.2402
    -7.2396  -7.2299  -7.2289  -7.2105  -7.1975  -7.1858  -7.1693  -7.1505
    -7.1479  -7.1378  -7.1335  -7.1197  -7.0924  -7.0840  -7.0639  -7.0458
    -7.0315  -7.0266  -7.0057  -7.0034  -7.0020  -6.9925  -6.9768  -6.9752
    -6.9740  -6.9536  -6.9147  -6.9055  -6.8938  -6.8869  -6.8733  -6.8455
    -6.8289  -6.7989  -6.7899  -6.7851  -6.7502  -6.7455  -6.7363  -6.7333
    -6.7220  -6.7216  -6.7203  -6.7192  -6.7076  -6.7040  -6.7030  -6.7025
    -6.6974  -6.6949  -6.6947  -6.6946  -6.6928  -6.6497  -6.6265  -6.6215
    -6.5841  -6.5448  -6.5316  -6.4623  -6.4449  -6.4437  -6.4376  -6.4341
    -6.4336  -6.4325  -6.4155  -6.3937  -6.3929  -6.3927  -6.3886  -6.3882
    -6.3749  -6.3734  -6.3688  -6.3555  -6.3419  -6.3234  -6.3220  -6.3200
    -6.3108  -6.3025  -6.2398  -6.2243  -6.1829  -6.1113  -6.1042  -6.0704
    -6.0436  -6.0206  -6.0120  -5.9716  -5.9645  -5.9384  -5.8914  -5.8148
    -5.7917  -5.7210  -5.7133  -5.7103  -5.6434  -5.5371  -5.4862  -5.3136
    -4.3959  -4.3520  -4.2320  -4.2035  -4.1839  -4.1526  -4.1043  -4.0424
    -4.0363  -4.0305  -3.9858  -3.9703  -3.9582  -3.9522  -3.9453  -3.9323
    -3.9313  -3.9229  -3.9162  -3.9133  -3.9086  -3.8501  -3.8485  -3.8070
    -3.7549  -3.7540  -3.7332  -3.7162  -3.7157  -3.7112  -3.7061  -3.6763
    -3.6688  -3.6636  -3.6604  -3.6475  -3.6427  -3.6321  -3.6224  -3.6145
    -3.6083  -3.5999  -3.5968  -3.5914  -3.5885  -3.5766  -3.5711  -3.5652
    -3.5627  -3.5574  -3.5550  -3.5405  -3.5242  -3.5235  -3.5186  -3.4846
    -3.4741  -3.4701  -3.4647  -3.4581  -3.4568  -3.4518  -3.4511  -3.4337
    -3.4323  -3.4137  -3.4081  -3.4018  -3.3948  -3.3937  -3.3911  -3.3888
    -3.3856  -3.3797  -3.3703  -3.3611  -3.3556  -3.3535  -3.3498  -3.3373
    -3.3308  -3.3281  -3.3254  -3.3229  -3.3112  -3.3038  -3.3021  -3.2989
    -3.2904  -3.2787  -3.2761  -3.2760  -3.2757  -3.2580  -3.2404  -3.2249
    -3.2117  -3.2027  -3.1883  -3.1880  -3.1813  -3.1723  -3.1525  -3.1407
    -3.1397  -3.1374  -3.1373  -3.1354  -3.1325  -3.1316  -3.1272  -3.1239
    -3.1218  -3.1184  -3.1125  -3.1067  -3.0990  -3.0975  -3.0934  -3.0892
    -3.0862  -3.0784  -3.0780  -3.0763  -3.0638  -3.0607  -3.0600  -3.0529
    -3.0523  -3.0452  -3.0421  -3.0335  -3.0217  -3.0149  -3.0023  -2.9978
    -2.9906  -2.9839  -2.9826  -2.9734  -2.9247  -2.9098  -2.9075  -2.8904
    -2.8743  -2.8559  -2.8461  -2.8322  -2.8045  -2.7553  -2.7236  -2.7149
    -2.7081  -2.6904  -2.6886  -2.6692  -2.6611  -2.6469  -2.6435  -2.6408
    -2.6398  -2.6292  -2.6241  -2.5886  -2.5811  -2.5266  -2.5175  -2.5160
    -2.5107  -2.5024  -2.5016  -2.4932  -2.4856  -2.4574  -2.4551  -2.4454

          k =-0.5000-0.2887 0.0000 (386352 PWs)   bands (ev):

  -103.1781-103.1735-102.5069 -71.5408 -71.5382 -71.5155 -71.5133 -71.5128
   -71.5107 -71.4760 -71.4734 -71.4612 -71.4586 -71.4350 -71.4322 -71.4295
   -71.4268 -70.8785 -70.8582 -70.8538 -70.8162 -70.8058 -70.7872 -70.7839
   -66.7354 -66.7353 -66.7353 -66.7352 -66.7340 -66.7340 -66.7330 -66.7247
   -66.7246 -66.7246 -66.7246 -66.7233 -66.7233 -66.7211 -66.7169 -66.7127
   -66.7096 -66.7096 -66.7095 -66.7095 -66.7095 -66.7095 -66.7095 -66.7094
   -66.7088 -66.7082 -66.7082 -66.7082 -66.7082 -66.7052 -66.7051 -66.7051
   -66.7050 -66.7038 -66.7037 -66.6991 -66.6989 -66.6988 -66.6988 -66.6988
   -66.6988 -66.6987 -66.6986 -66.6983 -66.6975 -66.6975 -66.6975 -66.6975
   -66.6944 -66.6944 -66.6944 -66.6943 -66.6931 -66.6930 -66.6882 -66.6853
   -66.6818 -66.6782 -66.6759 -66.6723 -66.6713 -66.6655 -66.6628 -66.6506
   -57.5695 -57.5154 -57.3408 -57.3301 -57.2990 -57.2485 -56.8406 -56.6803
   -56.6372 -41.0374 -41.0373 -41.0372 -41.0372 -41.0372 -41.0372 -41.0371
   -41.0370 -41.0366 -41.0366 -41.0365 -41.0365 -41.0275 -41.0182 -41.0113
   -41.0105 -41.0104 -41.0104 -41.0103 -41.0097 -41.0097 -41.0066 -40.9995
   -40.9983 -40.9983 -40.9983 -40.9983 -40.9977 -40.9977 -40.9894 -40.9705
   -40.9586 -40.9477 -40.9477 -40.9476 -40.9476 -40.9476 -40.9476 -40.9476
   -40.9476 -40.9469 -40.9469 -40.9469 -40.9469 -40.9298 -40.9238 -40.9205
   -40.9178 -40.9130 -40.9077 -40.8891 -40.8890 -40.8889 -40.8888 -40.8883
   -40.8883 -40.8859 -40.8794 -40.8794 -40.8794 -40.8793 -40.8786 -40.8785
   -40.8785 -40.8681 -40.8681 -40.8681 -40.8681 -40.8674 -40.8674 -40.8636
   -40.8568 -40.8532 -40.8461 -40.8413 -40.8386 -40.8386 -40.8385 -40.8385
   -40.8385 -40.8385 -40.8384 -40.8384 -40.8378 -40.8378 -40.8378 -40.8378
   -40.8338 -40.8301 -40.8299 -40.8298 -40.8297 -40.8296 -40.8291 -40.8290
   -40.8239 -40.8195 -40.8179 -40.8179 -40.8179 -40.8179 -40.8178 -40.8178
   -40.8175 -40.8175 -40.8175 -40.8174 -40.8174 -40.8173 -40.8172 -40.8170
   -40.8170 -40.8167 -40.8167 -40.8167 -40.8167 -40.8142 -40.8104 -40.8088
   -40.8088 -40.8088 -40.8088 -40.8080 -40.8080 -40.8039 -40.8004 -40.7976
   -40.7871 -40.7870 -40.7870 -40.7869 -40.7869 -40.7869 -40.7869 -40.7869
   -40.7868 -40.7860 -40.7860 -40.7860 -40.7860 -40.7710 -40.7673 -40.7575
   -40.7533 -40.7522 -40.7522 -40.7522 -40.7522 -40.7522 -40.7522 -40.7521
   -40.7521 -40.7513 -40.7513 -40.7512 -40.7512 -40.7401 -40.7401 -40.7400
   -40.7399 -40.7391 -40.7391 -40.7287 -40.7275 -40.7241 -40.7215 -40.7208
   -40.7208 -40.7207 -40.7207 -40.7198 -40.7198 -40.7153 -40.7038 -40.7038
   -40.7038 -40.7038 -40.7037 -40.7028 -40.7028 -40.6997 -40.6827 -40.6732
   -40.6731 -40.6730 -40.6729 -40.6729 -40.6721 -40.6720 -40.6688 -40.6463
   -40.6384 -20.8684 -20.0175 -19.9921 -19.9620 -19.9094 -19.8660 -19.8177
   -19.7676 -19.7538 -19.6549 -19.5557 -19.5451 -19.4801 -19.4507 -19.3936
   -19.3466 -19.3283 -19.0314 -19.0128 -18.9910 -18.9487 -18.8728 -18.8425
   -18.8377 -18.8373 -18.8368 -18.8291 -18.8194 -18.7824 -18.7765 -18.7681
   -18.7632 -18.7486 -18.7365 -18.6992 -18.6738 -18.6731 -18.6725 -18.6707
   -18.6532 -18.6350 -18.6235 -18.6165 -18.5940 -18.5881 -18.5580 -18.5524
   -18.5301 -18.5260 -18.5216 -18.5011 -18.4829 -18.4591 -18.4580 -18.4527
   -18.4452 -18.4369 -18.3748 -18.3719 -18.3630 -18.3389 -18.3214 -18.3113
   -18.3073 -18.2891 -18.2697 -18.2496 -18.2328 -18.2256 -18.2171 -18.2155
   -18.2150 -18.2124 -18.1955 -18.1901 -18.1888 -18.1873 -18.1844 -18.1819
   -18.1767 -18.1702 -18.1637 -18.1579 -18.1456 -18.1299 -18.1277 -18.1241
   -18.1185 -18.1181 -18.1168 -18.1125 -18.1073 -18.1052 -18.0943 -18.0749
   -18.0669 -18.0542 -18.0537 -18.0500 -18.0374 -18.0159 -18.0096 -18.0041
   -17.9927 -17.9874 -17.9781 -17.9633 -17.9623 -17.9570 -17.9548 -17.9360
   -17.9357 -17.9351 -17.9347 -17.9339 -17.9330 -17.9209 -17.9206 -17.9013
   -17.9005 -17.8770 -17.8760 -17.8579 -17.8562 -17.8432 -17.8420 -17.8355
   -17.8353 -12.8234 -12.6586 -12.6398 -11.9835 -11.8508 -11.8115 -11.7610
   -11.7469 -11.6421 -11.6271 -11.6206 -11.6175 -11.6107 -11.5982 -11.5923
   -11.5764 -11.5522 -11.5378 -11.5207 -11.5123 -11.5044 -11.4913 -11.4732
   -11.4519 -11.4378 -11.4271 -11.4238 -11.4075 -11.3929 -11.3896 -11.3788
   -11.3737 -11.3709 -11.3691 -11.3428 -11.3295 -11.3215 -11.3169 -11.3148
   -11.3038 -11.2910 -11.2874 -11.2790 -11.2730 -11.2659 -11.2628 -11.2623
   -11.2501 -11.2299 -11.2056 -11.1953 -11.1888 -11.1745 -11.1401 -11.0949
   -11.0821 -11.0734 -11.0636 -11.0566 -11.0354 -11.0240 -11.0006 -10.9999
   -10.9796 -10.9672 -10.9583 -10.9534 -10.9492 -10.9403 -10.9330 -10.9278
   -10.9269 -10.9266 -10.9256 -10.9202 -10.9178 -10.9092 -10.9085 -10.9052
   -10.9009 -10.8984 -10.8979 -10.8951 -10.8640 -10.8600 -10.8592 -10.8591
   -10.8474 -10.7695 -10.6796 -10.6708 -10.6575 -10.6467 -10.6323 -10.6055
   -10.5786 -10.5508 -10.5181 -10.4877 -10.4327 -10.3790 -10.3420 -10.2879
   -10.2740 -10.2648 -10.2426 -10.2308 -10.2261 -10.2208 -10.2138 -10.1720
   -10.1609 -10.1560 -10.1519 -10.1487 -10.1462 -10.1457 -10.1213 -10.1078
   -10.0956 -10.0638 -10.0539 -10.0449 -10.0341 -10.0235 -10.0188 -10.0132
   -10.0078 -10.0057  -9.9806  -9.9599  -9.9355  -9.9218  -9.9121  -9.9017
    -9.8963  -9.8871  -9.8804  -9.8666  -9.8419  -9.8309  -9.8143  -9.7982
    -9.7828  -9.7734  -9.7649  -9.7576  -9.7399  -9.7319  -9.7194  -9.7000
    -9.6974  -9.6843  -9.6750  -9.6713  -9.6624  -9.6555  -9.6133  -9.6098
    -9.6042  -9.6014  -9.5996  -9.5927  -9.5796  -9.5787  -9.5757  -9.5589
    -9.5551  -9.5468  -9.5302  -9.5148  -9.4947  -9.4770  -9.4510  -9.4009
    -9.3919  -9.3625  -9.3539  -9.3386  -9.3325  -9.3314  -9.3159  -9.3002
    -9.2906  -9.2798  -9.2651  -9.2628  -9.2512  -9.2317  -9.2093  -9.1984
    -9.1937  -9.1760  -9.1744  -9.1659  -9.1594  -9.1506  -9.1349  -9.1258
    -9.1117  -9.0889  -9.0795  -9.0772  -9.0674  -9.0629  -9.0582  -9.0537
    -9.0220  -9.0155  -9.0121  -9.0073  -9.0057  -9.0025  -9.0001  -8.9991
    -8.9869  -8.9860  -8.9848  -8.9822  -8.9745  -8.9711  -8.9651  -8.9559
    -8.9557  -8.9524  -8.9405  -8.9176  -8.9100  -8.9094  -8.9085  -8.9069
    -8.9022  -8.8977  -8.8799  -8.8787  -8.8706  -8.8517  -8.8503  -8.8492
    -8.8481  -8.8344  -8.8137  -8.7931  -8.7833  -8.7812  -8.7717  -8.7264
    -8.7016  -8.6791  -8.6212  -8.6196  -8.6119  -8.5650  -8.5600  -8.5079
    -8.4818  -8.4758  -8.4634  -8.4128  -8.4002  -8.3415  -8.3238  -8.2504
    -8.2435  -8.2434  -8.2390  -8.2345  -8.2343  -8.2232  -8.2231  -8.1877
    -8.1788  -8.1623  -8.1406  -8.0857  -8.0831  -8.0311  -8.0129  -8.0025
    -7.9904  -7.9686  -7.9581  -7.9508  -7.9489  -7.9406  -7.9379  -7.9356
    -7.9284  -7.9225  -7.9175  -7.9157  -7.9139  -7.9067  -7.9047  -7.8975
    -7.8970  -7.8861  -7.8855  -7.8846  -7.8831  -7.8811  -7.8805  -7.8772
    -7.8744  -7.8742  -7.8707  -7.8636  -7.8569  -7.8491  -7.8460  -7.8455
    -7.8418  -7.8144  -7.8128  -7.8128  -7.8121  -7.7848  -7.7829  -7.7821
    -7.7810  -7.7791  -7.7733  -7.7631  -7.7491  -7.7467  -7.7333  -7.7328
    -7.7246  -7.7239  -7.7209  -7.7135  -7.7023  -7.7011  -7.7002  -7.6854
    -7.6801  -7.6798  -7.6780  -7.6691  -7.6617  -7.6524  -7.6035  -7.5832
    -7.5782  -7.5747  -7.5663  -7.5591  -7.5400  -7.5254  -7.4670  -7.4585
    -7.3446  -7.3139  -7.2921  -7.2874  -7.2824  -7.2746  -7.2701  -7.2410
    -7.2359  -7.2262  -7.2204  -7.2117  -7.1958  -7.1793  -7.1626  -7.1544
    -7.1434  -7.1359  -7.1320  -7.1229  -7.0926  -7.0886  -7.0771  -7.0465
    -7.0325  -7.0300  -7.0261  -7.0036  -7.0006  -6.9792  -6.9756  -6.9726
    -6.9618  -6.9516  -6.9258  -6.8985  -6.8910  -6.8843  -6.8738  -6.8413
    -6.8244  -6.8033  -6.7809  -6.7734  -6.7502  -6.7428  -6.7344  -6.7224
    -6.7216  -6.7202  -6.7197  -6.7068  -6.7044  -6.7031  -6.7026  -6.6972
    -6.6951  -6.6947  -6.6946  -6.6933  -6.6910  -6.6778  -6.6283  -6.6201
    -6.5788  -6.5512  -6.5358  -6.4956  -6.4635  -6.4410  -6.4347  -6.4336
    -6.4324  -6.4209  -6.4073  -6.3933  -6.3931  -6.3899  -6.3882  -6.3874
    -6.3754  -6.3737  -6.3707  -6.3585  -6.3465  -6.3236  -6.3211  -6.3211
    -6.3138  -6.2814  -6.2400  -6.1948  -6.1912  -6.1352  -6.1047  -6.0963
    -6.0421  -6.0307  -6.0074  -5.9741  -5.9666  -5.9395  -5.8906  -5.8279
    -5.7828  -5.7256  -5.7170  -5.6991  -5.6533  -5.5323  -5.4850  -5.3043
    -4.4147  -4.3361  -4.2219  -4.2088  -4.1830  -4.1542  -4.0865  -4.0413
    -4.0357  -4.0349  -3.9841  -3.9674  -3.9578  -3.9506  -3.9454  -3.9364
    -3.9299  -3.9256  -3.9144  -3.9134  -3.8928  -3.8552  -3.8446  -3.8050
    -3.7611  -3.7483  -3.7284  -3.7189  -3.7140  -3.7129  -3.7046  -3.6724
    -3.6705  -3.6643  -3.6611  -3.6423  -3.6387  -3.6348  -3.6224  -3.6200
    -3.6149  -3.6014  -3.6003  -3.5900  -3.5868  -3.5745  -3.5734  -3.5681
    -3.5637  -3.5580  -3.5411  -3.5403  -3.5329  -3.5234  -3.5173  -3.4920
    -3.4731  -3.4708  -3.4638  -3.4617  -3.4574  -3.4559  -3.4510  -3.4367
    -3.4260  -3.4111  -3.4093  -3.4006  -3.3974  -3.3946  -3.3922  -3.3914
    -3.3879  -3.3744  -3.3676  -3.3643  -3.3603  -3.3502  -3.3478  -3.3426
    -3.3302  -3.3276  -3.3259  -3.3204  -3.3178  -3.3125  -3.2997  -3.2961
    -3.2861  -3.2805  -3.2765  -3.2754  -3.2751  -3.2557  -3.2443  -3.2219
    -3.2119  -3.2048  -3.1935  -3.1838  -3.1785  -3.1747  -3.1499  -3.1479
    -3.1386  -3.1369  -3.1359  -3.1353  -3.1327  -3.1293  -3.1265  -3.1237
    -3.1227  -3.1180  -3.1068  -3.1061  -3.1027  -3.0999  -3.0934  -3.0910
    -3.0839  -3.0799  -3.0765  -3.0731  -3.0631  -3.0608  -3.0583  -3.0577
    -3.0484  -3.0451  -3.0421  -3.0340  -3.0194  -3.0121  -3.0061  -2.9992
    -2.9954  -2.9880  -2.9877  -2.9646  -2.9186  -2.9142  -2.9067  -2.9002
    -2.8952  -2.8603  -2.8463  -2.8287  -2.7782  -2.7465  -2.7298  -2.7099
    -2.7054  -2.6864  -2.6826  -2.6670  -2.6593  -2.6559  -2.6456  -2.6426
    -2.6400  -2.6373  -2.6306  -2.6158  -2.5353  -2.5223  -2.5177  -2.5127
    -2.5050  -2.5013  -2.4984  -2.4891  -2.4838  -2.4586  -2.4556  -2.4530

          k =-0.5000-0.8660 0.0000 (386352 PWs)   bands (ev):

  -103.1781-103.1735-102.5069 -71.5408 -71.5381 -71.5155 -71.5133 -71.5128
   -71.5107 -71.4760 -71.4734 -71.4612 -71.4586 -71.4350 -71.4322 -71.4295
   -71.4268 -70.8785 -70.8582 -70.8538 -70.8162 -70.8058 -70.7872 -70.7839
   -66.7354 -66.7353 -66.7353 -66.7352 -66.7340 -66.7340 -66.7330 -66.7247
   -66.7246 -66.7246 -66.7246 -66.7233 -66.7233 -66.7211 -66.7169 -66.7127
   -66.7096 -66.7096 -66.7095 -66.7095 -66.7095 -66.7095 -66.7095 -66.7094
   -66.7088 -66.7082 -66.7082 -66.7082 -66.7082 -66.7052 -66.7051 -66.7051
   -66.7050 -66.7038 -66.7037 -66.6991 -66.6989 -66.6988 -66.6988 -66.6988
   -66.6987 -66.6987 -66.6986 -66.6983 -66.6975 -66.6975 -66.6975 -66.6974
   -66.6944 -66.6944 -66.6944 -66.6943 -66.6931 -66.6931 -66.6881 -66.6853
   -66.6818 -66.6781 -66.6762 -66.6722 -66.6712 -66.6656 -66.6628 -66.6506
   -57.5695 -57.5154 -57.3408 -57.3301 -57.2990 -57.2485 -56.8406 -56.6803
   -56.6372 -41.0374 -41.0373 -41.0372 -41.0372 -41.0372 -41.0371 -41.0371
   -41.0370 -41.0366 -41.0366 -41.0365 -41.0365 -41.0274 -41.0182 -41.0113
   -41.0105 -41.0104 -41.0104 -41.0102 -41.0097 -41.0097 -41.0066 -40.9996
   -40.9983 -40.9983 -40.9983 -40.9983 -40.9977 -40.9976 -40.9894 -40.9705
   -40.9586 -40.9477 -40.9476 -40.9476 -40.9476 -40.9476 -40.9476 -40.9476
   -40.9476 -40.9469 -40.9469 -40.9469 -40.9469 -40.9298 -40.9238 -40.9205
   -40.9177 -40.9132 -40.9077 -40.8891 -40.8890 -40.8889 -40.8888 -40.8883
   -40.8883 -40.8858 -40.8794 -40.8794 -40.8794 -40.8793 -40.8786 -40.8785
   -40.8785 -40.8681 -40.8681 -40.8681 -40.8681 -40.8674 -40.8674 -40.8636
   -40.8568 -40.8532 -40.8462 -40.8412 -40.8386 -40.8386 -40.8385 -40.8385
   -40.8385 -40.8385 -40.8384 -40.8384 -40.8378 -40.8378 -40.8378 -40.8378
   -40.8338 -40.8300 -40.8299 -40.8298 -40.8297 -40.8296 -40.8291 -40.8290
   -40.8240 -40.8195 -40.8179 -40.8179 -40.8179 -40.8178 -40.8178 -40.8178
   -40.8175 -40.8175 -40.8175 -40.8174 -40.8174 -40.8173 -40.8172 -40.8170
   -40.8170 -40.8167 -40.8167 -40.8167 -40.8167 -40.8142 -40.8103 -40.8088
   -40.8088 -40.8088 -40.8088 -40.8080 -40.8080 -40.8040 -40.8004 -40.7976
   -40.7871 -40.7870 -40.7870 -40.7869 -40.7869 -40.7869 -40.7869 -40.7868
   -40.7868 -40.7860 -40.7860 -40.7860 -40.7860 -40.7710 -40.7672 -40.7576
   -40.7532 -40.7522 -40.7522 -40.7522 -40.7522 -40.7522 -40.7522 -40.7521
   -40.7521 -40.7513 -40.7512 -40.7512 -40.7512 -40.7402 -40.7401 -40.7400
   -40.7399 -40.7391 -40.7391 -40.7287 -40.7276 -40.7240 -40.7216 -40.7208
   -40.7208 -40.7207 -40.7206 -40.7198 -40.7197 -40.7152 -40.7038 -40.7038
   -40.7038 -40.7037 -40.7037 -40.7028 -40.7028 -40.6997 -40.6825 -40.6732
   -40.6731 -40.6730 -40.6730 -40.6729 -40.6721 -40.6720 -40.6690 -40.6461
   -40.6385 -20.8684 -20.0175 -19.9921 -19.9620 -19.9094 -19.8660 -19.8176
   -19.7676 -19.7537 -19.6552 -19.5557 -19.5452 -19.4801 -19.4507 -19.3934
   -19.3466 -19.3282 -19.0303 -19.0144 -18.9914 -18.9484 -18.8728 -18.8424
   -18.8376 -18.8373 -18.8369 -18.8290 -18.8183 -18.7824 -18.7765 -18.7682
   -18.7632 -18.7487 -18.7368 -18.6992 -18.6739 -18.6730 -18.6726 -18.6706
   -18.6533 -18.6351 -18.6235 -18.6165 -18.5940 -18.5881 -18.5583 -18.5522
   -18.5301 -18.5259 -18.5216 -18.5012 -18.4831 -18.4594 -18.4572 -18.4531
   -18.4452 -18.4369 -18.3749 -18.3719 -18.3631 -18.3386 -18.3214 -18.3113
   -18.3073 -18.2892 -18.2697 -18.2496 -18.2327 -18.2256 -18.2171 -18.2155
   -18.2150 -18.2124 -18.1954 -18.1902 -18.1888 -18.1875 -18.1843 -18.1820
   -18.1767 -18.1702 -18.1637 -18.1578 -18.1457 -18.1299 -18.1277 -18.1242
   -18.1185 -18.1181 -18.1168 -18.1125 -18.1074 -18.1052 -18.0943 -18.0748
   -18.0668 -18.0542 -18.0539 -18.0500 -18.0374 -18.0159 -18.0096 -18.0041
   -17.9928 -17.9870 -17.9782 -17.9633 -17.9622 -17.9572 -17.9547 -17.9360
   -17.9357 -17.9351 -17.9347 -17.9340 -17.9330 -17.9208 -17.9205 -17.9012
   -17.9005 -17.8770 -17.8760 -17.8579 -17.8562 -17.8432 -17.8421 -17.8355
   -17.8353 -12.8234 -12.6581 -12.6403 -11.9840 -11.8507 -11.8117 -11.7603
   -11.7472 -11.6423 -11.6272 -11.6205 -11.6175 -11.6108 -11.5983 -11.5924
   -11.5764 -11.5519 -11.5379 -11.5206 -11.5124 -11.5044 -11.4913 -11.4730
   -11.4517 -11.4383 -11.4269 -11.4237 -11.4076 -11.3929 -11.3896 -11.3788
   -11.3737 -11.3708 -11.3692 -11.3432 -11.3294 -11.3214 -11.3171 -11.3148
   -11.3040 -11.2909 -11.2874 -11.2791 -11.2727 -11.2660 -11.2628 -11.2623
   -11.2499 -11.2297 -11.2061 -11.1951 -11.1888 -11.1743 -11.1400 -11.0948
   -11.0820 -11.0729 -11.0632 -11.0563 -11.0354 -11.0239 -11.0007 -10.9994
   -10.9801 -10.9670 -10.9585 -10.9534 -10.9491 -10.9401 -10.9330 -10.9278
   -10.9269 -10.9267 -10.9255 -10.9204 -10.9179 -10.9092 -10.9085 -10.9053
   -10.9010 -10.8984 -10.8979 -10.8952 -10.8641 -10.8600 -10.8592 -10.8591
   -10.8478 -10.7692 -10.6799 -10.6710 -10.6573 -10.6467 -10.6323 -10.6053
   -10.5785 -10.5510 -10.5176 -10.4880 -10.4328 -10.3787 -10.3415 -10.2880
   -10.2743 -10.2647 -10.2424 -10.2308 -10.2263 -10.2210 -10.2134 -10.1721
   -10.1610 -10.1561 -10.1519 -10.1485 -10.1463 -10.1458 -10.1214 -10.1077
   -10.0954 -10.0637 -10.0542 -10.0451 -10.0340 -10.0236 -10.0185 -10.0133
   -10.0079 -10.0060  -9.9808  -9.9597  -9.9354  -9.9218  -9.9121  -9.9015
    -9.8965  -9.8875  -9.8806  -9.8664  -9.8417  -9.8309  -9.8143  -9.7981
    -9.7828  -9.7732  -9.7648  -9.7578  -9.7397  -9.7319  -9.7195  -9.6999
    -9.6974  -9.6843  -9.6747  -9.6712  -9.6624  -9.6557  -9.6134  -9.6098
    -9.6043  -9.6014  -9.5997  -9.5926  -9.5797  -9.5788  -9.5757  -9.5588
    -9.5550  -9.5470  -9.5304  -9.5144  -9.4948  -9.4768  -9.4505  -9.4009
    -9.3924  -9.3624  -9.3538  -9.3390  -9.3324  -9.3314  -9.3158  -9.3005
    -9.2906  -9.2797  -9.2651  -9.2628  -9.2511  -9.2319  -9.2094  -9.1988
    -9.1940  -9.1761  -9.1742  -9.1660  -9.1590  -9.1507  -9.1348  -9.1257
    -9.1118  -9.0888  -9.0794  -9.0770  -9.0675  -9.0632  -9.0584  -9.0537
    -9.0220  -9.0155  -9.0122  -9.0074  -9.0056  -9.0025  -9.0000  -8.9989
    -8.9866  -8.9860  -8.9848  -8.9823  -8.9746  -8.9712  -8.9649  -8.9559
    -8.9557  -8.9522  -8.9405  -8.9177  -8.9100  -8.9093  -8.9085  -8.9069
    -8.9022  -8.8979  -8.8800  -8.8788  -8.8708  -8.8515  -8.8502  -8.8491
    -8.8481  -8.8344  -8.8140  -8.7932  -8.7838  -8.7813  -8.7718  -8.7261
    -8.7015  -8.6792  -8.6211  -8.6196  -8.6106  -8.5651  -8.5600  -8.5081
    -8.4816  -8.4759  -8.4632  -8.4130  -8.3993  -8.3408  -8.3243  -8.2501
    -8.2435  -8.2434  -8.2392  -8.2346  -8.2343  -8.2232  -8.2231  -8.1878
[...]
     atom  172 type  2   force =    -0.00000033    0.00000033    0.00161565
     atom  173 type  2   force =    -0.00000047   -0.00000012   -0.00236021
     atom  174 type  2   force =    -0.00000612   -0.00000240    0.00001320
     atom  175 type  1   force =     0.00000188   -0.00000370    0.00002086
     atom  176 type  1   force =    -0.00017699   -0.00002075   -0.00015149
     atom  177 type  2   force =     0.00001547    0.00001224   -0.00037433
     atom  178 type  2   force =    -0.00001956    0.00000404    0.00000649
     atom  179 type  2   force =     0.00002417   -0.00000800    0.00004291
     atom  180 type  2   force =     0.00027826   -0.00012055    0.00003751
     atom  181 type  1   force =     0.00000164   -0.00000066    0.00068756
     atom  182 type  1   force =    -0.00000982   -0.00000813    0.00000427
     atom  183 type  2   force =    -0.00000181   -0.00000120    0.00000477
     atom  184 type  2   force =    -0.00000025    0.00000037    0.00161568
     atom  185 type  2   force =    -0.00000046   -0.00000009   -0.00236027
     atom  186 type  2   force =    -0.00000714   -0.00000081    0.00001757
     atom  187 type  1   force =     0.00001408   -0.00000027    0.00004494
     atom  188 type  1   force =     0.00011020   -0.00031691    0.00010652
     atom  189 type  2   force =    -0.00039904   -0.00007996    0.00052673
     atom  190 type  2   force =     0.00001428   -0.00000380    0.00001553
     atom  191 type  2   force =     0.00000172    0.00001936    0.00005806
     atom  192 type  2   force =     0.00012426    0.00034285    0.00029269
     atom  193 type  3   force =     0.00043876    0.00007966    0.00048430
     atom  194 type  3   force =    -0.00046384    0.00007760    0.00045734
     atom  195 type  3   force =    -0.00003698    0.00051045   -0.00099481

     Total force =     0.003175     Total SCF correction =     0.000763
     SCF correction compared to forces is large: reduce conv_thr to get better values
     Energy error            =      2.3E-05 Ry
     Gradient error          =      9.9E-04 Ry/Bohr

     bfgs converged in  19 scf cycles and  18 bfgs steps
     (criteria: energy <  1.0E-04 Ry, force <  1.0E-03 Ry/Bohr)

     End of BFGS Geometry Optimization

     Final energy             =  -36817.6625838000 Ry

     File ./outdir/pwscf.bfgs deleted, as requested
Begin final coordinates

ATOMIC_POSITIONS (angstrom)
Mo               0.0000119917        1.8193638619       -9.1672481230    0   0   0
Mo               1.5756136568        0.9097075315       -3.0554901653    0   0   0
S                0.0000188998        1.8193822938       -4.6232556019    0   0   0
S                1.5756321638        0.9096773839       -7.6014065489    0   0   0
S                1.5756326175        0.9096785128      -10.7330757790    0   0   0
S                0.0000189190        1.8193860094       -1.4877129945    0   0   0
Mo               0.0002901684        1.8197933646        3.0570413804
Mo               1.5754523187        0.9140841671        9.1713656032
S                0.0026386688        1.8244132479        7.5962244726
S                1.5759321732        0.9099989320        4.6248469350
S                1.5757816353        0.9099798880        1.4890680111
S               -0.0003449089        1.8137554157       10.7503019461
Mo              -1.5756053507        4.5484193819       -9.1672481230    0   0   0
Mo               0.0000378379        3.6387394919       -3.0554952701    0   0   0
S               -1.5755913433        4.5484363582       -4.6232494962    0   0   0
S                0.0000148214        3.6387329039       -7.6014065489    0   0   0
S                0.0000152751        3.6387340328      -10.7330757790    0   0   0
S               -1.5755906502        4.5484413613       -1.4877305502    0   0   0
Mo              -1.5755669195        4.5486809601        3.0566128635
Mo              -0.0078276651        3.6262147340        9.1781440204
S               -1.5756016522        4.5516688620        7.6006255965
S               -0.0001364215        3.6392831038        4.6247810148
S                0.0003841401        3.6390122698        1.4890319067
S               -1.5820331648        4.5484178010       10.7398977604
Mo              -3.1512226931        7.2774749019       -9.1672481230    0   0   0
Mo              -1.5755910988        6.3678216792       -3.0555115988    0   0   0
S               -3.1512162438        7.2774954350       -4.6232578178    0   0   0
S               -1.5756025210        6.3677884239       -7.6014065489    0   0   0
S               -1.5756020673        6.3677895528      -10.7330757790    0   0   0
S               -3.1512127704        7.2774877076       -1.4877200710    0   0   0
Mo              -3.1510917392        7.2777658144        3.0567240250
Mo              -1.5913379819        6.3739620585        9.1760325597
S               -3.1501927521        7.2826653752        7.5975304679
S               -1.5757002439        6.3677838142        4.6245664100
S               -1.5753104640        6.3681730578        1.4888816071
S               -3.1502734783        7.2888860681       10.7532969333
Mo              -4.7268400355       10.0065304219       -9.1672481230    0   0   0
Mo              -3.1512405618        9.0968403586       -3.0554816746    0   0   0
S               -4.7268341792       10.0065523623       -4.6232463762    0   0   0
S               -3.1512198634        9.0968439439       -7.6014065489    0   0   0
S               -3.1512194097        9.0968450728      -10.7330757790    0   0   0
S               -4.7268370797       10.0065537885       -1.4877176751    0   0   0
Mo              -4.7265915314       10.0068782377        3.0568221601
Mo              -3.1502295705        9.1006435799        9.1716475211
S               -4.7225558294       10.0125609182        7.6014133960
S               -3.1510824699        9.0970471429        4.6246121495
S               -3.1510996336        9.0971814124        1.4888684669
S               -4.7142278307       10.0189168654       10.7434378848
Mo               3.1512517547        1.8193638619       -9.1672481230    0   0   0
Mo               4.7269020221        0.9097289540       -3.0554823951    0   0   0
S                3.1512612351        1.8193882564       -4.6232320683    0   0   0
S                4.7268719268        0.9096773839       -7.6014065489    0   0   0
S                4.7268723805        0.9096785128      -10.7330757790    0   0   0
S                3.1512592485        1.8193890201       -1.4877261251    0   0   0
Mo               3.1513790237        1.8196968418        3.0569707950
Mo               4.7290016356        0.9140617660        9.1714059164
S                3.1522487767        1.8252906645        7.6046950819
S                4.7268300721        0.9099918984        4.6248506074
S                4.7269651164        0.9099837338        1.4890687731
S                3.1522354707        1.8019407887       10.7468307359
Mo               1.5756344123        4.5484193819       -9.1672481230    0   0   0
Mo               3.1512756394        3.6387769522       -3.0554814834    0   0   0
S                1.5756504879        4.5484423799       -4.6232390542    0   0   0
S                3.1512545844        3.6387329039       -7.6014065489    0   0   0
S                3.1512550381        3.6387340328      -10.7330757790    0   0   0
S                1.5756466253        4.5484431864       -1.4877251801    0   0   0
Mo               1.5757195108        4.5488078224        3.0571537239
Mo               3.1522333324        3.6272956159        9.1910292647
S                1.5689833707        4.5347092069        7.6208199606
S                3.1513800337        3.6391652230        4.6248814195
S                3.1513797021        3.6391800312        1.4892577247
S                1.5588025631        4.4664811793       10.7999991530
Mo               0.0000170699        7.2774749019       -9.1672481230    0   0   0
Mo               1.5756764447        6.3678236689       -3.0554877708    0   0   0
S                0.0000381981        7.2774979204       -4.6232454413    0   0   0
S                1.5756372420        6.3677884239       -7.6014065489    0   0   0
S                1.5756376957        6.3677895528      -10.7330757790    0   0   0
S                0.0000328088        7.2774946042       -1.4877307940    0   0   0
Mo               0.0001101793        7.2776487457        3.0570003792
Mo               1.5250781430        6.3440908729        9.1665337325
S               -0.0176639917        7.2827183477        7.6149936411
S                1.5750104097        6.3677180480        4.6259743116
S                1.5762761340        6.3683869924        1.4897930737
S               -0.0779551103        7.3112290403       10.7939597738
Mo              -1.5756002725       10.0065304219       -9.1672481230    0   0   0
Mo               0.0000873425        9.0968676911       -3.0554912329    0   0   0
S               -1.5755883952       10.0065504530       -4.6232240150    0   0   0
S                0.0000198996        9.0968439439       -7.6014065489    0   0   0
S                0.0000203533        9.0968450728      -10.7330757790    0   0   0
S               -1.5755859047       10.0065492576       -1.4877362381    0   0   0
Mo              -1.5755884698       10.0068782571        3.0568185447
Mo              -0.0099565952        9.1103599994        9.1801416521
S               -1.5778554251       10.0125170719        7.6014851208
S               -0.0001735146        9.0969970020        4.6244294775
S                0.0003629288        9.0971514006        1.4892285031
S               -1.5862715128       10.0189174350       10.7435217447
Mo               6.3024915177        1.8193638619       -9.1672481230    0   0   0
Mo               7.8781001445        0.9096521684       -3.0554919963    0   0   0
S                6.3025008696        1.8193826232       -4.6232480596    0   0   0
S                7.8781116898        0.9096773839       -7.6014065489    0   0   0
S                7.8781121435        0.9096785128      -10.7330757790    0   0   0
S                6.3025042007        1.8193849068       -1.4877147524    0   0   0
Mo               6.3024660972        1.8197924090        3.0570532824
Mo               7.8701447471        0.9224362819        9.1673985737
S                6.3017820215        1.8243745494        7.5962651992
S                7.8784076218        0.9106907732        4.6246003003
S                7.8781352140        0.9099641757        1.4892520204
S                6.3047950903        1.8138083642       10.7503013079
Mo               4.7268741753        4.5484193819       -9.1672481230    0   0   0
Mo               6.3024679138        3.6387501714       -3.0554895197    0   0   0
S                4.7268748770        4.5484386753       -4.6232519432    0   0   0
S                6.3024943474        3.6387329039       -7.6014065489    0   0   0
S                6.3024948011        3.6387340328      -10.7330757790    0   0   0
S                4.7268770533        4.5484432419       -1.4877137856    0   0   0
Mo               4.7270438179        4.5488078726        3.0571694138
Mo               6.3122956530        3.6262346482        9.1780914801
S                4.7354727721        4.5347253599        7.6207805853
S                6.3029078139        3.6392806774        4.6247992850
S                6.3023624557        3.6390130780        1.4890490232
S                4.7457252758        4.4665733578       10.7998803333
Mo               3.1512568329        7.2774749019       -9.1672481230    0   0   0
Mo               4.7268384135        6.3678043337       -3.0554959052    0   0   0
S                3.1512606125        7.2774972547       -4.6232589675    0   0   0
S                4.7268770050        6.3677884239       -7.6014065489    0   0   0
S                4.7268774587        6.3677895528      -10.7330757790    0   0   0
S                3.1512629079        7.2774963749       -1.4877081835    0   0   0
Mo               3.1513851129        7.2777491608        3.0586088442
Mo               4.7794590936        6.3441458279        9.1664194452
S                3.1522035978        7.2654545898        7.6280011936
S                4.7277636133        6.3677207687        4.6259849523
S                4.7264885170        6.3683856611        1.4898093746
S                3.1523724669        7.3097686336       10.5783991176
Mo               1.5756394905       10.0065304219       -9.1672481230    0   0   0
Mo               3.1512330605        9.0968514907       -3.0554878870    0   0   0
S                1.5756499830       10.0065443759       -4.6232632674    0   0   0
S                3.1512596626        9.0968439439       -7.6014065489    0   0   0
S                3.1512601163        9.0968450728      -10.7330757790    0   0   0
S                1.5756503041       10.0065459699       -1.4877044377    0   0   0
Mo               1.5757824251       10.0069992341        3.0574032262
Mo               3.1522506270        9.1638220698        9.1290948085
S                1.5524720575       10.0294361128        7.5933571486
S                3.1513896185        9.0977799238        4.6263333729
S                3.1513838143        9.0967650257        1.4901427064
S                1.5443792835       10.0458324514       10.7713688553
Mo               9.4537312807        1.8193638619       -9.1672481230    0   0   0
Mo              11.0293863460        0.9096952246       -3.0554894007    0   0   0
S                9.4537395970        1.8193770750       -4.6232328036    0   0   0
S               11.0293514528        0.9096773839       -7.6014065489    0   0   0
S               11.0293519066        0.9096785128      -10.7330757790    0   0   0
S                9.4537393632        1.8193794783       -1.4877366147    0   0   0
Mo               9.4538582718        1.8200898389        3.0567524154
Mo              11.0392490891        0.9224669978        9.1673544205
S                9.4546613611        1.8282528189        7.5953102393
S               11.0293223345        0.9106978241        4.6245960385
S               11.0295611202        0.9099590396        1.4892464591
S                9.4547002072        1.8267649949       10.7321493962
Mo               7.8781139383        4.5484193819       -9.1672481230    0   0   0
Mo               9.4537539161        3.6387607911       -3.0554933032    0   0   0
S                7.8781175448        4.5484378232       -4.6232366318    0   0   0
S                9.4537341104        3.6387329039       -7.6014065489    0   0   0
S                9.4537345641        3.6387340328      -10.7330757790    0   0   0
S                7.8781194018        4.5484411585       -1.4877377057    0   0   0
Mo               7.8783316147        4.5486792623        3.0566265670
Mo               9.4546944970        3.6429822099        9.1674557528
S                7.8800561974        4.5516657228        7.6005686464
S                9.4538736020        3.6394156576        4.6248170523
S                9.4538484955        3.6390052952        1.4886447651
S                7.8864655083        4.5484728503       10.7398445284
Mo               6.3024965959        7.2774749019       -9.1672481230    0   0   0
Mo               7.8781361655        6.3678242352       -3.0555014130    0   0   0
S                6.3024973331        7.2774953556       -4.6232392528    0   0   0
S                7.8781167680        6.3677884239       -7.6014065489    0   0   0
S                7.8781172217        6.3677895528      -10.7330757790    0   0   0
S                6.3024989866        7.2774929744       -1.4877349119    0   0   0
Mo               6.3026637689        7.2776496158        3.0570191086
Mo               7.8958177411        6.3739923914        9.1759469853
S                6.3221854284        7.2827683841        7.6148697505
S                7.8784935131        6.3677858116        4.6245788151
S                7.8780623748        6.3681697687        1.4888966897
S                6.3824118533        7.3112496868       10.7937918759
Mo               4.7268792535       10.0065304219       -9.1672481230    0   0   0
Mo               6.3025111524        9.0968738021       -3.0554915260    0   0   0
S                4.7268840634       10.0065452125       -4.6232380477    0   0   0
S                6.3024994256        9.0968439439       -7.6014065489    0   0   0
S                6.3024998793        9.0968450728      -10.7330757790    0   0   0
S                4.7268847312       10.0065459141       -1.4877283294    0   0   0
Mo               4.7269952984       10.0069996268        3.0574080251
Mo               6.3144474908        9.1104024049        9.1800074013
S                4.7519660500       10.0295059343        7.5932719742
S                6.3029623840        9.0970054146        4.6244401077
S                6.3024000348        9.0971450062        1.4892388882
S                4.7602477531       10.0458645812       10.7713054382
Pt               1.7379927907        6.4418445494       12.1170858491
Pt               4.5667450716        6.4416364726       12.1172713642
Pt               3.1527579474        8.8551151227       12.2103984042
End final coordinates



     Writing all to output data dir ./outdir/pwscf.save/ :
     XML data file, charge density, pseudopotentials, collected wavefunctions
 
     init_run     :    175.85s CPU    178.93s WALL (       1 calls)
     electrons    : 169301.30s CPU 171395.78s WALL (      19 calls)
     update_pot   :     39.01s CPU     39.97s WALL (      18 calls)
     forces       :   2477.09s CPU   2517.79s WALL (      19 calls)
     force_dftd3  :     13.15s CPU     13.66s WALL (      19 calls)

     Called by init_run:
     wfcinit      :    152.36s CPU    154.20s WALL (       1 calls)
     potinit      :      1.83s CPU      1.92s WALL (       1 calls)
     hinit0       :     12.74s CPU     12.82s WALL (       1 calls)

     Called by electrons:
     c_bands      : 150474.42s CPU 151945.28s WALL (     267 calls)
     sum_band     :  16838.63s CPU  17178.97s WALL (     267 calls)
     v_of_rho     :     96.73s CPU    108.62s WALL (     273 calls)
     newd         :   1514.98s CPU   1786.67s WALL (     273 calls)
     PAW_pot      :    412.40s CPU    415.35s WALL (     291 calls)
     mix_rho      :     27.14s CPU     31.19s WALL (     267 calls)
     energy_dftd3 :      7.70s CPU      7.73s WALL (      19 calls)

     Called by c_bands:
     init_us_2    :    570.60s CPU    573.15s WALL (    2288 calls)
     init_us_2:cp :    570.57s CPU    573.13s WALL (    2288 calls)
     cegterg      : 148041.16s CPU 149496.22s WALL (    1101 calls)

     Called by *egterg:
     cdiaghg      :   9109.13s CPU   9421.81s WALL (   13593 calls)
     h_psi        :  73666.57s CPU  74149.33s WALL (   13728 calls)
     s_psi        :  16464.07s CPU  16570.57s WALL (   13728 calls)
     g_psi        :    134.10s CPU    134.72s WALL (   12623 calls)

     Called by h_psi:
     h_psi:calbec :  16700.28s CPU  16763.24s WALL (   13728 calls)
     vloc_psi     :  40178.23s CPU  40386.45s WALL (   13728 calls)
     add_vuspsi   :  16480.03s CPU  16589.02s WALL (   13728 calls)

     General routines
     calbec       :  23749.70s CPU  23839.50s WALL (   15172 calls)
     fft          :    112.38s CPU    123.29s WALL (    3751 calls)
     ffts         :      4.86s CPU      5.24s WALL (     540 calls)
     fftw         :  30375.51s CPU  30529.90s WALL ( 7919498 calls)
     interpolate  :      8.67s CPU      9.48s WALL (     273 calls)
 
     Parallel routines
 
     PWSCF        :   1d23h58m CPU   2d 0h36m WALL

 
   This run was terminated on:   3:27:52  14Feb2024            

=------------------------------------------------------------------------------=
   JOB DONE.
=------------------------------------------------------------------------------=
