
     Program PWSCF v.7.3 starts on  9Mar2024 at  4:55:41 

     This program is part of the open-source Quantum ESPRESSO suite
     for quantum simulation of materials; please cite
         "P. Giannozzi et al., J. Phys.:Condens. Matter 21 395502 (2009);
         "P. Giannozzi et al., J. Phys.:Condens. Matter 29 465901 (2017);
         "P. Giannozzi et al., J. Chem. Phys. 152 154105 (2020);
          URL http://www.quantum-espresso.org", 
     in publications or presentations arising from this work. More details at
     http://www.quantum-espresso.org/quote

     Parallel version (MPI & OpenMP), running on      36 processor cores
     Number of MPI processes:                36
     Threads/MPI process:                     1

     MPI processes distributed on     1 nodes
     558522 MiB available memory on the printing compute node when the environment starts
 
     Waiting for input...
     Reading input from standard input
Warning: card &CELL ignored
Warning: card / ignored

     Current dimensions of program PWSCF are:
     Max number of different atomic species (ntypx) = 10
     Max number of k-points (npk) =  40000
     Max angular momentum in pseudopotentials (lmaxx) =  4
     file Mo.pbe-spn-kjpaw_psl.1.0.0.UPF: wavefunction(s)  4S 4D renormalized
     file S.pbe-n-kjpaw_psl.1.0.0.UPF: wavefunction(s)  3S 3P renormalized
     file Pt.pbe-spfn-kjpaw_psl.1.0.0.UPF: wavefunction(s)  5P 4F renormalized
     file Pd.pbe-spn-kjpaw_psl.1.0.0.UPF: wavefunction(s)  4S 5S 4D renormalized
 
     R & G space division:  proc/nbgrp/npool/nimage =      36
     Subspace diagonalization in iterative solution of the eigenvalue problem:
     one sub-group per band group will be used
     scalapack distributed-memory algorithm (size of sub-group:  6*  6 procs)

 
     Parallelization info
     --------------------
     sticks:   dense  smooth     PW     G-vecs:    dense   smooth      PW
     Min         586     335     89               165416    71459    9765
     Max         587     337     90               165425    71461    9778
     Sum       21109   12085   3205              5955087  2572543  351657
 
     Using Slab Decomposition
 


     bravais-lattice index     =            0
     lattice parameter (alat)  =      23.8395  a.u.
     unit-cell volume          =   28182.8498 (a.u.)^3
     number of atoms/cell      =          146
     number of atomic types    =            4
     number of electrons       =      1298.00
     number of Kohn-Sham states=          779
     kinetic-energy cutoff     =      77.0000  Ry
     charge density cutoff     =     539.0000  Ry
     scf convergence threshold =      1.0E-06
     mixing beta               =       0.2000
     number of iterations used =            8  plain     mixing
     energy convergence thresh.=      1.0E-04
     force convergence thresh. =      1.0E-03
     Exchange-correlation= SLA  PW   PBX  PBC
                           (   1   4   3   4   0   0   0)
     nstep                     =         1000


     Effective Screening Medium Method
     =================================
     Boundary Conditions: Vacuum-Slab-Vacuum
     total charge in unit cell        =   0.0000
     grid points for fit at edges     =        4 
 

     celldm(1)=  23.839504  celldm(2)=   0.000000  celldm(3)=   0.000000
     celldm(4)=   0.000000  celldm(5)=   0.000000  celldm(6)=   0.000000

     crystal axes: (cart. coord. in units of alat)
               a(1) = (   1.000000   0.000000   0.000000 )  
               a(2) = (  -0.500001   0.866026   0.000000 )  
               a(3) = (   0.000000   0.000000   2.401941 )  

     reciprocal axes: (cart. coord. in units 2 pi/alat)
               b(1) = (  1.000000  0.577351  0.000000 )  
               b(2) = (  0.000000  1.154700  0.000000 )  
               b(3) = (  0.000000  0.000000  0.416330 )  


     PseudoPot. # 1 for Mo read from file:
     ./pseudo/Mo.pbe-spn-kjpaw_psl.1.0.0.UPF
     MD5 check sum: 317bf72632116215fd98f72de1686f13
     Pseudo is Projector augmented-wave + core cor, Zval = 14.0
     Generated using 'atomic' code by A. Dal Corso  v.7.2
     Shape of augmentation charge: PSQ
     Using radial grid of 1229 points,  6 beta functions with: 
                l(1) =   0
                l(2) =   0
                l(3) =   1
                l(4) =   1
                l(5) =   2
                l(6) =   2
     Q(r) pseudized with 0 coefficients 


     PseudoPot. # 2 for S  read from file:
     ./pseudo/S.pbe-n-kjpaw_psl.1.0.0.UPF
     MD5 check sum: 8b7b5302570d38d5e87fed6a1065abda
     Pseudo is Projector augmented-wave + core cor, Zval =  6.0
     Generated using 'atomic' code by A. Dal Corso  v.7.2
     Shape of augmentation charge: PSQ
     Using radial grid of 1151 points,  6 beta functions with: 
                l(1) =   0
                l(2) =   0
                l(3) =   1
                l(4) =   1
                l(5) =   2
                l(6) =   2
     Q(r) pseudized with 0 coefficients 


     PseudoPot. # 3 for Pt read from file:
     ./pseudo/Pt.pbe-spfn-kjpaw_psl.1.0.0.UPF
     MD5 check sum: 620096ebf4e6ebacc94de60fd67efcb5
     Pseudo is Projector augmented-wave + core cor, Zval = 32.0
     Generated using 'atomic' code by A. Dal Corso  v.7.2
     Shape of augmentation charge: PSQ
     Using radial grid of 1277 points,  8 beta functions with: 
                l(1) =   0
                l(2) =   0
                l(3) =   1
                l(4) =   1
                l(5) =   2
                l(6) =   2
                l(7) =   3
                l(8) =   3
     Q(r) pseudized with 0 coefficients 


     PseudoPot. # 4 for Pd read from file:
     ./pseudo/Pd.pbe-spn-kjpaw_psl.1.0.0.UPF
     MD5 check sum: a60571a671f2502b8a6a4569d20a6edb
     Pseudo is Projector augmented-wave + core cor, Zval = 18.0
     Generated using 'atomic' code by A. Dal Corso  v.7.2
     Shape of augmentation charge: PSQ
     Using radial grid of 1235 points,  6 beta functions with: 
                l(1) =   0
                l(2) =   0
                l(3) =   1
                l(4) =   1
                l(5) =   2
                l(6) =   2
     Q(r) pseudized with 0 coefficients 


     atomic species   valence    mass     pseudopotential
     Mo               14.00    95.95000     Mo( 1.00)
     S                 6.00    32.06000     S ( 1.00)
     Pt               32.00   195.08400     Pt( 1.00)
     Pd               18.00   106.42000     Pd( 1.00)

     No symmetry found



   Cartesian axes

     site n.     atom                  positions (alat units)
         1        Mo     tau(   1) = (   0.1245066   0.2151403   0.4829270  )
         2        Mo     tau(   2) = (   0.1250004   0.0721694  -0.4825273  )
         3        Mo     tau(   3) = (   0.0000143   0.1443586  -0.0000404  )
         4        S      tau(   4) = (   0.0000004   0.0000006  -0.6064556  )
         5        S      tau(   5) = (   0.1249859   0.0722111  -0.1241825  )
         6        S      tau(   6) = (   0.0002990   0.1445714   0.3572522  )
         7        S      tau(   7) = (   0.0000004   0.0000005  -0.3584711  )
         8        S      tau(   8) = (   0.1250243   0.0721377   0.1241202  )
         9        S      tau(   9) = (  -0.0011552   0.1430195   0.6061730  )
        10        Mo     tau(  10) = (  -0.0014303   0.4332690   0.4829269  )
        11        Mo     tau(  11) = (   0.0000001   0.2886759  -0.4825273  )
        12        Mo     tau(  12) = (  -0.1249759   0.3608474  -0.0000404  )
        13        S      tau(  13) = (  -0.1249999   0.2165071  -0.6064556  )
        14        S      tau(  14) = (   0.0000250   0.2886908  -0.1241273  )
        15        S      tau(  15) = (  -0.1246483   0.3609863   0.3572522  )
        16        S      tau(  16) = (  -0.1249998   0.2165070  -0.3584711  )
        17        S      tau(  17) = (   0.0000923   0.2887297   0.1242244  )
        18        S      tau(  18) = (  -0.1267194   0.3605027   0.6061730  )
        19        Mo     tau(  19) = (  -0.1251617   0.6496109   0.4820319  )
        20        Mo     tau(  20) = (  -0.1250002   0.5051824  -0.4825273  )
        21        Mo     tau(  21) = (  -0.2500022   0.5773395  -0.0001503  )
        22        S      tau(  22) = (  -0.2500002   0.4330136  -0.6064556  )
        23        S      tau(  23) = (  -0.1249718   0.5051500  -0.1241823  )
        24        S      tau(  24) = (  -0.2500018   0.5776353   0.3574746  )
        25        S      tau(  25) = (  -0.2500001   0.4330135  -0.3584711  )
        26        S      tau(  26) = (  -0.1250162   0.5052198   0.1241203  )
        27        S      tau(  27) = (  -0.2500018   0.5771316   0.6060170  )
        28        Mo     tau(  28) = (   0.2499988  -0.0001852   0.4820322  )
        29        Mo     tau(  29) = (  -0.2500004   0.7216889  -0.4825273  )
        30        Mo     tau(  30) = (  -0.3750121   0.7938628  -0.0001504  )
        31        S      tau(  31) = (  -0.3750004   0.6495201  -0.6064556  )
        32        S      tau(  32) = (  -0.2500022   0.7216884  -0.1242395  )
        33        S      tau(  33) = (  -0.3747547   0.7937137   0.3574746  )
        34        S      tau(  34) = (  -0.3750004   0.6495200  -0.3584711  )
        35        S      tau(  35) = (  -0.2500023   0.7216883   0.1240244  )
        36        S      tau(  36) = (  -0.3751912   0.7939655   0.6060169  )
        37        Mo     tau(  37) = (   0.3754907   0.2151405   0.4829271  )
        38        Mo     tau(  38) = (   0.3750004   0.0721694  -0.4825273  )
        39        Mo     tau(  39) = (   0.2499984   0.1443573  -0.0000731  )
        40        S      tau(  40) = (   0.2500004   0.0000006  -0.6064556  )
        41        S      tau(  41) = (   0.3750112   0.0722112  -0.1241824  )
        42        S      tau(  42) = (   0.2499987   0.1444686   0.3583292  )
        43        S      tau(  43) = (   0.2500004   0.0000005  -0.3584711  )
        44        S      tau(  44) = (   0.3749727   0.0721378   0.1241202  )
        45        S      tau(  45) = (   0.2499989   0.1436262   0.6067914  )
        46        Mo     tau(  46) = (   0.2499982   0.4330120   0.4873213  )
        47        Mo     tau(  47) = (   0.2500001   0.2886759  -0.4825273  )
        48        Mo     tau(  48) = (   0.1250313   0.3608632  -0.0000369  )
        49        S      tau(  49) = (   0.1250001   0.2165071  -0.6064556  )
        50        S      tau(  50) = (   0.2499984   0.2886902  -0.1241509  )
        51        S      tau(  51) = (   0.1269276   0.3619573   0.3622727  )
        52        S      tau(  52) = (   0.1250002   0.2165070  -0.3584711  )
        53        S      tau(  53) = (   0.2499983   0.2886817   0.1242427  )
        54        S      tau(  54) = (   0.1143670   0.3547054   0.6129634  )
        55        Mo     tau(  55) = (   0.1240620   0.6506275   0.4829270  )
        56        Mo     tau(  56) = (   0.1249998   0.5051824  -0.4825273  )
        57        Mo     tau(  57) = (   0.0000150   0.5773409  -0.0000731  )
        58        S      tau(  58) = (  -0.0000002   0.4330136  -0.6064556  )
        59        S      tau(  59) = (   0.1250108   0.5051746  -0.1241509  )
        60        S      tau(  60) = (   0.0001121   0.5772840   0.3583290  )
        61        S      tau(  61) = (  -0.0000001   0.4330135  -0.3584711  )
        62        S      tau(  62) = (   0.1250034   0.5051788   0.1242428  )
        63        S      tau(  63) = (  -0.0006172   0.5777056   0.6067911  )
        64        Mo     tau(  64) = (   0.5000733   0.0000423   0.4811256  )
        65        Mo     tau(  65) = (  -0.0000004   0.7216889  -0.4825273  )
        66        Mo     tau(  66) = (  -0.1249927   0.7938628  -0.0001503  )
        67        S      tau(  67) = (  -0.1250004   0.6495201  -0.6064556  )
        68        S      tau(  68) = (   0.0000406   0.7216783  -0.1241824  )
        69        S      tau(  69) = (  -0.1252496   0.7937135   0.3574746  )
        70        S      tau(  70) = (  -0.1250004   0.6495200  -0.3584711  )
        71        S      tau(  71) = (  -0.0000422   0.7216817   0.1241204  )
        72        S      tau(  72) = (  -0.1248129   0.7939655   0.6060170  )
        73        Mo     tau(  73) = (   0.6251034   0.2164454   0.4813717  )
        74        Mo     tau(  74) = (   0.6250004   0.0721694  -0.4825273  )
        75        Mo     tau(  75) = (   0.4999826   0.1443587  -0.0000403  )
        76        S      tau(  76) = (   0.5000004   0.0000006  -0.6064556  )
        77        S      tau(  77) = (   0.6249765   0.0721563  -0.1241436  )
        78        S      tau(  78) = (   0.4996985   0.1445712   0.3572516  )
        79        S      tau(  79) = (   0.5000004   0.0000005  -0.3584711  )
        80        S      tau(  80) = (   0.6250052   0.0721729   0.1241442  )
        81        S      tau(  81) = (   0.5011529   0.1430194   0.6061729  )
        82        Mo     tau(  82) = (   0.5014272   0.4332689   0.4829269  )
        83        Mo     tau(  83) = (   0.5000001   0.2886759  -0.4825273  )
        84        Mo     tau(  84) = (   0.3749652   0.3608633  -0.0000370  )
        85        S      tau(  85) = (   0.3750001   0.2165071  -0.6064556  )
        86        S      tau(  86) = (   0.4999715   0.2886908  -0.1241272  )
        87        S      tau(  87) = (   0.3730698   0.3619571   0.3622724  )
        88        S      tau(  88) = (   0.3750002   0.2165070  -0.3584711  )
        89        S      tau(  89) = (   0.4999043   0.2887298   0.1242243  )
        90        S      tau(  90) = (   0.3856284   0.3547066   0.6129638  )
        91        Mo     tau(  91) = (   0.3759345   0.6506277   0.4829270  )
        92        Mo     tau(  92) = (   0.3749998   0.5051824  -0.4825273  )
        93        Mo     tau(  93) = (   0.2499980   0.5773127  -0.0000370  )
        94        S      tau(  94) = (   0.2499998   0.4330136  -0.6064556  )
        95        S      tau(  95) = (   0.3749852   0.5051745  -0.1241508  )
        96        S      tau(  96) = (   0.2499983   0.5751230   0.3622722  )
        97        S      tau(  97) = (   0.2499999   0.4330135  -0.3584711  )
        98        S      tau(  98) = (   0.3749925   0.5051788   0.1242430  )
        99        S      tau(  99) = (   0.2499985   0.5896211   0.6129642  )
       100        Mo     tau( 100) = (   0.7499990   0.0001203   0.4813716  )
       101        Mo     tau( 101) = (   0.2499996   0.7216889  -0.4825273  )
       102        Mo     tau( 102) = (   0.1250080   0.7938333  -0.0000403  )
       103        S      tau( 103) = (   0.1249996   0.6495201  -0.6064556  )
       104        S      tau( 104) = (   0.2499977   0.7216576  -0.1241273  )
       105        S      tau( 105) = (   0.1250507   0.7934796   0.3572514  )
       106        S      tau( 106) = (   0.1249996   0.6495200  -0.3584711  )
       107        S      tau( 107) = (   0.2499978   0.7215798   0.1242243  )
       108        S      tau( 108) = (   0.1244341   0.7955149   0.6061727  )
       109        Mo     tau( 109) = (  -0.1251058   0.2164455   0.4813720  )
       110        Mo     tau( 110) = (   0.8750004   0.0721694  -0.4825273  )
       111        Mo     tau( 111) = (   0.7499984   0.1443377  -0.0000951  )
       112        S      tau( 112) = (   0.7500004   0.0000006  -0.6064556  )
       113        S      tau( 113) = (   0.8750204   0.0721563  -0.1241436  )
       114        S      tau( 114) = (   0.7499989   0.1443372   0.3571897  )
       115        S      tau( 115) = (   0.7500004   0.0000005  -0.3584711  )
       116        S      tau( 116) = (   0.8749917   0.0721728   0.1241442  )
       117        S      tau( 117) = (   0.7499986   0.1443371   0.6056765  )
       118        Mo     tau( 118) = (  -0.2500015   0.4329261   0.4811261  )
       119        Mo     tau( 119) = (   0.7500001   0.2886759  -0.4825273  )
       120        Mo     tau( 120) = (   0.6249722   0.3608476  -0.0000403  )
       121        S      tau( 121) = (   0.6250001   0.2165071  -0.6064556  )
       122        S      tau( 122) = (   0.7499981   0.2887008  -0.1241435  )
       123        S      tau( 123) = (   0.6246456   0.3609863   0.3572519  )
       124        S      tau( 124) = (   0.6250002   0.2165070  -0.3584711  )
       125        S      tau( 125) = (   0.7499982   0.2886677   0.1241441  )
       126        S      tau( 126) = (   0.6267164   0.3605023   0.6061731  )
       127        Mo     tau( 127) = (  -0.3748420   0.6496111   0.4820319  )
       128        Mo     tau( 128) = (   0.6249998   0.5051824  -0.4825273  )
       129        Mo     tau( 129) = (   0.4999808   0.5773409  -0.0000733  )
       130        S      tau( 130) = (   0.4999998   0.4330136  -0.6064556  )
       131        S      tau( 131) = (   0.6249676   0.5051499  -0.1241823  )
       132        S      tau( 132) = (   0.4998845   0.5772841   0.3583289  )
       133        S      tau( 133) = (   0.4999999   0.4330135  -0.3584711  )
       134        S      tau( 134) = (   0.6250119   0.5052197   0.1241202  )
       135        S      tau( 135) = (   0.5006138   0.5777054   0.6067911  )
       136        Mo     tau( 136) = (  -0.0000756   0.0000425   0.4811258  )
       137        Mo     tau( 137) = (   0.4999996   0.7216889  -0.4825273  )
       138        Mo     tau( 138) = (   0.3749875   0.7938333  -0.0000404  )
       139        S      tau( 139) = (   0.3749996   0.6495201  -0.6064556  )
       140        S      tau( 140) = (   0.4999549   0.7216781  -0.1241825  )
       141        S      tau( 141) = (   0.3749453   0.7934797   0.3572516  )
       142        S      tau( 142) = (   0.3749996   0.6495200  -0.3584711  )
       143        S      tau( 143) = (   0.5000375   0.7216816   0.1241203  )
       144        S      tau( 144) = (   0.3755618   0.7955149   0.6061729  )
       145        Pt     tau( 145) = (   0.2499972   0.4330095   0.7045710  )
       146        Pd     tau( 146) = (  -0.0014268   0.4332826   0.7336317  )

     --------------------------------------------
     DFT-D3 Dispersion Correction (3-body terms):
     --------------------------------------------
       Reference C6 values for interpolation: 

         atom   Coordination number   C6
         S          0.000           268.01
         S          0.995           261.99
         S          1.990           251.62
         Mo         0.000          1691.79
         Mo         1.942          1004.01
         Mo        11.056           674.22
         Pd         0.000          1217.01
         Pd         1.863           573.90
         Pd         5.710           531.75
         Pt         0.000           782.29
         Pt         1.919           692.72
         Pt         6.667           673.75

       Values used:

         atom   Coordination number  R0_AB[au]  C6      C8
         Mo        10.179            3.547    674.22  77634.20
         Mo        10.189            3.547    674.22  77634.20
         Mo        10.200            3.547    674.22  77634.20
         S          3.753            3.128    251.62  12327.25
         S          3.858            3.128    251.62  12327.25
         S          3.846            3.128    251.62  12327.25
         S          3.859            3.128    251.62  12327.25
         S          3.860            3.128    251.62  12327.25
         S          3.829            3.128    251.62  12327.25
         Mo        10.586            3.547    674.22  77634.20
         Mo        10.189            3.547    674.22  77634.20
         Mo        10.200            3.547    674.22  77634.20
         S          3.753            3.128    251.62  12327.25
         S          3.859            3.128    251.62  12327.25
         S          3.846            3.128    251.62  12327.25
         S          3.858            3.128    251.62  12327.25
         S          3.855            3.128    251.62  12327.25
         S          4.738            3.128    251.62  12327.25
         Mo        10.224            3.547    674.22  77634.20
         Mo        10.189            3.547    674.22  77634.20
         Mo        10.200            3.547    674.22  77634.20
         S          3.753            3.128    251.62  12327.25
         S          3.858            3.128    251.62  12327.25
         S          3.861            3.128    251.62  12327.25
         S          3.859            3.128    251.62  12327.25
         S          3.860            3.128    251.62  12327.25
         S          3.771            3.128    251.62  12327.25
         Mo        10.217            3.547    674.22  77634.20
         Mo        10.189            3.547    674.22  77634.20
         Mo        10.200            3.547    674.22  77634.20
         S          3.753            3.128    251.62  12327.25
         S          3.858            3.128    251.62  12327.25
         S          3.861            3.128    251.62  12327.25
         S          3.859            3.128    251.62  12327.25
         S          3.863            3.128    251.62  12327.25
         S          3.762            3.128    251.62  12327.25
         Mo        10.173            3.547    674.22  77634.20
         Mo        10.189            3.547    674.22  77634.20
         Mo        10.202            3.547    674.22  77634.20
         S          3.753            3.128    251.62  12327.25
         S          3.858            3.128    251.62  12327.25
         S          3.858            3.128    251.62  12327.25
         S          3.859            3.128    251.62  12327.25
         S          3.860            3.128    251.62  12327.25
         S          3.752            3.128    251.62  12327.25
         Mo        10.896            3.547    674.22  77634.20
         Mo        10.189            3.547    674.22  77634.20
         Mo        10.203            3.547    674.22  77634.20
         S          3.753            3.128    251.62  12327.25
         S          3.859            3.128    251.62  12327.25
         S          3.865            3.128    251.62  12327.25
         S          3.859            3.128    251.62  12327.25
         S          3.851            3.128    251.62  12327.25
         S          5.615            3.128    251.62  12327.25
         Mo        10.179            3.547    674.22  77634.20
         Mo        10.189            3.547    674.22  77634.20
         Mo        10.201            3.547    674.22  77634.20
         S          3.753            3.128    251.62  12327.25
         S          3.859            3.128    251.62  12327.25
         S          3.859            3.128    251.62  12327.25
         S          3.859            3.128    251.62  12327.25
         S          3.851            3.128    251.62  12327.25
         S          4.674            3.128    251.62  12327.25
         Mo        10.230            3.547    674.22  77634.20
         Mo        10.189            3.547    674.22  77634.20
         Mo        10.200            3.547    674.22  77634.20
         S          3.753            3.128    251.62  12327.25
         S          3.858            3.128    251.62  12327.25
         S          3.861            3.128    251.62  12327.25
         S          3.859            3.128    251.62  12327.25
         S          3.860            3.128    251.62  12327.25
         S          3.763            3.128    251.62  12327.25
         Mo        10.216            3.547    674.22  77634.20
         Mo        10.189            3.547    674.22  77634.20
         Mo        10.200            3.547    674.22  77634.20
         S          3.753            3.128    251.62  12327.25
         S          3.858            3.128    251.62  12327.25
         S          3.845            3.128    251.62  12327.25
         S          3.859            3.128    251.62  12327.25
         S          3.860            3.128    251.62  12327.25
         S          3.821            3.128    251.62  12327.25
         Mo        10.173            3.547    674.22  77634.20
         Mo        10.189            3.547    674.22  77634.20
         Mo        10.203            3.547    674.22  77634.20
         S          3.753            3.128    251.62  12327.25
         S          3.859            3.128    251.62  12327.25
         S          3.864            3.128    251.62  12327.25
         S          3.859            3.128    251.62  12327.25
         S          3.855            3.128    251.62  12327.25
         S          4.654            3.128    251.62  12327.25
         Mo        10.173            3.547    674.22  77634.20
         Mo        10.189            3.547    674.22  77634.20
         Mo        10.203            3.547    674.22  77634.20
         S          3.753            3.128    251.62  12327.25
         S          3.859            3.128    251.62  12327.25
         S          3.865            3.128    251.62  12327.25
         S          3.859            3.128    251.62  12327.25
         S          3.851            3.128    251.62  12327.25
         S          4.660            3.128    251.62  12327.25
         Mo        10.215            3.547    674.22  77634.20
         Mo        10.189            3.547    674.22  77634.20
         Mo        10.200            3.547    674.22  77634.20
         S          3.753            3.128    251.62  12327.25
         S          3.859            3.128    251.62  12327.25
         S          3.845            3.128    251.62  12327.25
         S          3.859            3.128    251.62  12327.25
         S          3.855            3.128    251.62  12327.25
         S          3.822            3.128    251.62  12327.25
         Mo        10.222            3.547    674.22  77634.20
         Mo        10.189            3.547    674.22  77634.20
         Mo        10.200            3.547    674.22  77634.20
         S          3.753            3.128    251.62  12327.25
         S          3.858            3.128    251.62  12327.25
         S          3.853            3.128    251.62  12327.25
         S          3.858            3.128    251.62  12327.25
         S          3.860            3.128    251.62  12327.25
         S          3.786            3.128    251.62  12327.25
         Mo        10.237            3.547    674.22  77634.20
         Mo        10.189            3.547    674.22  77634.20
         Mo        10.200            3.547    674.22  77634.20
         S          3.753            3.128    251.62  12327.25
         S          3.858            3.128    251.62  12327.25
         S          3.845            3.128    251.62  12327.25
         S          3.858            3.128    251.62  12327.25
         S          3.860            3.128    251.62  12327.25
         S          3.822            3.128    251.62  12327.25
         Mo        10.217            3.547    674.22  77634.20
         Mo        10.189            3.547    674.22  77634.20
         Mo        10.202            3.547    674.22  77634.20
         S          3.753            3.128    251.62  12327.25
         S          3.858            3.128    251.62  12327.25
         S          3.858            3.128    251.62  12327.25
         S          3.859            3.128    251.62  12327.25
         S          3.860            3.128    251.62  12327.25
         S          3.752            3.128    251.62  12327.25
         Mo        10.230            3.547    674.22  77634.20
         Mo        10.189            3.547    674.22  77634.20
         Mo        10.200            3.547    674.22  77634.20
         S          3.753            3.128    251.62  12327.25
         S          3.858            3.128    251.62  12327.25
         S          3.845            3.128    251.62  12327.25
         S          3.859            3.128    251.62  12327.25
         S          3.860            3.128    251.62  12327.25
         S          3.821            3.128    251.62  12327.25
         Pt         4.240            3.168    690.44  71797.81
         Pd         3.511            3.168    573.89  52582.23

         Molecular C6 ( Ry / a.u.^6 ) =   7937373.51


     number of k points=     4  Gaussian smearing, width (Ry)=  0.0100
                       cart. coord. in units 2pi/alat
        k(    1) = (   0.0000000   0.0000000   0.0000000), wk =   0.5000000
        k(    2) = (   0.0000000  -0.5773499   0.0000000), wk =   0.5000000
        k(    3) = (  -0.5000000  -0.2886755   0.0000000), wk =   0.5000000
        k(    4) = (  -0.5000000  -0.8660254   0.0000000), wk =   0.5000000

     Dense  grid:  5955087 G-vectors     FFT dimensions: ( 180, 180, 432)

     Smooth grid:  2572543 G-vectors     FFT dimensions: ( 135, 135, 320)

     Estimated max dynamical RAM per process >       3.07 GB

     Estimated total dynamical RAM >     110.53 GB

     Initial potential from superposition of free atoms

     starting charge    1297.9541, renormalised to    1298.0000

     negative rho (up, down):  9.233E-04 0.000E+00
     Starting wfcs are  891 randomized atomic wfcs
     Checking if some PAW data can be deallocated... 

     total cpu time spent up to now is       99.4 secs

     Self-consistent Calculation

     iteration #  1     ecut=    77.00 Ry     beta= 0.20
     Davidson diagonalization with overlap
     ethr =  1.00E-02,  avg # of iterations =  2.0

     Threshold (ethr) on eigenvalues was too large:
     Diagonalizing with lowered threshold

     Davidson diagonalization with overlap
     ethr =  1.77E-04,  avg # of iterations = 14.0

     negative rho (up, down):  2.950E-04 0.000E+00

     total cpu time spent up to now is     1136.5 secs

     total energy              =  -26031.72439571 Ry
     estimated scf accuracy    <       5.09956519 Ry

     iteration #  2     ecut=    77.00 Ry     beta= 0.20
     Davidson diagonalization with overlap
     ethr =  3.93E-04,  avg # of iterations =  2.0

     negative rho (up, down):  4.421E-05 0.000E+00

     total cpu time spent up to now is     1356.3 secs

     total energy              =  -26030.70640580 Ry
     estimated scf accuracy    <       2.62757008 Ry

     iteration #  3     ecut=    77.00 Ry     beta= 0.20
     Davidson diagonalization with overlap
     c_bands:  1 eigenvalues not converged
     ethr =  2.02E-04,  avg # of iterations = 20.0

     negative rho (up, down):  4.065E-05 0.000E+00

     total cpu time spent up to now is     1654.1 secs

     total energy              =  -26031.03556258 Ry
     estimated scf accuracy    <       1.76358452 Ry

     iteration #  4     ecut=    77.00 Ry     beta= 0.20
     Davidson diagonalization with overlap
     ethr =  1.36E-04,  avg # of iterations =  6.0

     negative rho (up, down):  2.973E-05 0.000E+00

     total cpu time spent up to now is     1888.2 secs

     total energy              =  -26031.10185774 Ry
     estimated scf accuracy    <       0.47947195 Ry

     iteration #  5     ecut=    77.00 Ry     beta= 0.20
     Davidson diagonalization with overlap
     c_bands:  1 eigenvalues not converged
     c_bands:  4 eigenvalues not converged
     c_bands:  3 eigenvalues not converged
     ethr =  3.69E-05,  avg # of iterations = 19.5

     negative rho (up, down):  4.288E-05 0.000E+00

     total cpu time spent up to now is     2734.2 secs

     total energy              =  -26031.74213617 Ry
     estimated scf accuracy    <       0.46097544 Ry

     iteration #  6     ecut=    77.00 Ry     beta= 0.20
     Davidson diagonalization with overlap
     ethr =  3.55E-05,  avg # of iterations =  2.8

     negative rho (up, down):  7.336E-05 0.000E+00

     total cpu time spent up to now is     2945.8 secs

     total energy              =  -26031.70612737 Ry
     estimated scf accuracy    <       0.26167721 Ry

     iteration #  7     ecut=    77.00 Ry     beta= 0.20
     Davidson diagonalization with overlap
     ethr =  2.02E-05,  avg # of iterations =  7.0

     negative rho (up, down):  2.961E-04 0.000E+00

     total cpu time spent up to now is     3184.3 secs

     total energy              =  -26031.66988225 Ry
     estimated scf accuracy    <       0.13489331 Ry

     iteration #  8     ecut=    77.00 Ry     beta= 0.20
     Davidson diagonalization with overlap
     c_bands:  2 eigenvalues not converged
     ethr =  1.04E-05,  avg # of iterations = 26.0

     negative rho (up, down):  3.068E-04 0.000E+00

     total cpu time spent up to now is     3836.5 secs

     total energy              =  -26031.76192326 Ry
     estimated scf accuracy    <       0.42484246 Ry

     iteration #  9     ecut=    77.00 Ry     beta= 0.20
     Davidson diagonalization with overlap
     ethr =  1.04E-05,  avg # of iterations = 13.5

     negative rho (up, down):  2.649E-04 0.000E+00

     total cpu time spent up to now is     4085.6 secs

     total energy              =  -26031.75108992 Ry
     estimated scf accuracy    <       0.06720853 Ry

     iteration # 10     ecut=    77.00 Ry     beta= 0.20
     Davidson diagonalization with overlap
     c_bands:  3 eigenvalues not converged
     c_bands:  4 eigenvalues not converged
     c_bands:  3 eigenvalues not converged
     ethr =  5.18E-06,  avg # of iterations = 29.8

     negative rho (up, down):  3.161E-04 0.000E+00

     total cpu time spent up to now is     4584.0 secs

     total energy              =  -26031.78508908 Ry
     estimated scf accuracy    <       0.01033793 Ry

     iteration # 11     ecut=    77.00 Ry     beta= 0.20
     Davidson diagonalization with overlap
     c_bands:  3 eigenvalues not converged
     c_bands:  3 eigenvalues not converged
     c_bands:  4 eigenvalues not converged
     ethr =  7.96E-07,  avg # of iterations = 39.2

     negative rho (up, down):  3.608E-04 0.000E+00

     total cpu time spent up to now is     5548.0 secs

     total energy              =  -26031.79994935 Ry
     estimated scf accuracy    <       0.02255673 Ry

     iteration # 12     ecut=    77.00 Ry     beta= 0.20
     Davidson diagonalization with overlap
     c_bands:  3 eigenvalues not converged
     c_bands:  2 eigenvalues not converged
     ethr =  7.96E-07,  avg # of iterations = 19.0

     negative rho (up, down):  5.891E-04 0.000E+00

     total cpu time spent up to now is     5852.5 secs

     total energy              =  -26031.79119723 Ry
     estimated scf accuracy    <       0.01389552 Ry

     iteration # 13     ecut=    77.00 Ry     beta= 0.20
     Davidson diagonalization with overlap
     ethr =  7.96E-07,  avg # of iterations = 12.5

     negative rho (up, down):  8.081E-04 0.000E+00

     total cpu time spent up to now is     6227.0 secs

     total energy              =  -26031.79887771 Ry
     estimated scf accuracy    <       0.00168662 Ry

     iteration # 14     ecut=    77.00 Ry     beta= 0.20
     Davidson diagonalization with overlap
     c_bands:  2 eigenvalues not converged
     c_bands:  4 eigenvalues not converged
     c_bands:  2 eigenvalues not converged
     c_bands:  3 eigenvalues not converged
     ethr =  1.30E-07,  avg # of iterations = 20.0

     negative rho (up, down):  6.966E-04 0.000E+00

     total cpu time spent up to now is     7143.0 secs

     total energy              =  -26031.79691678 Ry
     estimated scf accuracy    <       0.02076450 Ry

     iteration # 15     ecut=    77.00 Ry     beta= 0.20
     Davidson diagonalization with overlap
     ethr =  1.30E-07,  avg # of iterations = 11.5

     negative rho (up, down):  7.453E-04 0.000E+00

     total cpu time spent up to now is     7520.6 secs

     total energy              =  -26031.79790230 Ry
     estimated scf accuracy    <       0.00532443 Ry

     iteration # 16     ecut=    77.00 Ry     beta= 0.20
     Davidson diagonalization with overlap
     ethr =  1.30E-07,  avg # of iterations =  1.0

     negative rho (up, down):  8.500E-04 0.000E+00

     total cpu time spent up to now is     7719.1 secs

     total energy              =  -26031.79616084 Ry
     estimated scf accuracy    <       0.00471710 Ry

     iteration # 17     ecut=    77.00 Ry     beta= 0.20
     Davidson diagonalization with overlap
     ethr =  1.30E-07,  avg # of iterations =  9.5

     negative rho (up, down):  8.611E-04 0.000E+00

     total cpu time spent up to now is     8112.9 secs

     total energy              =  -26031.79737947 Ry
     estimated scf accuracy    <       0.00015015 Ry

     iteration # 18     ecut=    77.00 Ry     beta= 0.20
     Davidson diagonalization with overlap
     c_bands:  2 eigenvalues not converged
     c_bands:  4 eigenvalues not converged
     c_bands:  3 eigenvalues not converged
     c_bands:  3 eigenvalues not converged
     ethr =  1.16E-08,  avg # of iterations = 20.0

     negative rho (up, down):  8.644E-04 0.000E+00

     total cpu time spent up to now is     9112.1 secs

     total energy              =  -26031.79785025 Ry
     estimated scf accuracy    <       0.00064798 Ry

     iteration # 19     ecut=    77.00 Ry     beta= 0.20
     Davidson diagonalization with overlap
     ethr =  1.16E-08,  avg # of iterations =  2.0

     negative rho (up, down):  8.816E-04 0.000E+00

     total cpu time spent up to now is     9331.3 secs

     total energy              =  -26031.79764677 Ry
     estimated scf accuracy    <       0.00040099 Ry

     iteration # 20     ecut=    77.00 Ry     beta= 0.20
     Davidson diagonalization with overlap
     ethr =  1.16E-08,  avg # of iterations = 11.2

     negative rho (up, down):  8.973E-04 0.000E+00

     total cpu time spent up to now is     9724.9 secs

     total energy              =  -26031.79776499 Ry
     estimated scf accuracy    <       0.00000845 Ry

     iteration # 21     ecut=    77.00 Ry     beta= 0.20
     Davidson diagonalization with overlap
     ethr =  6.51E-10,  avg # of iterations = 21.5

     negative rho (up, down):  9.016E-04 0.000E+00

     total cpu time spent up to now is    11229.1 secs

     total energy              =  -26031.79777177 Ry
     estimated scf accuracy    <       0.00010315 Ry

     iteration # 22     ecut=    77.00 Ry     beta= 0.20
     Davidson diagonalization with overlap
     ethr =  6.51E-10,  avg # of iterations = 10.0

     negative rho (up, down):  9.141E-04 0.000E+00

     total cpu time spent up to now is    11662.5 secs

     total energy              =  -26031.79776955 Ry
     estimated scf accuracy    <       0.00001299 Ry

     iteration # 23     ecut=    77.00 Ry     beta= 0.20
     Davidson diagonalization with overlap
     ethr =  6.51E-10,  avg # of iterations = 16.0

     negative rho (up, down):  9.218E-04 0.000E+00

     total cpu time spent up to now is    12218.9 secs

     total energy              =  -26031.79777711 Ry
     estimated scf accuracy    <       0.00001455 Ry

     iteration # 24     ecut=    77.00 Ry     beta= 0.20
     Davidson diagonalization with overlap
     ethr =  6.51E-10,  avg # of iterations =  1.0

     negative rho (up, down):  9.251E-04 0.000E+00

     total cpu time spent up to now is    12417.9 secs

     total energy              =  -26031.79777320 Ry
     estimated scf accuracy    <       0.00000690 Ry

     iteration # 25     ecut=    77.00 Ry     beta= 0.20
     Davidson diagonalization with overlap
     ethr =  5.32E-10,  avg # of iterations =  9.0

     negative rho (up, down):  9.260E-04 0.000E+00

     total cpu time spent up to now is    12656.7 secs

     total energy              =  -26031.79777304 Ry
     estimated scf accuracy    <       0.00000145 Ry

     iteration # 26     ecut=    77.00 Ry     beta= 0.20
     Davidson diagonalization with overlap
     ethr =  1.12E-10,  avg # of iterations = 15.0

     negative rho (up, down):  9.284E-04 0.000E+00

     total cpu time spent up to now is    13142.0 secs

     End of self-consistent calculation

          k = 0.0000 0.0000 0.0000 (321495 PWs)   bands (ev):

  -102.9860 -88.2702 -71.3077 -71.2952 -71.2857 -71.2734 -71.2660 -71.2596
   -71.2520 -66.6951 -66.6740 -66.6740 -66.6740 -66.6740 -66.6740 -66.6740
   -66.6529 -66.6529 -66.6529 -66.6528 -66.6528 -66.6528 -66.6528 -66.6528
   -66.6528 -66.6292 -66.6084 -66.6082 -66.6081 -66.6080 -66.6078 -66.6078
   -66.5875 -66.5872 -66.5871 -66.5869 -66.5868 -66.5868 -66.5867 -66.5866
   -66.5864 -66.5609 -66.5495 -66.5420 -66.5399 -66.5353 -66.5275 -66.5269
   -66.5195 -66.5170 -66.5107 -66.5036 -66.4972 -66.4936 -66.4892 -66.4824
   -66.4758 -57.2311 -57.2184 -57.1815 -54.1313 -54.0798 -54.0053 -41.0216
   -41.0216 -41.0216 -40.9545 -40.9544 -40.9543 -40.9468 -40.9468 -40.9468
   -40.9468 -40.9468 -40.9468 -40.8799 -40.8798 -40.8797 -40.8796 -40.8796
   -40.8795 -40.8793 -40.8779 -40.8721 -40.8552 -40.8212 -40.8212 -40.8212
   -40.8212 -40.8212 -40.8212 -40.8138 -40.8138 -40.8138 -40.8138 -40.8138
   -40.8138 -40.8078 -40.8055 -40.8004 -40.7965 -40.7897 -40.7863 -40.7863
   -40.7863 -40.7863 -40.7863 -40.7863 -40.7819 -40.7803 -40.7721 -40.7721
   -40.7721 -40.7721 -40.7721 -40.7721 -40.7721 -40.7721 -40.7721 -40.7545
   -40.7543 -40.7542 -40.7542 -40.7541 -40.7541 -40.7487 -40.7485 -40.7484
   -40.7484 -40.7482 -40.7481 -40.7431 -40.7196 -40.7196 -40.7194 -40.7194
   -40.7193 -40.7193 -40.7181 -40.7085 -40.7085 -40.7085 -40.7072 -40.7070
   -40.7069 -40.7067 -40.7067 -40.7066 -40.7066 -40.7065 -40.7063 -40.6913
   -40.6854 -40.6840 -40.6827 -40.6818 -40.6797 -40.6786 -40.6726 -40.6684
   -40.6661 -40.6617 -40.6617 -40.6617 -40.6617 -40.6617 -40.6617 -40.6531
   -40.6517 -40.6505 -40.6468 -40.6460 -40.6418 -40.6417 -40.6417 -40.6403
   -40.6381 -40.6377 -40.6372 -40.6310 -40.6306 -40.6260 -40.6240 -40.6192
   -40.6183 -40.6174 -40.6144 -40.6144 -40.5953 -40.5950 -40.5949 -40.5949
   -40.5948 -40.5947 -40.5637 -40.5614 -40.5583 -40.5477 -40.5477 -40.5142
   -40.5130 -40.5078 -40.5068 -40.5023 -40.4992 -40.4541 -40.4489 -20.1403
   -20.0722 -19.9315 -19.4786 -19.2919 -19.2743 -19.2617 -19.2607 -19.2598
   -19.2526 -19.2368 -19.2224 -19.1649 -19.1546 -19.1465 -19.1072 -19.0926
   -19.0886 -19.0557 -19.0389 -19.0211 -18.8856 -18.7460 -18.6687 -18.5549
   -18.5503 -18.5080 -18.4787 -18.4682 -18.4630 -18.4382 -18.4141 -18.3895
   -18.3558 -18.3454 -18.3103 -18.2807 -18.2677 -18.2232 -18.2217 -18.2087
   -18.1712 -18.1601 -18.1563 -18.1549 -18.1549 -18.1544 -18.1544 -18.1536
   -18.1513 -18.1144 -18.1144 -18.1143 -18.0890 -18.0818 -18.0766 -18.0737
   -18.0701 -18.0672 -18.0617 -18.0425 -18.0422 -18.0388 -18.0210 -17.9956
   -17.9875 -17.9810 -17.9767 -17.9748 -17.9594 -17.9559 -17.9547 -17.9445
   -17.9344 -17.9307 -17.9292 -17.9279 -17.9255 -17.9012 -17.8956 -17.8917
   -17.8758 -17.8710 -17.8621 -17.8605 -17.8561 -17.8531 -17.8317 -17.8278
   -17.8210 -17.7987 -17.7888 -17.7839 -17.7777 -17.7757 -17.7681 -12.0766
   -11.9726 -11.8507 -11.7926 -11.7686 -11.7671 -11.7581 -11.6879 -11.6838
   -11.6753 -11.6433 -11.3821 -11.3613 -11.3323 -11.2481 -11.2205 -11.2186
   -11.2161 -11.2078 -11.2007 -11.1909 -11.1486 -11.1434 -11.1422 -11.1405
   -11.1385 -11.1334 -11.1187 -11.0660 -11.0499 -11.0211 -11.0133 -11.0034
   -10.9958 -10.9863 -10.9816 -10.9551 -10.9425 -10.9360 -10.9339 -10.9282
   -10.9243 -10.8999 -10.8989 -10.8748 -10.8650 -10.8550 -10.8488 -10.8460
   -10.8456 -10.8439 -10.8429 -10.8398 -10.8218 -10.8170 -10.8166 -10.8138
   -10.8004 -10.7971 -10.7952 -10.7929 -10.7920 -10.7794 -10.7695 -10.7414
   -10.7379 -10.7224 -10.7060 -10.6985 -10.6680 -10.6497 -10.6389 -10.6205
   -10.6137 -10.6095 -10.4721 -10.3874 -10.1087 -10.0848 -10.0627 -10.0614
   -10.0508  -9.9166  -9.9138  -9.8877  -9.8427  -9.8324  -9.7993  -9.7955
    -9.7924  -9.7871  -9.7753  -9.7580  -9.7460  -9.7270  -9.7133  -9.7085
    -9.7028  -9.6945  -9.6795  -9.6618  -9.6454  -9.6441  -9.6357  -9.6335
    -9.6270  -9.6217  -9.6051  -9.5911  -9.5893  -9.5887  -9.5876  -9.5856
    -9.5847  -9.5828  -9.5673  -9.5522  -9.5388  -9.5357  -9.5265  -9.4809
    -9.4712  -9.4544  -9.4509  -9.4473  -9.4430  -9.4157  -9.3792  -9.3747
    -9.3541  -9.3514  -9.3437  -9.3289  -9.3170  -9.3015  -9.2747  -9.2617
    -9.2416  -9.2350  -9.2182  -9.2082  -9.2067  -9.2034  -9.1895  -9.1351
    -9.1216  -9.0960  -9.0734  -9.0437  -9.0361  -9.0333  -9.0332  -9.0329
    -9.0273  -9.0253  -8.9997  -8.9734  -8.9574  -8.9555  -8.9532  -8.9357
    -8.9046  -8.8890  -8.8734  -8.8621  -8.8318  -8.8260  -8.8172  -8.8150
    -8.8131  -8.8085  -8.8052  -8.7976  -8.7921  -8.7714  -8.7642  -8.7547
    -8.7454  -8.7383  -8.7316  -8.7261  -8.7107  -8.7064  -8.6135  -8.4974
    -8.4779  -8.4444  -8.4443  -8.3717  -8.3716  -8.3506  -8.3351  -8.3323
    -8.3322  -8.3321  -8.3321  -8.3321  -8.3288  -8.2955  -8.2913  -8.2828
    -8.2639  -8.2611  -8.2544  -8.2540  -8.2528  -8.2505  -8.2258  -8.2021
    -8.1410  -8.0966  -8.0320  -7.9570  -7.9488  -7.9274  -7.9041  -7.7408
    -7.7088  -7.6936  -7.6710  -7.6306  -7.5982  -7.5971  -7.5968  -7.5966
    -7.5966  -7.5961  -7.5792  -7.5707  -7.5510  -7.5507  -7.5503  -7.5500
    -7.5497  -7.5494  -7.5331  -7.5264  -7.5237  -7.5200  -7.5165  -7.5139
    -7.5124  -7.5047  -7.4940  -7.4850  -7.4810  -7.4782  -7.4766  -7.4746
    -7.4687  -7.4630  -7.4579  -7.4519  -7.4362  -7.4344  -7.4330  -7.4318
    -7.4301  -7.4195  -7.3968  -7.3842  -7.3155  -7.3155  -7.3017  -7.2903
    -7.2655  -7.2592  -7.2469  -7.2426  -7.2364  -7.2056  -7.1935  -7.1548
    -7.0700  -7.0392  -7.0043  -6.9802  -6.9420  -6.9151  -6.8962  -6.8912
    -6.8515  -6.8427  -6.8198  -6.8107  -6.8067  -6.7863  -6.7178  -6.6815
    -6.6790  -6.6701  -6.6605  -6.6437  -6.6309  -6.6292  -6.6254  -6.6139
    -6.5807  -6.5569  -6.5403  -6.5357  -6.5327  -6.5257  -6.5228  -6.5216
    -6.5144  -6.4923  -6.4880  -6.4777  -6.4725  -6.4572  -6.4531  -6.4387
    -6.4337  -6.4296  -6.4252  -6.3866  -6.3677  -6.3634  -6.3634  -6.3634
    -6.3634  -6.3634  -6.3633  -6.3363  -6.3081  -6.2961  -6.2880  -6.2867
    -6.2849  -6.2841  -6.2827  -6.2744  -6.2543  -6.2301  -6.1983  -6.1881
    -6.1110  -5.9774  -5.8396  -5.7370  -5.5314  -5.4803  -5.3994  -5.3686
    -5.1395  -4.1608  -3.9088  -3.8488  -3.8477  -3.8444  -3.8412  -3.8222
    -3.8193  -3.8152  -3.8142  -3.8125  -3.8102  -3.7895  -3.7270  -3.6225
    -3.6178  -3.6035  -3.5978  -3.5941  -3.5881  -3.5831  -3.5801  -3.5784
    -3.5742  -3.5040  -3.5040  -3.5040  -3.4895  -3.4869  -3.4858  -3.4857
    -3.4839  -3.4835  -3.4460  -3.4369  -3.4367  -3.4366  -3.4249  -3.4109
    -3.4071  -3.3917  -3.3893  -3.3865  -3.3814  -3.3799  -3.3769  -3.3698
    -3.3684  -3.3535  -3.3522  -3.3482  -3.3407  -3.3177  -3.3049  -3.2861
    -3.2800  -3.2740  -3.2691  -3.2473  -3.2430  -3.2380  -3.2209  -3.1975
    -3.0387  -3.0384  -3.0384  -3.0324  -3.0323  -3.0246  -2.9784  -2.9687
    -2.9664  -2.9660  -2.9655  -2.9653  -2.9651  -2.9648  -2.9635  -2.9548
    -2.9466  -2.9451  -2.9417  -2.9383  -2.9145  -2.9112  -2.9038  -2.9013
    -2.8991  -2.8960  -2.8923  -2.8916  -2.8808  -2.8793  -2.8792  -2.8613
    -2.8584  -2.8274  -2.8264  -2.8157  -2.8109  -2.8065  -2.7954  -2.7746
    -2.7740  -2.7566  -2.7552  -2.7520  -2.7508  -2.7479  -2.7449  -2.7052
    -2.7044  -2.7017  -2.6777  -2.6585  -2.6456  -2.6399  -2.6357  -2.6216
    -2.6109  -2.5561  -2.5455  -2.5374  -2.5322  -2.5055  -2.4904  -2.4786
    -2.4650  -2.4606  -2.4556

          k = 0.0000-0.5773 0.0000 (321564 PWs)   bands (ev):

  -102.9860 -88.2702 -71.3077 -71.2952 -71.2857 -71.2734 -71.2660 -71.2596
   -71.2520 -66.6890 -66.6890 -66.6784 -66.6784 -66.6635 -66.6635 -66.6635
   -66.6635 -66.6591 -66.6591 -66.6528 -66.6528 -66.6528 -66.6528 -66.6484
   -66.6484 -66.6231 -66.6229 -66.6125 -66.6124 -66.5976 -66.5976 -66.5975
   -66.5973 -66.5932 -66.5930 -66.5872 -66.5869 -66.5868 -66.5867 -66.5825
   -66.5824 -66.5595 -66.5516 -66.5431 -66.5392 -66.5353 -66.5273 -66.5253
   -66.5200 -66.5162 -66.5115 -66.5034 -66.4972 -66.4940 -66.4891 -66.4825
   -66.4757 -57.2311 -57.2184 -57.1815 -54.1313 -54.0799 -54.0053 -40.9902
   -40.9901 -40.9901 -40.9901 -40.9635 -40.9635 -40.9516 -40.9516 -40.9233
   -40.9230 -40.9229 -40.9228 -40.9012 -40.9012 -40.9012 -40.9012 -40.8965
   -40.8963 -40.8845 -40.8844 -40.8635 -40.8473 -40.8431 -40.8431 -40.8385
   -40.8342 -40.8341 -40.8341 -40.8340 -40.8332 -40.8332 -40.8283 -40.8224
   -40.8224 -40.8222 -40.8172 -40.8044 -40.7930 -40.7930 -40.7930 -40.7930
   -40.7893 -40.7843 -40.7843 -40.7778 -40.7775 -40.7722 -40.7722 -40.7721
   -40.7721 -40.7721 -40.7721 -40.7663 -40.7662 -40.7635 -40.7635 -40.7570
   -40.7569 -40.7535 -40.7528 -40.7508 -40.7419 -40.7414 -40.7414 -40.7414
   -40.7414 -40.7289 -40.7277 -40.7277 -40.7276 -40.7274 -40.7190 -40.7188
   -40.7160 -40.7070 -40.7069 -40.7069 -40.7069 -40.7069 -40.7067 -40.7066
   -40.7065 -40.7053 -40.7052 -40.7032 -40.6981 -40.6981 -40.6949 -40.6949
   -40.6894 -40.6809 -40.6790 -40.6757 -40.6757 -40.6747 -40.6747 -40.6746
   -40.6746 -40.6744 -40.6658 -40.6598 -40.6589 -40.6588 -40.6588 -40.6508
   -40.6487 -40.6428 -40.6402 -40.6401 -40.6401 -40.6400 -40.6400 -40.6367
   -40.6318 -40.6283 -40.6283 -40.6282 -40.6279 -40.6255 -40.6235 -40.6196
   -40.6175 -40.6090 -40.6088 -40.6023 -40.5973 -40.5921 -40.5920 -40.5919
   -40.5826 -40.5629 -40.5617 -40.5615 -40.5557 -40.5537 -40.5506 -40.5430
   -40.5287 -40.5265 -40.5239 -40.5052 -40.4867 -40.4826 -40.4541 -19.9611
   -19.8911 -19.8713 -19.7807 -19.7126 -19.6588 -19.4738 -19.4604 -19.4230
   -19.3848 -19.2848 -19.2651 -19.0063 -18.8237 -18.8046 -18.7526 -18.7497
   -18.7473 -18.7436 -18.7350 -18.7092 -18.6752 -18.6502 -18.6243 -18.6202
   -18.6052 -18.5883 -18.5580 -18.5495 -18.5470 -18.5018 -18.4994 -18.4804
   -18.4613 -18.4343 -18.4203 -18.4078 -18.4019 -18.3738 -18.3436 -18.3095
   -18.2878 -18.2803 -18.2421 -18.2279 -18.2247 -18.2033 -18.1838 -18.1502
   -18.1350 -18.1350 -18.1349 -18.1347 -18.1295 -18.1196 -18.1090 -18.0961
   -18.0729 -18.0602 -18.0590 -18.0566 -18.0538 -18.0499 -18.0200 -18.0197
   -18.0016 -17.9959 -17.9865 -17.9790 -17.9777 -17.9559 -17.9482 -17.9443
   -17.9344 -17.9325 -17.9190 -17.8961 -17.8849 -17.8715 -17.8715 -17.8692
   -17.8669 -17.8285 -17.8222 -17.8119 -17.8116 -17.7967 -17.7954 -17.7917
   -17.7896 -17.7765 -17.7656 -17.7514 -17.7498 -17.6931 -17.6892 -11.9856
   -11.8097 -11.6858 -11.6529 -11.5950 -11.4829 -11.4824 -11.4799 -11.4793
   -11.4725 -11.4587 -11.4427 -11.4183 -11.4016 -11.3967 -11.3839 -11.3791
   -11.3491 -11.3271 -11.3172 -11.3077 -11.3017 -11.2903 -11.2842 -11.2643
   -11.2643 -11.2597 -11.2197 -11.2186 -11.2155 -11.1803 -11.1657 -11.1587
   -11.1586 -11.1275 -11.0983 -11.0151 -11.0067 -10.9967 -10.9804 -10.9748
   -10.9552 -10.9274 -10.9243 -10.9209 -10.9075 -10.8939 -10.8865 -10.8733
   -10.8569 -10.8440 -10.8394 -10.8378 -10.8371 -10.8356 -10.8326 -10.8160
   -10.8064 -10.7861 -10.7743 -10.7714 -10.7658 -10.7613 -10.7006 -10.6663
   -10.5994 -10.5945 -10.5830 -10.5017 -10.4954 -10.4069 -10.3738 -10.3124
   -10.2442 -10.1809 -10.1442 -10.1385 -10.1312 -10.1079 -10.0986 -10.0663
   -10.0514 -10.0413 -10.0149  -9.9855  -9.9607  -9.9491  -9.9440  -9.9384
    -9.9355  -9.9290  -9.9237  -9.9056  -9.8994  -9.8917  -9.8842  -9.8290
    -9.8035  -9.7972  -9.7915  -9.7651  -9.7552  -9.7439  -9.7277  -9.7205
    -9.7196  -9.7092  -9.7048  -9.6776  -9.6730  -9.6561  -9.6516  -9.6483
    -9.6243  -9.6184  -9.6087  -9.5942  -9.5529  -9.5389  -9.5376  -9.5279
    -9.5114  -9.4788  -9.4765  -9.4620  -9.4413  -9.3575  -9.3379  -9.3000
    -9.2821  -9.2704  -9.2183  -9.2077  -9.2026  -9.1781  -9.1541  -9.1456
    -9.1399  -9.1356  -9.1348  -9.1168  -9.0961  -9.0888  -9.0761  -9.0484
    -9.0454  -9.0331  -9.0280  -9.0230  -9.0063  -8.9954  -8.9761  -8.9723
    -8.9585  -8.9552  -8.9493  -8.9427  -8.9391  -8.9366  -8.9225  -8.9138
    -8.9030  -8.8884  -8.8786  -8.8665  -8.8653  -8.8609  -8.8536  -8.8473
    -8.8466  -8.8445  -8.8338  -8.8221  -8.8105  -8.7962  -8.7826  -8.7762
    -8.7701  -8.7577  -8.7479  -8.7321  -8.7169  -8.6396  -8.5572  -8.5531
    -8.5192  -8.5182  -8.4408  -8.4360  -8.4208  -8.3829  -8.3353  -8.2690
    -8.2354  -8.2317  -8.2007  -8.2007  -8.1291  -8.1288  -8.1275  -8.0896
    -8.0717  -7.9991  -7.9763  -7.9500  -7.9398  -7.9315  -7.8796  -7.8693
    -7.8661  -7.8635  -7.8560  -7.8541  -7.8540  -7.8532  -7.8521  -7.8363
    -7.8160  -7.8085  -7.8080  -7.8075  -7.8017  -7.7892  -7.7838  -7.7796
    -7.7670  -7.7664  -7.7610  -7.7537  -7.7399  -7.7370  -7.7311  -7.7261
    -7.7218  -7.7124  -7.7042  -7.6968  -7.6896  -7.6850  -7.6691  -7.6688
    -7.6656  -7.6643  -7.6558  -7.6393  -7.6313  -7.6138  -7.6035  -7.6000
    -7.5946  -7.5794  -7.5713  -7.5537  -7.5343  -7.5325  -7.4728  -7.4636
    -7.4486  -7.3858  -7.3436  -7.2824  -7.2653  -7.2469  -7.2405  -7.2290
    -7.1961  -7.1925  -7.1431  -7.1268  -7.1189  -7.0750  -7.0586  -7.0228
    -7.0164  -7.0159  -6.9948  -6.9862  -6.9728  -6.9539  -6.9508  -6.9442
    -6.9096  -6.8986  -6.8613  -6.8455  -6.8361  -6.8309  -6.8095  -6.7779
    -6.7381  -6.7061  -6.6861  -6.6664  -6.6657  -6.6656  -6.6656  -6.6597
    -6.6521  -6.6378  -6.6161  -6.6006  -6.5981  -6.5949  -6.5935  -6.5826
    -6.5580  -6.5434  -6.5298  -6.5109  -6.4675  -6.4525  -6.4404  -6.3484
    -6.3348  -6.3341  -6.3339  -6.3332  -6.3088  -6.2765  -6.2729  -6.2643
    -6.2570  -6.2529  -6.2506  -6.2454  -6.2337  -6.2025  -6.1972  -6.1659
    -6.1593  -6.1065  -5.9966  -5.9855  -5.9854  -5.9093  -5.9077  -5.8557
    -5.7920  -5.7682  -5.6693  -5.6624  -5.5546  -5.5350  -5.4721  -5.3845
    -5.3242  -4.1726  -4.0455  -4.0222  -4.0218  -3.9874  -3.9013  -3.9011
    -3.8998  -3.8671  -3.8383  -3.8360  -3.8334  -3.7818  -3.7712  -3.7669
    -3.7648  -3.7195  -3.6968  -3.6372  -3.6096  -3.6057  -3.6017  -3.6009
    -3.5866  -3.5864  -3.5842  -3.5635  -3.5458  -3.5220  -3.5125  -3.5073
    -3.5047  -3.4908  -3.4836  -3.4829  -3.4776  -3.4687  -3.4679  -3.4339
    -3.4265  -3.4124  -3.3919  -3.3740  -3.3608  -3.3562  -3.3536  -3.3532
    -3.3245  -3.3231  -3.3215  -3.3120  -3.2906  -3.2807  -3.2778  -3.2771
    -3.2768  -3.2735  -3.2569  -3.2483  -3.2369  -3.2306  -3.2281  -3.2122
    -3.2121  -3.2064  -3.2045  -3.1982  -3.1894  -3.1601  -3.1477  -3.1258
    -3.1163  -3.1089  -3.0894  -3.0746  -3.0718  -3.0393  -3.0351  -3.0320
    -3.0262  -3.0160  -3.0141  -3.0139  -3.0134  -2.9862  -2.9786  -2.9666
    -2.9639  -2.9532  -2.9485  -2.9395  -2.9288  -2.9196  -2.9178  -2.9153
    -2.9014  -2.8972  -2.8914  -2.8835  -2.8671  -2.8644  -2.8487  -2.8375
    -2.8150  -2.8038  -2.7997  -2.7978  -2.7882  -2.7436  -2.7309  -2.7132
    -2.7051  -2.6586  -2.6524  -2.6509  -2.6433  -2.6346  -2.6290  -2.5708
    -2.5646  -2.5192  -2.5124  -2.5039  -2.4904  -2.4887  -2.4514  -2.3658
    -2.3473  -2.3398  -2.2918

          k =-0.5000-0.2887 0.0000 (321564 PWs)   bands (ev):

  -102.9860 -88.2702 -71.3077 -71.2952 -71.2857 -71.2734 -71.2660 -71.2596
   -71.2520 -66.6890 -66.6890 -66.6784 -66.6784 -66.6635 -66.6635 -66.6635
   -66.6635 -66.6591 -66.6591 -66.6529 -66.6528 -66.6528 -66.6528 -66.6484
   -66.6484 -66.6230 -66.6230 -66.6125 -66.6124 -66.5976 -66.5976 -66.5976
   -66.5972 -66.5932 -66.5930 -66.5871 -66.5869 -66.5868 -66.5868 -66.5826
   -66.5824 -66.5583 -66.5544 -66.5414 -66.5376 -66.5344 -66.5311 -66.5249
   -66.5198 -66.5160 -66.5111 -66.5037 -66.4972 -66.4937 -66.4892 -66.4826
   -66.4756 -57.2311 -57.2184 -57.1815 -54.1313 -54.0799 -54.0053 -40.9902
   -40.9901 -40.9901 -40.9901 -40.9635 -40.9635 -40.9516 -40.9516 -40.9231
   -40.9230 -40.9230 -40.9229 -40.9012 -40.9012 -40.9012 -40.9012 -40.8964
   -40.8964 -40.8845 -40.8844 -40.8581 -40.8496 -40.8445 -40.8431 -40.8431
   -40.8342 -40.8342 -40.8340 -40.8340 -40.8332 -40.8332 -40.8270 -40.8254
   -40.8224 -40.8224 -40.8208 -40.8006 -40.7930 -40.7930 -40.7930 -40.7930
   -40.7845 -40.7843 -40.7843 -40.7777 -40.7776 -40.7722 -40.7722 -40.7721
   -40.7721 -40.7721 -40.7721 -40.7664 -40.7662 -40.7635 -40.7635 -40.7570
   -40.7569 -40.7537 -40.7509 -40.7458 -40.7414 -40.7414 -40.7414 -40.7414
   -40.7412 -40.7322 -40.7277 -40.7276 -40.7276 -40.7274 -40.7190 -40.7189
   -40.7157 -40.7069 -40.7069 -40.7069 -40.7069 -40.7069 -40.7067 -40.7067
   -40.7066 -40.7054 -40.7052 -40.7046 -40.6982 -40.6980 -40.6949 -40.6949
   -40.6878 -40.6820 -40.6795 -40.6776 -40.6757 -40.6757 -40.6748 -40.6746
   -40.6745 -40.6745 -40.6661 -40.6622 -40.6588 -40.6588 -40.6562 -40.6539
   -40.6475 -40.6419 -40.6402 -40.6402 -40.6401 -40.6400 -40.6400 -40.6359
   -40.6319 -40.6283 -40.6283 -40.6281 -40.6280 -40.6266 -40.6245 -40.6201
   -40.6172 -40.6090 -40.6087 -40.5981 -40.5979 -40.5925 -40.5921 -40.5919
   -40.5879 -40.5625 -40.5616 -40.5615 -40.5570 -40.5516 -40.5484 -40.5422
   -40.5309 -40.5303 -40.5191 -40.5021 -40.4860 -40.4807 -40.4582 -19.9522
   -19.8926 -19.8703 -19.7934 -19.7131 -19.6730 -19.4630 -19.4605 -19.4048
   -19.3836 -19.2807 -19.2641 -19.0196 -18.8400 -18.8034 -18.7559 -18.7480
   -18.7476 -18.7438 -18.7384 -18.7036 -18.6725 -18.6455 -18.6269 -18.6154
   -18.6079 -18.5819 -18.5592 -18.5557 -18.5486 -18.5004 -18.4997 -18.4740
   -18.4653 -18.4448 -18.4188 -18.4064 -18.3978 -18.3830 -18.3254 -18.3141
   -18.3014 -18.2583 -18.2475 -18.2294 -18.2263 -18.1938 -18.1751 -18.1557
   -18.1356 -18.1350 -18.1348 -18.1348 -18.1338 -18.1128 -18.1088 -18.0800
   -18.0759 -18.0642 -18.0589 -18.0579 -18.0517 -18.0459 -18.0394 -18.0099
   -18.0041 -17.9985 -17.9846 -17.9821 -17.9776 -17.9547 -17.9493 -17.9455
   -17.9400 -17.9329 -17.9234 -17.8906 -17.8862 -17.8770 -17.8715 -17.8715
   -17.8677 -17.8263 -17.8214 -17.8121 -17.8115 -17.8079 -17.7964 -17.7951
   -17.7893 -17.7715 -17.7565 -17.7513 -17.7459 -17.6950 -17.6862 -11.9471
   -11.7957 -11.6906 -11.6602 -11.6490 -11.4938 -11.4897 -11.4811 -11.4790
   -11.4715 -11.4616 -11.4570 -11.4484 -11.4074 -11.3863 -11.3818 -11.3770
   -11.3558 -11.3514 -11.3291 -11.3139 -11.2911 -11.2891 -11.2643 -11.2643
   -11.2589 -11.2516 -11.2186 -11.2183 -11.1996 -11.1648 -11.1645 -11.1604
   -11.1589 -11.1126 -11.0624 -11.0321 -11.0239 -10.9934 -10.9760 -10.9716
   -10.9548 -10.9302 -10.9250 -10.9138 -10.9074 -10.8928 -10.8792 -10.8690
   -10.8643 -10.8397 -10.8390 -10.8372 -10.8368 -10.8316 -10.8241 -10.8201
   -10.8112 -10.7962 -10.7742 -10.7705 -10.7697 -10.7616 -10.7142 -10.6370
   -10.5914 -10.5832 -10.5447 -10.5051 -10.4963 -10.4242 -10.3813 -10.3169
   -10.2876 -10.1971 -10.1612 -10.1335 -10.1251 -10.1167 -10.1077 -10.0547
   -10.0427 -10.0244 -10.0198  -9.9704  -9.9548  -9.9466  -9.9444  -9.9393
    -9.9342  -9.9160  -9.9095  -9.9068  -9.9004  -9.8860  -9.8820  -9.8220
    -9.8093  -9.7849  -9.7686  -9.7623  -9.7591  -9.7407  -9.7248  -9.7209
    -9.7164  -9.7083  -9.7045  -9.6812  -9.6651  -9.6633  -9.6488  -9.6372
    -9.6208  -9.6154  -9.6139  -9.5682  -9.5473  -9.5419  -9.5387  -9.5313
    -9.5180  -9.4892  -9.4790  -9.4762  -9.4516  -9.3906  -9.3638  -9.3321
    -9.3092  -9.2759  -9.2181  -9.2095  -9.1967  -9.1801  -9.1616  -9.1510
    -9.1457  -9.1401  -9.1337  -9.1181  -9.0992  -9.0896  -9.0593  -9.0511
    -9.0369  -9.0350  -9.0262  -9.0066  -9.0010  -8.9951  -8.9859  -8.9708
    -8.9640  -8.9542  -8.9431  -8.9397  -8.9388  -8.9367  -8.9324  -8.9054
    -8.9030  -8.8783  -8.8661  -8.8648  -8.8613  -8.8550  -8.8482  -8.8464
    -8.8459  -8.8405  -8.8321  -8.8245  -8.8175  -8.8042  -8.8019  -8.7762
    -8.7703  -8.7657  -8.7506  -8.7318  -8.7121  -8.6534  -8.5769  -8.5357
    -8.5193  -8.5181  -8.4425  -8.4357  -8.4309  -8.4006  -8.3239  -8.3105
    -8.2008  -8.2007  -8.1932  -8.1510  -8.1370  -8.1287  -8.1275  -8.0959
    -8.0827  -8.0052  -7.9664  -7.9403  -7.9385  -7.9076  -7.8736  -7.8706
    -7.8645  -7.8632  -7.8547  -7.8541  -7.8540  -7.8536  -7.8467  -7.8453
    -7.8171  -7.8080  -7.8076  -7.8055  -7.8034  -7.7880  -7.7836  -7.7791
    -7.7680  -7.7641  -7.7555  -7.7546  -7.7385  -7.7366  -7.7326  -7.7291
    -7.7238  -7.7132  -7.7027  -7.7006  -7.6912  -7.6781  -7.6688  -7.6687
    -7.6639  -7.6569  -7.6474  -7.6365  -7.6289  -7.6103  -7.6058  -7.6016
    -7.5995  -7.5896  -7.5580  -7.5538  -7.5399  -7.5208  -7.5195  -7.4670
    -7.4553  -7.3826  -7.3451  -7.2904  -7.2664  -7.2461  -7.2420  -7.2267
    -7.2044  -7.1521  -7.1374  -7.1264  -7.1148  -7.0817  -7.0602  -7.0332
    -7.0187  -7.0163  -7.0070  -6.9918  -6.9625  -6.9573  -6.9509  -6.9161
    -6.9089  -6.9016  -6.8959  -6.8689  -6.8437  -6.8381  -6.8169  -6.7724
    -6.7339  -6.7035  -6.6971  -6.6770  -6.6685  -6.6657  -6.6656  -6.6655
    -6.6648  -6.6322  -6.6033  -6.5985  -6.5971  -6.5944  -6.5915  -6.5683
    -6.5612  -6.5468  -6.5238  -6.4931  -6.4599  -6.4445  -6.4363  -6.4148
    -6.3353  -6.3343  -6.3338  -6.3335  -6.3129  -6.2698  -6.2671  -6.2593
    -6.2518  -6.2501  -6.2476  -6.2382  -6.2147  -6.2089  -6.1899  -6.1773
    -6.1486  -5.9985  -5.9856  -5.9855  -5.9646  -5.9166  -5.9073  -5.8991
    -5.8531  -5.7569  -5.6652  -5.6475  -5.5857  -5.5468  -5.4807  -5.3829
    -5.3260  -4.1955  -4.0392  -4.0279  -4.0244  -3.9964  -3.9010  -3.9010
    -3.8923  -3.8631  -3.8363  -3.8360  -3.8312  -3.7868  -3.7837  -3.7684
    -3.7599  -3.7311  -3.6851  -3.6307  -3.6088  -3.6038  -3.6019  -3.5998
    -3.5875  -3.5864  -3.5863  -3.5586  -3.5529  -3.5259  -3.5110  -3.5090
    -3.5034  -3.4863  -3.4807  -3.4768  -3.4755  -3.4704  -3.4687  -3.4251
    -3.4134  -3.4041  -3.3780  -3.3668  -3.3638  -3.3545  -3.3536  -3.3452
    -3.3257  -3.3225  -3.3157  -3.3135  -3.3099  -3.2847  -3.2779  -3.2774
    -3.2770  -3.2755  -3.2576  -3.2437  -3.2392  -3.2318  -3.2203  -3.2148
    -3.2116  -3.2049  -3.1999  -3.1911  -3.1846  -3.1746  -3.1417  -3.1255
    -3.1154  -3.1061  -3.0932  -3.0746  -3.0720  -3.0429  -3.0368  -3.0317
    -3.0284  -3.0147  -3.0143  -3.0139  -3.0134  -2.9841  -2.9745  -2.9667
    -2.9644  -2.9514  -2.9459  -2.9356  -2.9264  -2.9229  -2.9205  -2.9141
    -2.9048  -2.8963  -2.8879  -2.8775  -2.8735  -2.8639  -2.8412  -2.8346
    -2.8311  -2.8127  -2.8065  -2.8001  -2.7919  -2.7401  -2.7346  -2.7128
    -2.7053  -2.6610  -2.6534  -2.6514  -2.6452  -2.6350  -2.6284  -2.5724
    -2.5645  -2.5229  -2.5150  -2.5023  -2.4975  -2.4869  -2.4562  -2.3691
    -2.3583  -2.3022  -2.2975

          k =-0.5000-0.8660 0.0000 (321564 PWs)   bands (ev):

  -102.9860 -88.2702 -71.3077 -71.2952 -71.2857 -71.2734 -71.2660 -71.2596
   -71.2520 -66.6890 -66.6890 -66.6784 -66.6784 -66.6635 -66.6635 -66.6635
   -66.6635 -66.6591 -66.6591 -66.6528 -66.6528 -66.6528 -66.6528 -66.6484
   -66.6484 -66.6232 -66.6228 -66.6125 -66.6124 -66.5976 -66.5976 -66.5975
   -66.5973 -66.5933 -66.5929 -66.5871 -66.5871 -66.5869 -66.5865 -66.5826
   -66.5824 -66.5578 -66.5552 -66.5419 -66.5367 -66.5345 -66.5298 -66.5262
   -66.5203 -66.5161 -66.5104 -66.5038 -66.4971 -66.4936 -66.4894 -66.4826
   -66.4756 -57.2311 -57.2184 -57.1815 -54.1313 -54.0799 -54.0053 -40.9902
   -40.9902 -40.9901 -40.9901 -40.9635 -40.9635 -40.9516 -40.9516 -40.9232
   -40.9232 -40.9229 -40.9227 -40.9012 -40.9012 -40.9012 -40.9012 -40.8965
   -40.8963 -40.8845 -40.8844 -40.8530 -40.8526 -40.8432 -40.8431 -40.8431
   -40.8342 -40.8342 -40.8341 -40.8340 -40.8332 -40.8332 -40.8300 -40.8260
   -40.8224 -40.8224 -40.8223 -40.8031 -40.7930 -40.7930 -40.7930 -40.7930
   -40.7843 -40.7843 -40.7818 -40.7778 -40.7775 -40.7722 -40.7722 -40.7721
   -40.7721 -40.7721 -40.7721 -40.7664 -40.7662 -40.7635 -40.7635 -40.7576
   -40.7570 -40.7569 -40.7489 -40.7424 -40.7414 -40.7414 -40.7414 -40.7414
   -40.7391 -40.7330 -40.7277 -40.7276 -40.7276 -40.7274 -40.7191 -40.7188
   -40.7124 -40.7090 -40.7069 -40.7069 -40.7069 -40.7069 -40.7069 -40.7069
   -40.7067 -40.7064 -40.7054 -40.7052 -40.6982 -40.6980 -40.6949 -40.6949
   -40.6890 -40.6817 -40.6776 -40.6757 -40.6757 -40.6748 -40.6747 -40.6745
   -40.6744 -40.6743 -40.6666 -40.6638 -40.6599 -40.6588 -40.6588 -40.6549
   -40.6446 -40.6424 -40.6402 -40.6402 -40.6400 -40.6400 -40.6381 -40.6363
   -40.6316 -40.6283 -40.6283 -40.6282 -40.6279 -40.6265 -40.6244 -40.6208
   -40.6168 -40.6091 -40.6087 -40.5977 -40.5962 -40.5929 -40.5921 -40.5919
   -40.5917 -40.5648 -40.5618 -40.5614 -40.5557 -40.5519 -40.5497 -40.5389
   -40.5336 -40.5307 -40.5158 -40.5039 -40.4827 -40.4802 -40.4605 -19.9558
   -19.8919 -19.8707 -19.7874 -19.7128 -19.6670 -19.4731 -19.4587 -19.4229
   -19.3743 -19.2849 -19.2589 -19.0067 -18.8340 -18.8047 -18.7554 -18.7483
   -18.7474 -18.7438 -18.7353 -18.7101 -18.6788 -18.6459 -18.6241 -18.6189
   -18.6129 -18.5805 -18.5597 -18.5568 -18.5452 -18.5021 -18.4993 -18.4817
   -18.4673 -18.4339 -18.4217 -18.4060 -18.3993 -18.3831 -18.3289 -18.3229
   -18.2760 -18.2612 -18.2413 -18.2340 -18.2237 -18.1911 -18.1763 -18.1641
   -18.1355 -18.1351 -18.1349 -18.1347 -18.1327 -18.1134 -18.1101 -18.0831
   -18.0758 -18.0647 -18.0600 -18.0572 -18.0527 -18.0465 -18.0365 -18.0109
   -18.0030 -17.9936 -17.9880 -17.9821 -17.9774 -17.9550 -17.9508 -17.9464
   -17.9386 -17.9326 -17.9225 -17.8915 -17.8881 -17.8760 -17.8715 -17.8715
   -17.8672 -17.8258 -17.8238 -17.8116 -17.8115 -17.8075 -17.7955 -17.7951
   -17.7876 -17.7704 -17.7567 -17.7512 -17.7472 -17.6957 -17.6858 -11.9640
   -11.7935 -11.6904 -11.6563 -11.6153 -11.5025 -11.4847 -11.4826 -11.4800
   -11.4753 -11.4585 -11.4517 -11.4390 -11.4019 -11.3924 -11.3816 -11.3766
   -11.3614 -11.3316 -11.3217 -11.3095 -11.2967 -11.2916 -11.2780 -11.2748
   -11.2643 -11.2643 -11.2186 -11.2183 -11.2061 -11.1702 -11.1662 -11.1599
   -11.1584 -11.1186 -11.0794 -11.0258 -11.0045 -10.9858 -10.9819 -10.9675
   -10.9562 -10.9284 -10.9232 -10.9163 -10.9059 -10.8923 -10.8878 -10.8806
   -10.8469 -10.8443 -10.8387 -10.8372 -10.8368 -10.8340 -10.8264 -10.8102
   -10.8010 -10.7969 -10.7803 -10.7713 -10.7681 -10.7608 -10.7460 -10.6221
   -10.6111 -10.5906 -10.5500 -10.5003 -10.4942 -10.3973 -10.3694 -10.2868
   -10.2638 -10.2230 -10.1877 -10.1364 -10.1305 -10.1197 -10.1129 -10.0589
   -10.0433 -10.0201 -10.0153  -9.9663  -9.9629  -9.9444  -9.9429  -9.9410
    -9.9332  -9.9222  -9.9116  -9.9030  -9.8996  -9.8901  -9.8662  -9.8191
    -9.7990  -9.7912  -9.7684  -9.7653  -9.7548  -9.7432  -9.7383  -9.7192
    -9.7181  -9.7074  -9.7037  -9.6834  -9.6670  -9.6611  -9.6460  -9.6317
    -9.6229  -9.6185  -9.6101  -9.5725  -9.5548  -9.5393  -9.5371  -9.5277
    -9.5211  -9.4792  -9.4775  -9.4741  -9.4374  -9.3866  -9.3409  -9.3246
    -9.3215  -9.2777  -9.2234  -9.2088  -9.2030  -9.1827  -9.1699  -9.1610
    -9.1482  -9.1353  -9.1321  -9.1186  -9.0995  -9.0860  -9.0630  -9.0513
    -9.0372  -9.0311  -9.0225  -9.0193  -9.0071  -8.9952  -8.9876  -8.9758
    -8.9653  -8.9577  -8.9521  -8.9399  -8.9395  -8.9359  -8.9257  -8.9086
    -8.8987  -8.8782  -8.8680  -8.8651  -8.8599  -8.8564  -8.8517  -8.8470
    -8.8464  -8.8384  -8.8298  -8.8259  -8.8151  -8.8095  -8.7894  -8.7743
    -8.7699  -8.7605  -8.7503  -8.7344  -8.7108  -8.6648  -8.5596  -8.5403
    -8.5193  -8.5177  -8.4423  -8.4390  -8.4326  -8.3796  -8.3603  -8.2917
    -8.2118  -8.2007  -8.2007  -8.1810  -8.1287  -8.1281  -8.1151  -8.0687
    -8.0460  -8.0269  -7.9829  -7.9433  -7.9389  -7.9229  -7.8775  -7.8701
    -7.8670  -7.8617  -7.8541  -7.8540  -7.8540  -7.8523  -7.8488  -7.8408
    -7.8179  -7.8084  -7.8079  -7.8069  -7.8049  -7.7848  -7.7837  -7.7738
    -7.7691  -7.7625  -7.7570  -7.7481  -7.7449  -7.7359  -7.7321  -7.7273
    -7.7235  -7.7163  -7.7026  -7.6930  -7.6917  -7.6790  -7.6688  -7.6687
    -7.6662  -7.6611  -7.6428  -7.6333  -7.6240  -7.6176  -7.6086  -7.5992
    -7.5897  -7.5878  -7.5688  -7.5598  -7.5237  -7.5216  -7.4999  -7.4704
    -7.4399  -7.3986  -7.3154  -7.2753  -7.2579  -7.2517  -7.2346  -7.2160
    -7.2133  -7.1738  -7.1456  -7.1365  -7.1248  -7.0783  -7.0615  -7.0414
    -7.0270  -7.0161  -7.0157  -7.0010  -6.9606  -6.9574  -6.9489  -6.9393
    -6.9114  -6.9060  -6.8783  -6.8676  -6.8406  -6.8303  -6.8200  -6.7949
    -6.7330  -6.7268  -6.6988  -6.6747  -6.6657  -6.6657  -6.6656  -6.6655
    -6.6425  -6.6266  -6.6116  -6.5988  -6.5966  -6.5954  -6.5927  -6.5706
    -6.5564  -6.5443  -6.4897  -6.4754  -6.4607  -6.4354  -6.4187  -6.4040
    -6.3571  -6.3342  -6.3339  -6.3331  -6.3327  -6.2766  -6.2699  -6.2574
    -6.2550  -6.2517  -6.2475  -6.2421  -6.2234  -6.2109  -6.2092  -6.1627
    -6.1490  -6.0192  -5.9856  -5.9855  -5.9320  -5.9196  -5.9043  -5.9016
    -5.8338  -5.7540  -5.6661  -5.6532  -5.5824  -5.5546  -5.4758  -5.3965
    -5.3225  -4.1890  -4.0421  -4.0285  -4.0203  -3.9944  -3.9010  -3.9010
    -3.8900  -3.8662  -3.8395  -3.8362  -3.8351  -3.7893  -3.7800  -3.7682
    -3.7575  -3.7313  -3.6915  -3.6365  -3.6108  -3.6049  -3.6029  -3.5994
    -3.5911  -3.5866  -3.5864  -3.5613  -3.5550  -3.5276  -3.5096  -3.5067
    -3.4983  -3.4882  -3.4825  -3.4791  -3.4725  -3.4693  -3.4668  -3.4260
    -3.4195  -3.4098  -3.3809  -3.3733  -3.3609  -3.3540  -3.3536  -3.3422
    -3.3252  -3.3217  -3.3198  -3.3124  -3.2921  -3.2814  -3.2778  -3.2774
    -3.2763  -3.2756  -3.2520  -3.2426  -3.2395  -3.2364  -3.2291  -3.2167
    -3.2096  -3.2060  -3.2004  -3.1985  -3.1884  -3.1608  -3.1367  -3.1251
    -3.1175  -3.1052  -3.0867  -3.0743  -3.0723  -3.0430  -3.0374  -3.0340
    -3.0315  -3.0148  -3.0142  -3.0138  -3.0134  -2.9828  -2.9727  -2.9664
    -2.9644  -2.9517  -2.9401  -2.9384  -2.9271  -2.9219  -2.9164  -2.9094
    -2.9017  -2.8958  -2.8877  -2.8798  -2.8709  -2.8604  -2.8483  -2.8381
    -2.8279  -2.8140  -2.8045  -2.8013  -2.7972  -2.7414  -2.7357  -2.7142
    -2.7070  -2.6702  -2.6519  -2.6514  -2.6441  -2.6327  -2.6325  -2.5725
    -2.5654  -2.5256  -2.5138  -2.5037  -2.4958  -2.4920  -2.4598  -2.3761
    -2.3538  -2.3351  -2.2839

     the Fermi energy is    -4.6747 ev

!    total energy              =  -26031.79777376 Ry
     total all-electron energy =   -512284.367401 Ry
     estimated scf accuracy    <       0.00000018 Ry
     smearing contrib. (-TS)   =      -0.00000002 Ry
     internal energy E=F+TS    =  -26031.79777374 Ry

     The total energy is F=E-TS. E is the sum of the following terms:
     one-electron contribution =  491643.47380601 Ry
     hartree contribution      = -245964.23231976 Ry
     xc contribution           =   -1534.65259593 Ry
     ewald contribution        = -253983.62986055 Ry
     DFT-D3 Dispersion         =      -4.02194890 Ry
     one-center paw contrib.   =  -16188.73485460 Ry

     convergence has been achieved in  26 iterations

     negative rho (up, down):  9.284E-04 0.000E+00

     Forces acting on atoms (cartesian axes, Ry/au):

     atom    1 type  1   force =     0.00271723   -0.00212578    0.00208252
     atom    2 type  1   force =    -0.00000367    0.00000080    0.00189579
     atom    3 type  1   force =    -0.00002263   -0.00003515    0.00000904
     atom    4 type  2   force =    -0.00000107   -0.00000009   -0.00332149
     atom    5 type  2   force =     0.00000015    0.00000594   -0.00004637
     atom    6 type  2   force =    -0.00019044   -0.00076243   -0.00141318
     atom    7 type  2   force =    -0.00000013   -0.00000080    0.00154003
     atom    8 type  2   force =     0.00001499   -0.00001874    0.00003872
     atom    9 type  2   force =    -0.00029878    0.00022484   -0.00112590
     atom   10 type  1   force =    -0.00025076   -0.00147592   -0.02134473
     atom   11 type  1   force =    -0.00000168    0.00000061    0.00189443
     atom   12 type  1   force =     0.00000913    0.00000208   -0.00001655
     atom   13 type  2   force =    -0.00000187    0.00000018   -0.00332135
     atom   14 type  2   force =    -0.00001915   -0.00001090   -0.00001434
     atom   15 type  2   force =     0.00029430    0.00017167    0.00257092
     atom   16 type  2   force =    -0.00000241    0.00000060    0.00155513
     atom   17 type  2   force =    -0.00002898   -0.00002691    0.00004805
     atom   18 type  2   force =    -0.01651622   -0.00703029    0.01437526
     atom   19 type  1   force =    -0.00081822    0.00213895   -0.00220861
     atom   20 type  1   force =     0.00000073    0.00000048    0.00189662
     atom   21 type  1   force =    -0.00003978    0.00002288    0.00000341
     atom   22 type  2   force =    -0.00000169    0.00000082   -0.00332262
     atom   23 type  2   force =     0.00000498   -0.00000024   -0.00003498
     atom   24 type  2   force =    -0.00060229    0.00048657   -0.00103866
     atom   25 type  2   force =    -0.00000176    0.00000255    0.00154009
     atom   26 type  2   force =     0.00000187    0.00003049    0.00008451
     atom   27 type  2   force =     0.00090352   -0.00027592   -0.00062349
     atom   28 type  1   force =    -0.00001331    0.00037222    0.00039724
     atom   29 type  1   force =    -0.00000375    0.00000107    0.00189798
     atom   30 type  1   force =     0.00003605   -0.00000380   -0.00004007
     atom   31 type  2   force =    -0.00000193    0.00000082   -0.00332142
     atom   32 type  2   force =    -0.00000194    0.00000100   -0.00009063
     atom   33 type  2   force =     0.00014799   -0.00002956   -0.00026084
     atom   34 type  2   force =    -0.00000674   -0.00000193    0.00154318
     atom   35 type  2   force =    -0.00001342    0.00000164   -0.00000047
     atom   36 type  2   force =     0.00041498   -0.00005901   -0.00010466
     atom   37 type  1   force =    -0.00048136    0.00048551    0.00024787
     atom   38 type  1   force =    -0.00000461    0.00000060    0.00189529
     atom   39 type  1   force =     0.00000578   -0.00004125   -0.00000389
     atom   40 type  2   force =    -0.00000164    0.00000046   -0.00332127
     atom   41 type  2   force =    -0.00000421    0.00000306   -0.00004721
     atom   42 type  2   force =    -0.00054760    0.00009616   -0.00070432
     atom   43 type  2   force =    -0.00000152    0.00000557    0.00154342
     atom   44 type  2   force =    -0.00002112   -0.00000353    0.00002358
     atom   45 type  2   force =    -0.00019037    0.00044231    0.00017267
     atom   46 type  1   force =     0.00192265   -0.00040086   -0.00558499
     atom   47 type  1   force =    -0.00000105    0.00000249    0.00189263
     atom   48 type  1   force =    -0.00003632    0.00000655   -0.00001752
     atom   49 type  2   force =    -0.00000155    0.00000008   -0.00332138
     atom   50 type  2   force =    -0.00000475    0.00002674   -0.00002708
     atom   51 type  2   force =    -0.00002043    0.00016671    0.00236244
     atom   52 type  2   force =    -0.00000086    0.00000712    0.00153918
     atom   53 type  2   force =    -0.00000547    0.00000324    0.00005130
     atom   54 type  2   force =     0.02173454   -0.00999852   -0.00136960
     atom   55 type  1   force =     0.00123468    0.00404710   -0.00091870
     atom   56 type  1   force =     0.00000061   -0.00000005    0.00189361
     atom   57 type  1   force =    -0.00000433   -0.00000689   -0.00002566
     atom   58 type  2   force =    -0.00000147   -0.00000043   -0.00332010
     atom   59 type  2   force =     0.00002170   -0.00001441   -0.00003119
     atom   60 type  2   force =     0.00050880    0.00053811    0.00242155
     atom   61 type  2   force =     0.00000377   -0.00000202    0.00153916
     atom   62 type  2   force =    -0.00000215    0.00001259    0.00002963
     atom   63 type  2   force =    -0.00173732    0.01615783    0.01277441
     atom   64 type  1   force =    -0.00019606   -0.00053602    0.00006214
     atom   65 type  1   force =    -0.00000096    0.00000182    0.00189578
     atom   66 type  1   force =    -0.00004180    0.00000844   -0.00001740
     atom   67 type  2   force =    -0.00000188    0.00000034   -0.00332054
     atom   68 type  2   force =     0.00000324   -0.00000584   -0.00003358
     atom   69 type  2   force =    -0.00021476   -0.00006928   -0.00006367
     atom   70 type  2   force =     0.00000261   -0.00000205    0.00154290
     atom   71 type  2   force =    -0.00001048   -0.00002281    0.00008829
     atom   72 type  2   force =    -0.00008145   -0.00005138    0.00049193
     atom   73 type  1   force =     0.00040525    0.00043943   -0.00008750
     atom   74 type  1   force =    -0.00000336    0.00000055    0.00189773
     atom   75 type  1   force =    -0.00000428   -0.00001308   -0.00001833
     atom   76 type  2   force =    -0.00000210    0.00000012   -0.00332163
     atom   77 type  2   force =     0.00003992    0.00002256   -0.00001500
     atom   78 type  2   force =    -0.00003725   -0.00001230   -0.00025609
     atom   79 type  2   force =    -0.00000411   -0.00000105    0.00153930
     atom   80 type  2   force =    -0.00004219   -0.00002480    0.00006451
     atom   81 type  2   force =     0.00019873   -0.00003404    0.00028048
     atom   82 type  1   force =     0.00021638   -0.00002849   -0.00001673
     atom   83 type  1   force =    -0.00000265    0.00000311    0.00189431
     atom   84 type  1   force =     0.00003584    0.00001836   -0.00000166
     atom   85 type  2   force =    -0.00000133    0.00000089   -0.00332266
     atom   86 type  2   force =     0.00001611   -0.00000901   -0.00002566
     atom   87 type  2   force =    -0.00004940    0.00046997    0.00031035
     atom   88 type  2   force =    -0.00000225    0.00000716    0.00153998
     atom   89 type  2   force =     0.00001869   -0.00000630    0.00005269
     atom   90 type  2   force =     0.00000745    0.00153963    0.00158393
     atom   91 type  1   force =     0.00063164    0.00008188    0.00009451
     atom   92 type  1   force =    -0.00000136    0.00000074    0.00189199
     atom   93 type  1   force =     0.00002173    0.00002901    0.00000997
     atom   94 type  2   force =    -0.00000076    0.00000060   -0.00332132
     atom   95 type  2   force =    -0.00002630   -0.00001115   -0.00004070
     atom   96 type  2   force =     0.00071160    0.00101263   -0.00047923
     atom   97 type  2   force =    -0.00000138    0.00000076    0.00154375
     atom   98 type  2   force =     0.00001902    0.00001625    0.00000372
     atom   99 type  2   force =     0.00180972   -0.00215165   -0.00526497
     atom  100 type  1   force =     0.00011400    0.00020427    0.00046101
     atom  101 type  1   force =     0.00000042   -0.00000190    0.00189423
     atom  102 type  1   force =     0.00001637    0.00001791   -0.00000718
     atom  103 type  2   force =    -0.00000092    0.00000107   -0.00332060
     atom  104 type  2   force =    -0.00000316    0.00002081   -0.00002187
     atom  105 type  2   force =     0.00012465   -0.00034130   -0.00022509
     atom  106 type  2   force =     0.00000270   -0.00000281    0.00153931
     atom  107 type  2   force =     0.00000494    0.00003151    0.00005025
     atom  108 type  2   force =     0.00031055    0.00048885    0.00016476
     atom  109 type  1   force =    -0.00153719   -0.00201167   -0.00062799
     atom  110 type  1   force =     0.00000117   -0.00000217    0.00189643
     atom  111 type  1   force =     0.00000946   -0.00004033    0.00010566
     atom  112 type  2   force =    -0.00000205    0.00000044   -0.00332004
     atom  113 type  2   force =    -0.00004108    0.00002447   -0.00002021
     atom  114 type  2   force =     0.00032815   -0.00009006   -0.00069394
     atom  115 type  2   force =    -0.00000216    0.00000097    0.00155425
     atom  116 type  2   force =     0.00003868   -0.00003705    0.00007010
     atom  117 type  2   force =    -0.00012131   -0.00019941    0.00061705
     atom  118 type  1   force =    -0.00264509   -0.00022532   -0.00232067
     atom  119 type  1   force =    -0.00000304    0.00000212    0.00189629
     atom  120 type  1   force =    -0.00001775    0.00003324   -0.00000177
     atom  121 type  2   force =    -0.00000148    0.00000059   -0.00332122
     atom  122 type  2   force =     0.00000060   -0.00004504   -0.00000734
     atom  123 type  2   force =     0.00008409    0.00021942   -0.00018301
     atom  124 type  2   force =    -0.00000176    0.00000079    0.00155454
     atom  125 type  2   force =     0.00000412    0.00005391    0.00013072
     atom  126 type  2   force =    -0.00011501   -0.00027629    0.00100895
     atom  127 type  1   force =    -0.00068285    0.00014176    0.00039866
     atom  128 type  1   force =    -0.00000541    0.00000042    0.00189629
     atom  129 type  1   force =     0.00000355   -0.00003297   -0.00003229
     atom  130 type  2   force =    -0.00000179   -0.00000022   -0.00332237
     atom  131 type  2   force =    -0.00000434   -0.00000073   -0.00005100
[...]
     atom   70 type  2   force =     0.00000658   -0.00000285    0.00149846
     atom   71 type  2   force =     0.00001019   -0.00000968   -0.00000057
     atom   72 type  2   force =    -0.00006796   -0.00007235   -0.00003258
     atom   73 type  1   force =     0.00004086   -0.00002891   -0.00010313
     atom   74 type  1   force =     0.00000269    0.00000215    0.00190090
     atom   75 type  1   force =     0.00000291   -0.00000165    0.00000014
     atom   76 type  2   force =     0.00000261    0.00000213   -0.00327963
     atom   77 type  2   force =     0.00000498   -0.00000261    0.00000691
     atom   78 type  2   force =    -0.00009373   -0.00002848    0.00002547
     atom   79 type  2   force =     0.00000212    0.00000391    0.00150105
     atom   80 type  2   force =     0.00000304   -0.00000975    0.00000063
     atom   81 type  2   force =     0.00011280   -0.00004102    0.00001902
     atom   82 type  1   force =    -0.00000469    0.00003430   -0.00005100
     atom   83 type  1   force =     0.00000108    0.00000322    0.00189708
     atom   84 type  1   force =    -0.00002736   -0.00000504    0.00001854
     atom   85 type  2   force =     0.00000284    0.00000192   -0.00327944
     atom   86 type  2   force =    -0.00000305    0.00000807    0.00001781
     atom   87 type  2   force =    -0.00027072    0.00012494   -0.00001361
     atom   88 type  2   force =     0.00000185    0.00001078    0.00150190
     atom   89 type  2   force =    -0.00000068    0.00000613   -0.00000208
     atom   90 type  2   force =     0.00015854    0.00012967   -0.00007088
     atom   91 type  1   force =     0.00005196   -0.00007732    0.00001417
     atom   92 type  1   force =     0.00000212    0.00000041    0.00189639
     atom   93 type  1   force =    -0.00000624    0.00000343   -0.00002145
     atom   94 type  2   force =     0.00000288    0.00000201   -0.00327926
     atom   95 type  2   force =    -0.00000312   -0.00001146    0.00000446
     atom   96 type  2   force =     0.00030768   -0.00004271   -0.00039508
     atom   97 type  2   force =     0.00000224   -0.00000383    0.00149421
     atom   98 type  2   force =    -0.00000565    0.00000258   -0.00001806
     atom   99 type  2   force =     0.00015758    0.00014873    0.00022812
     atom  100 type  1   force =     0.00001242   -0.00000583   -0.00009853
     atom  101 type  1   force =     0.00000307    0.00000155    0.00189947
     atom  102 type  1   force =     0.00000311   -0.00000907    0.00000307
     atom  103 type  2   force =     0.00000286    0.00000235   -0.00327924
     atom  104 type  2   force =    -0.00000345    0.00000679    0.00000045
     atom  105 type  2   force =     0.00002099   -0.00017625   -0.00006727
     atom  106 type  2   force =     0.00000392   -0.00000661    0.00149179
     atom  107 type  2   force =     0.00000326   -0.00000473   -0.00000747
     atom  108 type  2   force =     0.00001884   -0.00016095   -0.00020996
     atom  109 type  1   force =     0.00013833    0.00004189   -0.00002922
     atom  110 type  1   force =     0.00000261    0.00000175    0.00190197
     atom  111 type  1   force =     0.00000204    0.00001439    0.00000096
     atom  112 type  2   force =     0.00000291    0.00000209   -0.00327965
     atom  113 type  2   force =     0.00000331    0.00001135    0.00000344
     atom  114 type  2   force =     0.00023029    0.00004466   -0.00006706
     atom  115 type  2   force =     0.00000237    0.00000392    0.00150438
     atom  116 type  2   force =     0.00000559    0.00000430   -0.00001550
     atom  117 type  2   force =     0.00013594    0.00006145   -0.00017431
     atom  118 type  1   force =    -0.00000363   -0.00000717   -0.00007338
     atom  119 type  1   force =     0.00000226    0.00000264    0.00189726
     atom  120 type  1   force =     0.00001465    0.00000907    0.00000872
     atom  121 type  2   force =     0.00000277    0.00000208   -0.00327915
     atom  122 type  2   force =     0.00001538    0.00000607    0.00000635
     atom  123 type  2   force =    -0.00004638    0.00013178    0.00005708
     atom  124 type  2   force =     0.00000201    0.00000442    0.00151126
     atom  125 type  2   force =     0.00001734    0.00000507    0.00001201
     atom  126 type  2   force =     0.00009116   -0.00010415   -0.00003463
     atom  127 type  1   force =    -0.00000902    0.00006695   -0.00008274
     atom  128 type  1   force =     0.00000069    0.00000101    0.00189913
     atom  129 type  1   force =    -0.00000568   -0.00000829   -0.00001437
     atom  130 type  2   force =     0.00000295    0.00000223   -0.00327924
     atom  131 type  2   force =    -0.00000187   -0.00000563    0.00000070
     atom  132 type  2   force =     0.00005213   -0.00002858   -0.00002996
     atom  133 type  2   force =    -0.00000211   -0.00000147    0.00149020
     atom  134 type  2   force =    -0.00000066    0.00000017   -0.00000982
     atom  135 type  2   force =     0.00012120   -0.00000360    0.00002120
     atom  136 type  1   force =    -0.00002309    0.00006435    0.00014906
     atom  137 type  1   force =     0.00000182    0.00000217    0.00190058
     atom  138 type  1   force =    -0.00000412   -0.00000199   -0.00002570
     atom  139 type  2   force =     0.00000290    0.00000238   -0.00327860
     atom  140 type  2   force =    -0.00000089   -0.00000119    0.00000608
     atom  141 type  2   force =     0.00006028   -0.00009115    0.00011750
     atom  142 type  2   force =    -0.00000235   -0.00000296    0.00149719
     atom  143 type  2   force =    -0.00000283   -0.00000033   -0.00000617
     atom  144 type  2   force =    -0.00010908    0.00007779   -0.00004059
     atom  145 type  3   force =    -0.00084955   -0.00050054   -0.00020183
     atom  146 type  4   force =    -0.00009301   -0.00026414   -0.00077760

     Total force =     0.002348     Total SCF correction =     0.000932
     SCF correction compared to forces is large: reduce conv_thr to get better values
     Energy error            =      7.0E-06 Ry
     Gradient error          =      8.5E-04 Ry/Bohr

     bfgs converged in  25 scf cycles and  24 bfgs steps
     (criteria: energy <  1.0E-04 Ry, force <  1.0E-03 Ry/Bohr)

     End of BFGS Geometry Optimization

     Final energy             =  -26031.8089312192 Ry

     File ./outdir/pwscf.bfgs deleted, as requested
Begin final coordinates

ATOMIC_POSITIONS (angstrom)
Mo               1.5767217372        2.6790307332        6.0650841549
Mo               1.5769197498        0.9104407117       -6.0872367793    0   0   0
Mo              -0.0002455265        1.8209265731       -0.0000556873
S                0.0000044503        0.0000077495       -7.6506323570    0   0   0
S                1.5767097535        0.9110242288       -1.5660389668
S               -0.0139420812        1.8155001876        4.4940643158
S                0.0000053241        0.0000068460       -4.5222282367    0   0   0
S                1.5768916074        0.9096944297        1.5662062487
S               -0.0062615395        1.7909462801        7.6372274010
Mo              -0.0201043677        5.4620555121        6.1295924801
Mo               0.0000011799        3.6417399547       -6.0872367793    0   0   0
Mo              -1.5767672479        4.5522573848       -0.0001121483
S               -1.5769141197        2.7313069925       -7.6506323570    0   0   0
S               -0.0000554959        3.6416024295       -1.5654365391
S               -1.5658484406        4.5631156282        4.5475060712
S               -1.5769132459        2.7313060890       -4.5222282367    0   0   0
S                0.0003598906        3.6422877665        1.5678838204
S               -1.6457596218        4.5180133066        7.7118217006
Mo              -1.5865283271        8.2064288136        6.0815759471
Mo              -1.5769173901        6.3730391977       -6.0872367793    0   0   0
Mo              -3.1537974910        7.2831169960       -0.0017743608
S               -3.1538326896        5.4626062355       -7.6506323570    0   0   0
S               -1.5767327924        6.3723437702       -1.5666101783
S               -3.1541667243        7.2770410826        4.5149898893
S               -3.1538318159        5.4626053320       -4.5222282367    0   0   0
S               -1.5769164540        6.3734885887        1.5664149454
S               -3.1570858710        7.2903816387        7.6503999587
Mo               3.1563737062       -0.0069707010        6.0621484944
Mo              -3.1538359601        9.1043384407       -6.0872367793    0   0   0
Mo              -4.7308612241       10.0146105269       -0.0017530801
S               -4.7307512596        8.1939054785       -7.6506323570    0   0   0
S               -3.1538086128        9.1041913079       -1.5672425088
S               -4.7306628891       10.0027357224        4.4979712304
S               -4.7307503859        8.1939045750       -4.5222282367    0   0   0
S               -3.1537821261        9.1038630835        1.5647674681
S               -4.7322373239       10.0158539441        7.6328062011
Mo               4.7352728504        2.7212557292        6.0879518444
Mo               4.7307503218        0.9104407117       -6.0872367793    0   0   0
Mo               3.1538440359        1.8209701382       -0.0002604301
S                3.1538350223        0.0000077495       -7.6506323570    0   0   0
S                4.7308609844        0.9108930917       -1.5663090287
S                3.1673739216        1.8135626798        4.4958566824
S                3.1538358961        0.0000068460       -4.5222282367    0   0   0
S                4.7310445276        0.9095534535        1.5654683664
S                3.1571143618        1.7943858047        7.6384143854
Mo               3.1650716085        5.4615575674        6.1349204319
Mo               3.1538317519        3.6417399547       -6.0872367793    0   0   0
Mo               1.5768389352        4.5522258598       -0.0000373772
S                1.5769164523        2.7313069925       -7.6506323570    0   0   0
S                3.1536440496        3.6417463424       -1.5655273284
S                1.5807553862        4.5679463938        4.5817047772
S                1.5769173261        2.7313060890       -4.5222282367    0   0   0
S                3.1533932611        3.6421731152        1.5680088659
S                1.5387589842        4.4024831127        7.6833773159
Mo               1.5724111198        8.2233999991        6.0939619569
Mo               1.5769131819        6.3730391977       -6.0872367793    0   0   0
Mo               0.0001480958        7.2828947969       -0.0011573422
S               -0.0000021176        5.4626062355       -7.6506323570    0   0   0
S                1.5769075309        6.3722995661       -1.5664178686
S                0.0013456291        7.2693105981        4.5510689457
S               -0.0000012439        5.4626053320       -4.5222282367    0   0   0
S                1.5767962698        6.3730524532        1.5672524248
S               -0.0082153578        7.3753503498        7.6853009668
Mo               6.3068682173        0.0055495372        6.0671800658
Mo              -0.0000053881        9.1043384407       -6.0872367793    0   0   0
Mo              -1.5766669706       10.0144104497       -0.0017359760
S               -1.5769206876        8.1939054785       -7.6506323570    0   0   0
S                0.0004716472        9.1039909162       -1.5665990855
S               -1.5736425414       10.0095178638        4.4984547178
S               -1.5769198139        8.1939045750       -4.5222282367    0   0   0
S               -0.0002557772        9.1031146262        1.5661385094
S               -1.5814187959       10.0283148504        7.6408098033
Mo               7.8839518691        2.7332115129        6.0802472612
Mo               7.8845808939        0.9104407117       -6.0872367793    0   0   0
Mo               6.3076004968        1.8211459990       -0.0004000773
S                6.3076655943        0.0000077495       -7.6506323570    0   0   0
S                7.8844893333        0.9105452162       -1.5657673175
S                6.3064782281        1.8306736670        4.5078572617
S                6.3076664681        0.0000068460       -4.5222282367    0   0   0
S                7.8844269997        0.9103375073        1.5665193836
S                6.3134392996        1.8100484253        7.6481877603
Mo               6.3188330019        5.4627307263        6.0968387656
Mo               6.3076623239        3.6417399547       -6.0872367793    0   0   0
Mo               4.7303229588        4.5523563393       -0.0000839348
S                4.7307470244        2.7313069925       -7.6506323570    0   0   0
S                6.3074325591        3.6419814357       -1.5655492658
S                4.7134664299        4.5673757087        4.5596898724
S                4.7307478981        2.7313060890       -4.5222282367    0   0   0
S                6.3067847863        3.6424881619        1.5674805875
S                4.8270058433        4.4984288566        7.7365169803
Mo               4.7429530312        8.2080535286        6.0847166099
Mo               4.7307437539        6.3730391977       -6.0872367793    0   0   0
Mo               3.1535313570        7.2828194022       -0.0009576534
S                3.1538284544        5.4626062355       -7.6506323570    0   0   0
S                4.7304154659        6.3725049201       -1.5664197150
S                3.1508338073        7.2645678620        4.5619837641
S                3.1538293281        5.4626053320       -4.5222282367    0   0   0
S                4.7304714287        6.3733668472        1.5668997137
S                3.1600661503        7.4181732694        7.7125724905
Mo               9.4610840492        0.0049593362        6.0696710676
Mo               3.1538251839        9.1043384407       -6.0872367793    0   0   0
Mo               1.5768285926       10.0143972495       -0.0005196468
S                1.5769098844        8.1939054785       -7.6506323570    0   0   0
S                3.1533876988        9.1039284007       -1.5663105576
S                1.5766832435       10.0177769798        4.5024075927
S                1.5769107581        8.1939045750       -4.5222282367    0   0   0
S                3.1536157297        9.1028430440        1.5664265373
S                1.5736113070       10.0510396315        7.6472202712
Mo              -1.5817666815        2.7254307672        6.0865472457
Mo              11.0384114659        0.9104407117       -6.0872367793    0   0   0
Mo               9.4613134930        1.8210110471       -0.0003748341
S                9.4614961663        0.0000077495       -7.6506323570    0   0   0
S               11.0381714644        0.9106080968       -1.5659395315
S                9.4611016612        1.8293443366        4.5099189380
S                9.4614970401        0.0000068460       -4.5222282367    0   0   0
S               11.0377951802        0.9096097570        1.5658566638
S                9.4559538063        1.8130475605        7.6486412058
Mo              -3.1619540544        5.4605518387        6.0927725578
Mo               9.4614928959        3.6417399547       -6.0872367793    0   0   0
Mo               7.8843644847        4.5523102149       -0.0000442720
S                7.8845775964        2.7313069925       -7.6506323570    0   0   0
S                9.4613760121        3.6418795063       -1.5654679267
S                7.8833729202        4.5575720545        4.5179518088
S                7.8845784701        2.7313060890       -4.5222282367    0   0   0
S                9.4618282433        3.6423320166        1.5674151805
S                7.8878654248        4.5453705043        7.6626561449
Mo              -4.7313610006        8.1916800382        6.0776688701
Mo               7.8845743259        6.3730391977       -6.0872367793    0   0   0
Mo               6.3073917595        7.2831490785       -0.0014317590
S                6.3076590264        5.4626062355       -7.6506323570    0   0   0
S                7.8843689701        6.3723469047       -1.5666879049
S                6.3063633828        7.2760127407        4.5165599445
S                6.3076599001        5.4626053320       -4.5222282367    0   0   0
S                7.8845368514        6.3738117904        1.5657273901
S                6.3113543701        7.2907348698        7.6528896663
Mo              -0.0042296788       -0.0063842530        6.0588851633
Mo               6.3076557559        9.1043384407       -6.0872367793    0   0   0
Mo               4.7303009532       10.0142829283       -0.0011553227
S                4.7307404564        8.1939054785       -7.6506323570    0   0   0
S                6.3072633510        9.1042069394       -1.5669356657
S                4.7244469752       10.0090540156        4.4980852796
S                4.7307413301        8.1939045750       -4.5222282367    0   0   0
S                6.3076769379        9.1038347669        1.5652312469
S                4.7373459756       10.0319849581        7.6414179750
Pt               3.0537616533        5.4872430409        8.9493721866
Pd               0.1302427710        5.5010385270        9.0927766589
End final coordinates



     Writing all to output data dir ./outdir/pwscf.save/ :
     XML data file, charge density, pseudopotentials, collected wavefunctions
 
     init_run     :     96.43s CPU     98.68s WALL (       1 calls)
     electrons    : 103785.96s CPU 105339.02s WALL (      25 calls)
     update_pot   :     31.55s CPU     32.54s WALL (      24 calls)
     forces       :   1781.49s CPU   1820.33s WALL (      25 calls)
     force_dftd3  :      9.58s CPU     10.06s WALL (      25 calls)

     Called by init_run:
     wfcinit      :     78.35s CPU     79.40s WALL (       1 calls)
     potinit      :      1.09s CPU      1.20s WALL (       1 calls)
     hinit0       :      9.23s CPU      9.30s WALL (       1 calls)

     Called by electrons:
     c_bands      :  90528.69s CPU  91466.95s WALL (     309 calls)
     sum_band     :  11394.68s CPU  11708.03s WALL (     309 calls)
     v_of_rho     :     89.03s CPU     99.83s WALL (     313 calls)
     newd         :   1579.03s CPU   1875.10s WALL (     313 calls)
     PAW_pot      :    254.03s CPU    256.30s WALL (     337 calls)
     mix_rho      :     22.92s CPU     26.26s WALL (     309 calls)
     energy_dftd3 :      5.34s CPU      5.38s WALL (      25 calls)

     Called by c_bands:
     init_us_2    :    435.78s CPU    437.63s WALL (    2672 calls)
     init_us_2:cp :    435.76s CPU    437.62s WALL (    2672 calls)
     cegterg      :  88700.30s CPU  89630.24s WALL (    1256 calls)

     Called by *egterg:
     cdiaghg      :   4496.04s CPU   4679.52s WALL (   14621 calls)
     h_psi        :  46203.85s CPU  46517.99s WALL (   14806 calls)
     s_psi        :   9861.42s CPU   9906.22s WALL (   14806 calls)
     g_psi        :    103.51s CPU    103.96s WALL (   13546 calls)

     Called by h_psi:
     h_psi:calbec :   9581.46s CPU   9615.11s WALL (   14806 calls)
     vloc_psi     :  26476.34s CPU  26635.71s WALL (   14806 calls)
     add_vuspsi   :   9924.43s CPU   9972.77s WALL (   14806 calls)

     General routines
     calbec       :  13645.94s CPU  13692.25s WALL (   16538 calls)
     fft          :     71.98s CPU     81.83s WALL (    4339 calls)
     ffts         :      4.05s CPU      4.19s WALL (     622 calls)
     fftw         :  19500.82s CPU  19620.54s WALL ( 6949146 calls)
     interpolate  :      7.44s CPU      8.15s WALL (     313 calls)
 
     Parallel routines
 
     PWSCF        :   1d 5h31m CPU   1d 5h59m WALL

 
   This run was terminated on:  10:55:10  10Mar2024            

=------------------------------------------------------------------------------=
   JOB DONE.
=------------------------------------------------------------------------------=
