
     Program PWSCF v.7.2 starts on 15Aug2023 at 10: 7:29 

     This program is part of the open-source Quantum ESPRESSO suite
     for quantum simulation of materials; please cite
         "P. Giannozzi et al., J. Phys.:Condens. Matter 21 395502 (2009);
         "P. Giannozzi et al., J. Phys.:Condens. Matter 29 465901 (2017);
         "P. Giannozzi et al., J. Chem. Phys. 152 154105 (2020);
          URL http://www.quantum-espresso.org", 
     in publications or presentations arising from this work. More details at
     http://www.quantum-espresso.org/quote

     Parallel version (MPI), running on    36 processors

     MPI processes distributed on     1 nodes
     770179 MiB available memory on the printing compute node when the environment starts
 
     Waiting for input...
     Reading input from standard input
Warning: card &CELL ignored
Warning: card / ignored

     Current dimensions of program PWSCF are:
     Max number of different atomic species (ntypx) = 10
     Max number of k-points (npk) =  40000
     Max angular momentum in pseudopotentials (lmaxx) =  4
     file Mo.pbe-spn-kjpaw_psl.1.0.0.UPF: wavefunction(s)  4S 4D renormalized
     file S.pbe-n-kjpaw_psl.1.0.0.UPF: wavefunction(s)  3S 3P renormalized
     file H.pbe-kjpaw_psl.1.0.0.UPF: wavefunction(s)  1S renormalized
 
     R & G space division:  proc/nbgrp/npool/nimage =      36
     Subspace diagonalization in iterative solution of the eigenvalue problem:
     one sub-group per band group will be used
     custom distributed-memory algorithm (size of sub-group:  6*  6 procs)

 
     Parallelization info
     --------------------
     sticks:   dense  smooth     PW     G-vecs:    dense   smooth      PW
     Min         586     335     89               165416    71459    9765
     Max         587     337     90               165425    71461    9778
     Sum       21109   12085   3205              5955087  2572543  351657
 
     Using Slab Decomposition
 


     bravais-lattice index     =            0
     lattice parameter (alat)  =      23.8395  a.u.
     unit-cell volume          =   28182.8498 (a.u.)^3
     number of atoms/cell      =          145
     number of atomic types    =            3
     number of electrons       =      1249.00
     number of Kohn-Sham states=          750
     kinetic-energy cutoff     =      77.0000  Ry
     charge density cutoff     =     539.0000  Ry
     scf convergence threshold =      1.0E-06
     mixing beta               =       0.2000
     number of iterations used =            8  plain     mixing
     Exchange-correlation= SLA  PW   PBX  PBC
                           (   1   4   3   4   0   0   0)

     Effective Screening Medium Method
     =================================
     Boundary Conditions: Vacuum-Slab-Vacuum
     total charge in unit cell        =   0.0000
     grid points for fit at edges     =        4 
 

     celldm(1)=  23.839504  celldm(2)=   0.000000  celldm(3)=   0.000000
     celldm(4)=   0.000000  celldm(5)=   0.000000  celldm(6)=   0.000000

     crystal axes: (cart. coord. in units of alat)
               a(1) = (   1.000000   0.000000   0.000000 )  
               a(2) = (  -0.500001   0.866026   0.000000 )  
               a(3) = (   0.000000   0.000000   2.401941 )  

     reciprocal axes: (cart. coord. in units 2 pi/alat)
               b(1) = (  1.000000  0.577351  0.000000 )  
               b(2) = (  0.000000  1.154700  0.000000 )  
               b(3) = (  0.000000  0.000000  0.416330 )  


     PseudoPot. # 1 for Mo read from file:
     ./pseudo/Mo.pbe-spn-kjpaw_psl.1.0.0.UPF
     MD5 check sum: 317bf72632116215fd98f72de1686f13
     Pseudo is Projector augmented-wave + core cor, Zval = 14.0
     Generated using 'atomic' code by A. Dal Corso  v.7.2
     Shape of augmentation charge: PSQ
     Using radial grid of 1229 points,  6 beta functions with: 
                l(1) =   0
                l(2) =   0
                l(3) =   1
                l(4) =   1
                l(5) =   2
                l(6) =   2
     Q(r) pseudized with 0 coefficients 


     PseudoPot. # 2 for S  read from file:
     ./pseudo/S.pbe-n-kjpaw_psl.1.0.0.UPF
     MD5 check sum: 8b7b5302570d38d5e87fed6a1065abda
     Pseudo is Projector augmented-wave + core cor, Zval =  6.0
     Generated using 'atomic' code by A. Dal Corso  v.7.2
     Shape of augmentation charge: PSQ
     Using radial grid of 1151 points,  6 beta functions with: 
                l(1) =   0
                l(2) =   0
                l(3) =   1
                l(4) =   1
                l(5) =   2
                l(6) =   2
     Q(r) pseudized with 0 coefficients 


     PseudoPot. # 3 for H  read from file:
     ./pseudo/H.pbe-kjpaw_psl.1.0.0.UPF
     MD5 check sum: b3cb3c48ee3b58cc53e4d592112d0ca6
     Pseudo is Projector augmented-wave, Zval =  1.0
     Generated using 'atomic' code by A. Dal Corso  v.7.2
     Shape of augmentation charge: PSQ
     Using radial grid of  929 points,  2 beta functions with: 
                l(1) =   0
                l(2) =   0
     Q(r) pseudized with 0 coefficients 


     atomic species   valence    mass     pseudopotential
        Mo            14.00    95.95000     Mo( 1.00)
        S              6.00    32.06000     S ( 1.00)
        H              1.00     1.00800     H ( 1.00)

     No symmetry found



   Cartesian axes

     site n.     atom                  positions (alat units)
         1           Mo  tau(   1) = (   0.1253904   0.2167661   0.4826865  )
         2           Mo  tau(   2) = (   0.1250004   0.0721694  -0.4825273  )
         3           Mo  tau(   3) = (  -0.0000081   0.1443221  -0.0001078  )
         4           S   tau(   4) = (   0.0000004   0.0000006  -0.6064556  )
         5           S   tau(   5) = (   0.1250142   0.0721635  -0.1241727  )
         6           S   tau(   6) = (   0.0004355   0.1443898   0.3586307  )
         7           S   tau(   7) = (   0.0000004   0.0000005  -0.3584711  )
         8           S   tau(   8) = (   0.1249999   0.0721830   0.1241489  )
         9           S   tau(   9) = (   0.0001082   0.1446447   0.6068491  )
        10           Mo  tau(  10) = (   0.0004216   0.4332196   0.4826883  )
        11           Mo  tau(  11) = (   0.0000001   0.2886759  -0.4825273  )
        12           Mo  tau(  12) = (  -0.1250189   0.3608466  -0.0001074  )
        13           S   tau(  13) = (  -0.1249999   0.2165071  -0.6064556  )
        14           S   tau(  14) = (   0.0000122   0.2886838  -0.1241810  )
        15           S   tau(  15) = (  -0.1247358   0.3611949   0.3586313  )
        16           S   tau(  16) = (  -0.1249998   0.2165070  -0.3584711  )
        17           S   tau(  17) = (  -0.0000634   0.2886399   0.1240700  )
        18           S   tau(  18) = (  -0.1246798   0.3607832   0.6068495  )
        19           Mo  tau(  19) = (  -0.1252384   0.6496537   0.4822172  )
        20           Mo  tau(  20) = (  -0.1250002   0.5051824  -0.4825273  )
        21           Mo  tau(  21) = (  -0.2500021   0.5773551  -0.0000734  )
        22           S   tau(  22) = (  -0.2500002   0.4330136  -0.6064556  )
        23           S   tau(  23) = (  -0.1249992   0.5051983  -0.1241726  )
        24           S   tau(  24) = (  -0.2500024   0.5772247   0.3580471  )
        25           S   tau(  25) = (  -0.2500001   0.4330135  -0.3584711  )
        26           S   tau(  26) = (  -0.1249893   0.5051761   0.1241493  )
        27           S   tau(  27) = (  -0.2500022   0.5774524   0.6067346  )
        28           Mo  tau(  28) = (   0.2499982  -0.0002733   0.4822170  )
        29           Mo  tau(  29) = (  -0.2500004   0.7216889  -0.4825273  )
        30           Mo  tau(  30) = (  -0.3749988   0.7938553  -0.0000736  )
        31           S   tau(  31) = (  -0.3750004   0.6495201  -0.6064556  )
        32           S   tau(  32) = (  -0.2500023   0.7216883  -0.1241653  )
        33           S   tau(  33) = (  -0.3751105   0.7939177   0.3580474  )
        34           S   tau(  34) = (  -0.3750004   0.6495200  -0.3584711  )
        35           S   tau(  35) = (  -0.2500024   0.7216884   0.1241534  )
        36           S   tau(  36) = (  -0.3749127   0.7938041   0.6067343  )
        37           Mo  tau(  37) = (   0.3746046   0.2167672   0.4826888  )
        38           Mo  tau(  38) = (   0.3750004   0.0721694  -0.4825273  )
        39           Mo  tau(  39) = (   0.2499985   0.1443570  -0.0000821  )
        40           S   tau(  40) = (   0.2500004   0.0000006  -0.6064556  )
        41           S   tau(  41) = (   0.3749826   0.0721634  -0.1241730  )
        42           S   tau(  42) = (   0.2499989   0.1445359   0.3587324  )
        43           S   tau(  43) = (   0.2500004   0.0000005  -0.3584711  )
        44           S   tau(  44) = (   0.3749969   0.0721831   0.1241491  )
        45           S   tau(  45) = (   0.2499974   0.1434978   0.6071031  )
        46           Mo  tau(  46) = (   0.2499947   0.4330042   0.4762899  )
        47           Mo  tau(  47) = (   0.2500001   0.2886759  -0.4825273  )
        48           Mo  tau(  48) = (   0.1250058   0.3608489  -0.0000579  )
        49           S   tau(  49) = (   0.1250001   0.2165071  -0.6064556  )
        50           S   tau(  50) = (   0.2499982   0.2886907  -0.1241663  )
        51           S   tau(  51) = (   0.1234869   0.3599699   0.3565483  )
        52           S   tau(  52) = (   0.1250002   0.2165070  -0.3584711  )
        53           S   tau(  53) = (   0.2499984   0.2886911   0.1241910  )
        54           S   tau(  54) = (   0.1287646   0.3630148   0.6073038  )
        55           Mo  tau(  55) = (   0.1250300   0.6490426   0.4826943  )
        56           Mo  tau(  56) = (   0.1249998   0.5051824  -0.4825273  )
        57           Mo  tau(  57) = (   0.0000143   0.5773412  -0.0000821  )
        58           S   tau(  58) = (  -0.0000002   0.4330136  -0.6064556  )
        59           S   tau(  59) = (   0.1250108   0.5051744  -0.1241662  )
        60           S   tau(  60) = (   0.0001729   0.5772498   0.3587350  )
        61           S   tau(  61) = (  -0.0000001   0.4330135  -0.3584711  )
        62           S   tau(  62) = (   0.1250115   0.5051743   0.1241909  )
        63           S   tau(  63) = (  -0.0007310   0.5777672   0.6071045  )
        64           Mo  tau(  64) = (   0.4999104  -0.0000531   0.4825808  )
        65           Mo  tau(  65) = (  -0.0000004   0.7216889  -0.4825273  )
        66           Mo  tau(  66) = (  -0.1250061   0.7938552  -0.0000734  )
        67           S   tau(  67) = (  -0.1250004   0.6495201  -0.6064556  )
        68           S   tau(  68) = (  -0.0000153   0.7216775  -0.1241729  )
        69           S   tau(  69) = (  -0.1248946   0.7939178   0.3580476  )
        70           S   tau(  70) = (  -0.1250004   0.6495200  -0.3584711  )
        71           S   tau(  71) = (   0.0000090   0.7216801   0.1241491  )
        72           S   tau(  72) = (  -0.1250925   0.7938039   0.6067340  )
        73           Mo  tau(  73) = (   0.6248331   0.2165999   0.4824708  )
        74           Mo  tau(  74) = (   0.6250004   0.0721694  -0.4825273  )
        75           Mo  tau(  75) = (   0.5000046   0.1443220  -0.0001080  )
        76           S   tau(  76) = (   0.5000004   0.0000006  -0.6064556  )
        77           S   tau(  77) = (   0.6249987   0.0721691  -0.1241940  )
        78           S   tau(  78) = (   0.4995592   0.1443907   0.3586316  )
        79           S   tau(  79) = (   0.5000004   0.0000005  -0.3584711  )
        80           S   tau(  80) = (   0.6249984   0.0721689   0.1241567  )
        81           S   tau(  81) = (   0.4998883   0.1446450   0.6068497  )
        82           Mo  tau(  82) = (   0.4995715   0.4332194   0.4826919  )
        83           Mo  tau(  83) = (   0.5000001   0.2886759  -0.4825273  )
        84           Mo  tau(  84) = (   0.3749904   0.3608488  -0.0000582  )
        85           S   tau(  85) = (   0.3750001   0.2165071  -0.6064556  )
        86           S   tau(  86) = (   0.4999841   0.2886837  -0.1241814  )
        87           S   tau(  87) = (   0.3765074   0.3599707   0.3565516  )
        88           S   tau(  88) = (   0.3750002   0.2165070  -0.3584711  )
        89           S   tau(  89) = (   0.5000596   0.2886398   0.1240700  )
        90           S   tau(  90) = (   0.3712177   0.3630210   0.6073166  )
        91           Mo  tau(  91) = (   0.3749640   0.6490421   0.4826956  )
        92           Mo  tau(  92) = (   0.3749998   0.5051824  -0.4825273  )
        93           Mo  tau(  93) = (   0.2499978   0.5773419  -0.0000583  )
        94           S   tau(  94) = (   0.2499998   0.4330136  -0.6064556  )
        95           S   tau(  95) = (   0.3749849   0.5051743  -0.1241667  )
        96           S   tau(  96) = (   0.2499975   0.5790895   0.3565562  )
        97           S   tau(  97) = (   0.2499999   0.4330135  -0.3584711  )
        98           S   tau(  98) = (   0.3749845   0.5051742   0.1241908  )
        99           S   tau(  99) = (   0.2499962   0.5729648   0.6073349  )
       100           Mo  tau( 100) = (   0.7499982  -0.0001932   0.4824713  )
       101           Mo  tau( 101) = (   0.2499996   0.7216889  -0.4825273  )
       102           Mo  tau( 102) = (   0.1249869   0.7938707  -0.0001080  )
       103           S   tau( 103) = (   0.1249996   0.6495201  -0.6064556  )
       104           S   tau( 104) = (   0.2499976   0.7216721  -0.1241815  )
       105           S   tau( 105) = (   0.1248252   0.7934444   0.3586335  )
       106           S   tau( 106) = (   0.1249996   0.6495200  -0.3584711  )
       107           S   tau( 107) = (   0.2499976   0.7217593   0.1240700  )
       108           S   tau( 108) = (   0.1252107   0.7936060   0.6068513  )
       109           Mo  tau( 109) = (  -0.1248378   0.2165996   0.4824705  )
       110           Mo  tau( 110) = (   0.8750004   0.0721694  -0.4825273  )
       111           Mo  tau( 111) = (   0.7499982   0.1443377  -0.0000877  )
       112           S   tau( 112) = (   0.7500004   0.0000006  -0.6064556  )
       113           S   tau( 113) = (   0.8749980   0.0721692  -0.1241939  )
       114           S   tau( 114) = (   0.7499978   0.1443352   0.3583470  )
       115           S   tau( 115) = (   0.7500004   0.0000005  -0.3584711  )
       116           S   tau( 116) = (   0.8749979   0.0721689   0.1241568  )
       117           S   tau( 117) = (   0.7499979   0.1443358   0.6066535  )
       118           Mo  tau( 118) = (  -0.2500025   0.4331132   0.4825803  )
       119           Mo  tau( 119) = (   0.7500001   0.2886759  -0.4825273  )
       120           Mo  tau( 120) = (   0.6250150   0.3608466  -0.0001079  )
       121           S   tau( 121) = (   0.6250001   0.2165071  -0.6064556  )
       122           S   tau( 122) = (   0.7499981   0.2886751  -0.1241939  )
       123           S   tau( 123) = (   0.6247295   0.3611962   0.3586325  )
       124           S   tau( 124) = (   0.6250002   0.2165070  -0.3584711  )
       125           S   tau( 125) = (   0.7499978   0.2886751   0.1241572  )
       126           S   tau( 126) = (   0.6246756   0.3607826   0.6068504  )
       127           Mo  tau( 127) = (  -0.3747660   0.6496540   0.4822171  )
       128           Mo  tau( 128) = (   0.6249998   0.5051824  -0.4825273  )
       129           Mo  tau( 129) = (   0.4999813   0.5773412  -0.0000824  )
       130           S   tau( 130) = (   0.4999998   0.4330136  -0.6064556  )
       131           S   tau( 131) = (   0.6249949   0.5051983  -0.1241729  )
       132           S   tau( 132) = (   0.4998219   0.5772487   0.3587367  )
       133           S   tau( 133) = (   0.4999999   0.4330135  -0.3584711  )
       134           S   tau( 134) = (   0.6249847   0.5051761   0.1241491  )
       135           S   tau( 135) = (   0.5007271   0.5777686   0.6071054  )
       136           Mo  tau( 136) = (   0.0000861  -0.0000534   0.4825807  )
       137           Mo  tau( 137) = (   0.4999996   0.7216889  -0.4825273  )
       138           Mo  tau( 138) = (   0.3750079   0.7938708  -0.0001079  )
       139           S   tau( 139) = (   0.3749996   0.6495201  -0.6064556  )
       140           S   tau( 140) = (   0.5000104   0.7216775  -0.1241732  )
       141           S   tau( 141) = (   0.3751695   0.7934436   0.3586339  )
       142           S   tau( 142) = (   0.3749996   0.6495200  -0.3584711  )
       143           S   tau( 143) = (   0.4999860   0.7216799   0.1241491  )
       144           S   tau( 144) = (   0.3747838   0.7936062   0.6068516  )
       145           H   tau( 145) = (   0.2500494   0.4331239   0.6864303  )

     --------------------------------------------
     DFT-D3 Dispersion Correction (3-body terms):
     --------------------------------------------
       Reference C6 values for interpolation: 

         atom   Coordination number   C6
         H          0.912             6.05
         H          0.000            15.18
         S          0.000           268.01
         S          0.995           261.99
         S          1.990           251.62
         Mo         0.000          1691.79
         Mo         1.942          1004.01
         Mo        11.056           674.22

       Values used:

         atom   Coordination number  R0_AB[au]  C6      C8
         Mo        10.187            3.547    674.22  77634.20
         Mo        10.189            3.547    674.22  77634.20
         Mo        10.201            3.547    674.22  77634.20
         S          3.753            3.128    251.62  12327.25
         S          3.858            3.128    251.62  12327.25
         S          3.863            3.128    251.62  12327.25
         S          3.859            3.128    251.62  12327.25
         S          3.857            3.128    251.62  12327.25
         S          3.731            3.128    251.62  12327.25
         Mo        10.187            3.547    674.22  77634.20
         Mo        10.189            3.547    674.22  77634.20
         Mo        10.201            3.547    674.22  77634.20
         S          3.753            3.128    251.62  12327.25
         S          3.859            3.128    251.62  12327.25
         S          3.863            3.128    251.62  12327.25
         S          3.859            3.128    251.62  12327.25
         S          3.861            3.128    251.62  12327.25
         S          3.731            3.128    251.62  12327.25
         Mo        10.196            3.547    674.22  77634.20
         Mo        10.189            3.547    674.22  77634.20
         Mo        10.201            3.547    674.22  77634.20
         S          3.753            3.128    251.62  12327.25
         S          3.858            3.128    251.62  12327.25
         S          3.855            3.128    251.62  12327.25
         S          3.859            3.128    251.62  12327.25
         S          3.857            3.128    251.62  12327.25
         S          3.754            3.128    251.62  12327.25
         Mo        10.196            3.547    674.22  77634.20
         Mo        10.189            3.547    674.22  77634.20
         Mo        10.201            3.547    674.22  77634.20
         S          3.753            3.128    251.62  12327.25
         S          3.859            3.128    251.62  12327.25
         S          3.855            3.128    251.62  12327.25
         S          3.859            3.128    251.62  12327.25
         S          3.858            3.128    251.62  12327.25
         S          3.754            3.128    251.62  12327.25
         Mo        10.187            3.547    674.22  77634.20
         Mo        10.189            3.547    674.22  77634.20
         Mo        10.201            3.547    674.22  77634.20
         S          3.753            3.128    251.62  12327.25
         S          3.858            3.128    251.62  12327.25
         S          3.864            3.128    251.62  12327.25
         S          3.859            3.128    251.62  12327.25
         S          3.857            3.128    251.62  12327.25
         S          3.748            3.128    251.62  12327.25
         Mo        10.249            3.547    674.22  77634.20
         Mo        10.189            3.547    674.22  77634.20
         Mo        10.201            3.547    674.22  77634.20
         S          3.753            3.128    251.62  12327.25
         S          3.859            3.128    251.62  12327.25
         S          3.843            3.128    251.62  12327.25
         S          3.859            3.128    251.62  12327.25
         S          3.860            3.128    251.62  12327.25
         S          3.910            3.128    251.62  12327.25
         Mo        10.187            3.547    674.22  77634.20
         Mo        10.189            3.547    674.22  77634.20
         Mo        10.201            3.547    674.22  77634.20
         S          3.753            3.128    251.62  12327.25
         S          3.859            3.128    251.62  12327.25
         S          3.864            3.128    251.62  12327.25
         S          3.859            3.128    251.62  12327.25
         S          3.860            3.128    251.62  12327.25
         S          3.748            3.128    251.62  12327.25
         Mo        10.174            3.547    674.22  77634.20
         Mo        10.189            3.547    674.22  77634.20
         Mo        10.201            3.547    674.22  77634.20
         S          3.753            3.128    251.62  12327.25
         S          3.858            3.128    251.62  12327.25
         S          3.855            3.128    251.62  12327.25
         S          3.859            3.128    251.62  12327.25
         S          3.857            3.128    251.62  12327.25
         S          3.754            3.128    251.62  12327.25
         Mo        10.164            3.547    674.22  77634.20
         Mo        10.189            3.547    674.22  77634.20
         Mo        10.201            3.547    674.22  77634.20
         S          3.753            3.128    251.62  12327.25
         S          3.858            3.128    251.62  12327.25
         S          3.863            3.128    251.62  12327.25
         S          3.859            3.128    251.62  12327.25
         S          3.857            3.128    251.62  12327.25
         S          3.731            3.128    251.62  12327.25
         Mo        10.187            3.547    674.22  77634.20
         Mo        10.189            3.547    674.22  77634.20
         Mo        10.201            3.547    674.22  77634.20
         S          3.753            3.128    251.62  12327.25
         S          3.859            3.128    251.62  12327.25
         S          3.843            3.128    251.62  12327.25
         S          3.859            3.128    251.62  12327.25
         S          3.861            3.128    251.62  12327.25
         S          3.911            3.128    251.62  12327.25
         Mo        10.187            3.547    674.22  77634.20
         Mo        10.189            3.547    674.22  77634.20
         Mo        10.201            3.547    674.22  77634.20
         S          3.753            3.128    251.62  12327.25
         S          3.859            3.128    251.62  12327.25
         S          3.843            3.128    251.62  12327.25
         S          3.859            3.128    251.62  12327.25
         S          3.860            3.128    251.62  12327.25
         S          3.912            3.128    251.62  12327.25
         Mo        10.164            3.547    674.22  77634.20
         Mo        10.189            3.547    674.22  77634.20
         Mo        10.201            3.547    674.22  77634.20
         S          3.753            3.128    251.62  12327.25
         S          3.859            3.128    251.62  12327.25
         S          3.863            3.128    251.62  12327.25
         S          3.859            3.128    251.62  12327.25
         S          3.861            3.128    251.62  12327.25
         S          3.731            3.128    251.62  12327.25
         Mo        10.164            3.547    674.22  77634.20
         Mo        10.189            3.547    674.22  77634.20
         Mo        10.202            3.547    674.22  77634.20
         S          3.753            3.128    251.62  12327.25
         S          3.858            3.128    251.62  12327.25
         S          3.843            3.128    251.62  12327.25
         S          3.859            3.128    251.62  12327.25
         S          3.857            3.128    251.62  12327.25
         S          3.746            3.128    251.62  12327.25
         Mo        10.174            3.547    674.22  77634.20
         Mo        10.189            3.547    674.22  77634.20
         Mo        10.201            3.547    674.22  77634.20
         S          3.753            3.128    251.62  12327.25
         S          3.858            3.128    251.62  12327.25
         S          3.863            3.128    251.62  12327.25
         S          3.859            3.128    251.62  12327.25
         S          3.857            3.128    251.62  12327.25
         S          3.731            3.128    251.62  12327.25
         Mo        10.196            3.547    674.22  77634.20
         Mo        10.189            3.547    674.22  77634.20
         Mo        10.201            3.547    674.22  77634.20
         S          3.753            3.128    251.62  12327.25
         S          3.858            3.128    251.62  12327.25
         S          3.864            3.128    251.62  12327.25
         S          3.859            3.128    251.62  12327.25
         S          3.857            3.128    251.62  12327.25
         S          3.747            3.128    251.62  12327.25
         Mo        10.174            3.547    674.22  77634.20
         Mo        10.189            3.547    674.22  77634.20
         Mo        10.201            3.547    674.22  77634.20
         S          3.753            3.128    251.62  12327.25
         S          3.858            3.128    251.62  12327.25
         S          3.863            3.128    251.62  12327.25
         S          3.859            3.128    251.62  12327.25
         S          3.857            3.128    251.62  12327.25
         S          3.731            3.128    251.62  12327.25
         H          0.424            2.062     10.58    127.88

         Molecular C6 ( Ry / a.u.^6 ) =   7675702.95


     number of k points=     4  Gaussian smearing, width (Ry)=  0.0100
                       cart. coord. in units 2pi/alat
        k(    1) = (   0.0000000   0.0000000   0.0000000), wk =   0.5000000
        k(    2) = (   0.0000000  -0.5773499   0.0000000), wk =   0.5000000
        k(    3) = (  -0.5000000  -0.8660254   0.0000000), wk =   0.5000000
        k(    4) = (   0.5000000   0.2886755   0.0000000), wk =   0.5000000

     Dense  grid:  5955087 G-vectors     FFT dimensions: ( 180, 180, 432)

     Smooth grid:  2572543 G-vectors     FFT dimensions: ( 135, 135, 320)

     Estimated max dynamical RAM per process >       2.12 GB

     Estimated total dynamical RAM >      76.22 GB

     Initial potential from superposition of free atoms

     starting charge    1248.9546, renormalised to    1249.0000

     negative rho (up, down):  7.152E-04 0.000E+00
     Starting wfcs are  865 randomized atomic wfcs
     Checking if some PAW data can be deallocated... 

     total cpu time spent up to now is      102.2 secs

     Self-consistent Calculation

     iteration #  1     ecut=    77.00 Ry     beta= 0.20
     Davidson diagonalization with overlap
     ethr =  1.00E-02,  avg # of iterations =  2.0

     Threshold (ethr) on eigenvalues was too large:
     Diagonalizing with lowered threshold

     Davidson diagonalization with overlap
     c_bands:  1 eigenvalues not converged
     c_bands:  1 eigenvalues not converged
     c_bands:  1 eigenvalues not converged
     c_bands:  1 eigenvalues not converged
     ethr =  1.15E-04,  avg # of iterations = 20.0

     negative rho (up, down):  2.227E-04 0.000E+00

     total cpu time spent up to now is     1461.8 secs

     total energy              =  -23846.23370710 Ry
     estimated scf accuracy    <       5.19953753 Ry

     iteration #  2     ecut=    77.00 Ry     beta= 0.20
     Davidson diagonalization with overlap
     ethr =  4.16E-04,  avg # of iterations =  1.0

     negative rho (up, down):  4.301E-05 0.000E+00

     total cpu time spent up to now is     1660.7 secs

     total energy              =  -23845.24736957 Ry
     estimated scf accuracy    <       2.58056441 Ry

     iteration #  3     ecut=    77.00 Ry     beta= 0.20
     Davidson diagonalization with overlap
     ethr =  2.07E-04,  avg # of iterations = 15.0

     negative rho (up, down):  2.555E-05 0.000E+00

     total cpu time spent up to now is     1906.3 secs

     total energy              =  -23845.07066392 Ry
     estimated scf accuracy    <       0.68630371 Ry

     iteration #  4     ecut=    77.00 Ry     beta= 0.20
     Davidson diagonalization with overlap
     c_bands:  1 eigenvalues not converged
     ethr =  5.49E-05,  avg # of iterations = 17.0

     negative rho (up, down):  3.129E-05 0.000E+00

     total cpu time spent up to now is     2716.4 secs

     total energy              =  -23846.20175620 Ry
     estimated scf accuracy    <       2.21142598 Ry

     iteration #  5     ecut=    77.00 Ry     beta= 0.20
     Davidson diagonalization with overlap
     ethr =  5.49E-05,  avg # of iterations =  2.0

     negative rho (up, down):  2.535E-05 0.000E+00

     total cpu time spent up to now is     2935.7 secs

     total energy              =  -23846.36857483 Ry
     estimated scf accuracy    <       1.07091256 Ry

     iteration #  6     ecut=    77.00 Ry     beta= 0.20
     Davidson diagonalization with overlap
     ethr =  5.49E-05,  avg # of iterations =  1.0

     negative rho (up, down):  7.463E-05 0.000E+00

     total cpu time spent up to now is     3134.6 secs

     total energy              =  -23845.61963479 Ry
     estimated scf accuracy    <       1.21437462 Ry

     iteration #  7     ecut=    77.00 Ry     beta= 0.20
     Davidson diagonalization with overlap
     ethr =  5.49E-05,  avg # of iterations = 15.5

     negative rho (up, down):  1.375E-04 0.000E+00

     total cpu time spent up to now is     3553.1 secs

     total energy              =  -23846.30773171 Ry
     estimated scf accuracy    <       0.12226181 Ry

     iteration #  8     ecut=    77.00 Ry     beta= 0.20
     Davidson diagonalization with overlap
     c_bands:  1 eigenvalues not converged
     c_bands:  3 eigenvalues not converged
     c_bands:  2 eigenvalues not converged
     ethr =  9.79E-06,  avg # of iterations = 23.5

     negative rho (up, down):  1.157E-04 0.000E+00

     total cpu time spent up to now is     4446.9 secs

     total energy              =  -23846.27699770 Ry
     estimated scf accuracy    <       1.16994079 Ry

     iteration #  9     ecut=    77.00 Ry     beta= 0.20
     Davidson diagonalization with overlap
     c_bands:  1 eigenvalues not converged
     c_bands:  2 eigenvalues not converged
     ethr =  9.79E-06,  avg # of iterations = 25.0

     negative rho (up, down):  1.323E-04 0.000E+00

     total cpu time spent up to now is     4874.9 secs

     total energy              =  -23846.18620706 Ry
     estimated scf accuracy    <       0.57340361 Ry

     iteration # 10     ecut=    77.00 Ry     beta= 0.20
     Davidson diagonalization with overlap
     c_bands:  1 eigenvalues not converged
     ethr =  9.79E-06,  avg # of iterations = 11.8

     negative rho (up, down):  2.945E-04 0.000E+00

     total cpu time spent up to now is     5152.3 secs

     total energy              =  -23846.10873474 Ry
     estimated scf accuracy    <       0.29942205 Ry

     iteration # 11     ecut=    77.00 Ry     beta= 0.20
     Davidson diagonalization with overlap
     ethr =  9.79E-06,  avg # of iterations =  8.0

     negative rho (up, down):  4.290E-04 0.000E+00

     total cpu time spent up to now is     5503.1 secs

     total energy              =  -23846.16679064 Ry
     estimated scf accuracy    <       0.02609715 Ry

     iteration # 12     ecut=    77.00 Ry     beta= 0.20
     Davidson diagonalization with overlap
     c_bands:  3 eigenvalues not converged
     c_bands:  4 eigenvalues not converged
     c_bands:  5 eigenvalues not converged
     ethr =  2.09E-06,  avg # of iterations = 45.5

     negative rho (up, down):  4.756E-04 0.000E+00

     total cpu time spent up to now is     6532.9 secs

     total energy              =  -23846.20959491 Ry
     estimated scf accuracy    <       0.01018274 Ry

     iteration # 13     ecut=    77.00 Ry     beta= 0.20
     Davidson diagonalization with overlap
     c_bands:  1 eigenvalues not converged
     c_bands:  2 eigenvalues not converged
     c_bands:  3 eigenvalues not converged
     ethr =  8.15E-07,  avg # of iterations = 16.0

     negative rho (up, down):  6.367E-04 0.000E+00

     total cpu time spent up to now is     6804.1 secs

     total energy              =  -23846.20884193 Ry
     estimated scf accuracy    <       0.00320466 Ry

     iteration # 14     ecut=    77.00 Ry     beta= 0.20
     Davidson diagonalization with overlap
     c_bands:  1 eigenvalues not converged
     c_bands:  1 eigenvalues not converged
     ethr =  2.57E-07,  avg # of iterations = 16.5

     negative rho (up, down):  7.334E-04 0.000E+00

     total cpu time spent up to now is     7304.3 secs

     total energy              =  -23846.21227685 Ry
     estimated scf accuracy    <       0.00058361 Ry

     iteration # 15     ecut=    77.00 Ry     beta= 0.20
     Davidson diagonalization with overlap
     c_bands:  2 eigenvalues not converged
     c_bands:  1 eigenvalues not converged
     c_bands:  1 eigenvalues not converged
     c_bands:  1 eigenvalues not converged
     ethr =  4.67E-08,  avg # of iterations = 20.0

     negative rho (up, down):  7.698E-04 0.000E+00

     total cpu time spent up to now is     7999.2 secs

     total energy              =  -23846.21221756 Ry
     estimated scf accuracy    <       0.00177197 Ry

     iteration # 16     ecut=    77.00 Ry     beta= 0.20
     Davidson diagonalization with overlap
     ethr =  4.67E-08,  avg # of iterations = 16.5

     negative rho (up, down):  7.890E-04 0.000E+00

     total cpu time spent up to now is     8430.5 secs

     total energy              =  -23846.21269144 Ry
     estimated scf accuracy    <       0.00005321 Ry

     iteration # 17     ecut=    77.00 Ry     beta= 0.20
     Davidson diagonalization with overlap
     c_bands:  1 eigenvalues not converged
     c_bands:  1 eigenvalues not converged
     c_bands:  1 eigenvalues not converged
     c_bands:  3 eigenvalues not converged
     ethr =  4.26E-09,  avg # of iterations = 20.0

     negative rho (up, down):  8.283E-04 0.000E+00

     total cpu time spent up to now is     9682.1 secs

     total energy              =  -23846.21261592 Ry
     estimated scf accuracy    <       0.00060777 Ry

     iteration # 18     ecut=    77.00 Ry     beta= 0.20
     Davidson diagonalization with overlap
     ethr =  4.26E-09,  avg # of iterations = 16.5

     negative rho (up, down):  8.424E-04 0.000E+00

     total cpu time spent up to now is    10240.7 secs

     total energy              =  -23846.21278082 Ry
     estimated scf accuracy    <       0.00001474 Ry

     iteration # 19     ecut=    77.00 Ry     beta= 0.20
     Davidson diagonalization with overlap
     ethr =  1.18E-09,  avg # of iterations = 11.0

     negative rho (up, down):  8.487E-04 0.000E+00

     total cpu time spent up to now is    10669.9 secs

     total energy              =  -23846.21278403 Ry
     estimated scf accuracy    <       0.00001917 Ry

     iteration # 20     ecut=    77.00 Ry     beta= 0.20
     Davidson diagonalization with overlap
     ethr =  1.18E-09,  avg # of iterations =  3.0

     negative rho (up, down):  8.545E-04 0.000E+00

     total cpu time spent up to now is    10889.4 secs

     total energy              =  -23846.21277840 Ry
     estimated scf accuracy    <       0.00000742 Ry

     iteration # 21     ecut=    77.00 Ry     beta= 0.20
     Davidson diagonalization with overlap
     ethr =  5.94E-10,  avg # of iterations = 14.2

     negative rho (up, down):  8.598E-04 0.000E+00

     total cpu time spent up to now is    11324.6 secs

     total energy              =  -23846.21278343 Ry
     estimated scf accuracy    <       0.00000725 Ry

     iteration # 22     ecut=    77.00 Ry     beta= 0.20
     Davidson diagonalization with overlap
     ethr =  5.81E-10,  avg # of iterations =  1.0

     negative rho (up, down):  8.632E-04 0.000E+00

     total cpu time spent up to now is    11523.6 secs

     total energy              =  -23846.21278027 Ry
     estimated scf accuracy    <       0.00000383 Ry

     iteration # 23     ecut=    77.00 Ry     beta= 0.20
     Davidson diagonalization with overlap
     ethr =  3.07E-10,  avg # of iterations = 10.0

     negative rho (up, down):  8.648E-04 0.000E+00

     total cpu time spent up to now is    11829.5 secs

     End of self-consistent calculation

          k = 0.0000 0.0000 0.0000 (321495 PWs)   bands (ev):

   -66.8192 -66.7982 -66.7982 -66.7981 -66.7981 -66.7981 -66.7981 -66.7770
   -66.7770 -66.7770 -66.7770 -66.7770 -66.7769 -66.7769 -66.7769 -66.7769
   -66.7538 -66.7330 -66.7328 -66.7328 -66.7325 -66.7325 -66.7324 -66.7118
   -66.7118 -66.7117 -66.7115 -66.7115 -66.7115 -66.7114 -66.7111 -66.7110
   -66.7003 -66.6839 -66.6805 -66.6804 -66.6779 -66.6779 -66.6701 -66.6621
   -66.6621 -66.6599 -66.6591 -66.6590 -66.6553 -66.6552 -66.6539 -66.5614
   -41.1457 -41.1457 -41.1457 -41.0792 -41.0790 -41.0790 -41.0709 -41.0709
   -41.0709 -41.0709 -41.0709 -41.0709 -41.0241 -41.0187 -41.0187 -41.0045
   -41.0044 -41.0044 -41.0042 -41.0042 -41.0042 -40.9794 -40.9514 -40.9483
   -40.9483 -40.9479 -40.9454 -40.9453 -40.9453 -40.9453 -40.9453 -40.9453
   -40.9379 -40.9379 -40.9379 -40.9379 -40.9379 -40.9379 -40.9352 -40.9352
   -40.9144 -40.9105 -40.9105 -40.9105 -40.9105 -40.9105 -40.9105 -40.8963
   -40.8963 -40.8962 -40.8962 -40.8962 -40.8962 -40.8962 -40.8962 -40.8962
   -40.8791 -40.8790 -40.8790 -40.8788 -40.8787 -40.8787 -40.8733 -40.8732
   -40.8732 -40.8729 -40.8729 -40.8727 -40.8589 -40.8443 -40.8443 -40.8441
   -40.8441 -40.8440 -40.8439 -40.8327 -40.8327 -40.8327 -40.8317 -40.8317
   -40.8316 -40.8315 -40.8314 -40.8314 -40.8313 -40.8309 -40.8309 -40.8256
   -40.8253 -40.8253 -40.8220 -40.8199 -40.8198 -40.8190 -40.8190 -40.8185
   -40.8143 -40.8143 -40.8058 -40.7909 -40.7908 -40.7870 -40.7870 -40.7859
   -40.7859 -40.7859 -40.7859 -40.7859 -40.7859 -40.7805 -40.7805 -40.7785
   -40.7785 -40.7775 -40.7773 -40.7767 -40.7767 -40.7743 -40.7743 -40.7664
   -40.7664 -40.7663 -40.7386 -40.7386 -40.7197 -40.7197 -40.7196 -40.7195
   -40.7195 -40.7194 -40.7100 -40.7050 -40.7050 -40.6723 -40.6723 -40.6681
   -40.6658 -40.6658 -40.6648 -40.6611 -40.6480 -40.6480 -40.6053 -40.6053
   -20.2520 -20.1358 -20.0089 -19.3966 -19.3849 -19.3849 -19.3844 -19.3844
   -19.3844 -19.3401 -19.2737 -19.2737 -19.2707 -19.2706 -19.2703 -19.2115
   -19.1471 -19.1471 -19.1427 -19.1411 -19.1411 -18.9940 -18.8096 -18.6501
   -18.5995 -18.5871 -18.5871 -18.5846 -18.5841 -18.5840 -18.4840 -18.4387
   -18.4387 -18.4293 -18.4293 -18.4291 -18.3334 -18.3067 -18.3066 -18.2960
   -18.2960 -18.2941 -18.2793 -18.2793 -18.2792 -18.2791 -18.2791 -18.2790
   -18.2388 -18.2388 -18.2388 -18.2047 -18.2047 -18.2041 -18.2026 -18.2026
   -18.2009 -18.1713 -18.1697 -18.1697 -18.1331 -18.1330 -18.1229 -18.1191
   -18.1186 -18.1186 -18.1007 -18.1004 -18.1003 -18.0705 -18.0704 -18.0658
   -18.0543 -18.0543 -18.0534 -18.0482 -18.0482 -18.0482 -18.0089 -18.0088
   -18.0045 -17.9841 -17.9841 -17.9811 -17.9732 -17.9732 -17.9726 -17.9371
   -17.9371 -17.9340 -17.9045 -17.9045 -17.9007 -17.8966 -17.8966 -17.8942
   -12.1479 -12.0094 -11.8957 -11.8957 -11.8936 -11.8225 -11.8225 -11.8129
   -11.7325 -11.7325 -11.6848 -11.5407 -11.3427 -11.3427 -11.3411 -11.3406
   -11.3405 -11.3253 -11.2676 -11.2676 -11.2674 -11.2670 -11.2670 -11.2649
   -11.2312 -11.1447 -11.1446 -11.1432 -11.1407 -11.1407 -11.1222 -11.0540
   -11.0540 -11.0499 -11.0468 -11.0468 -11.0408 -11.0339 -11.0338 -11.0305
   -11.0277 -11.0276 -10.9731 -10.9706 -10.9706 -10.9702 -10.9702 -10.9702
   -10.9459 -10.9433 -10.9433 -10.9407 -10.9221 -10.9220 -10.9210 -10.9209
   -10.9198 -10.8918 -10.8796 -10.8795 -10.8626 -10.8626 -10.8626 -10.8597
   -10.8529 -10.8529 -10.8107 -10.7338 -10.7338 -10.7311 -10.7292 -10.7292
   -10.7248 -10.7247 -10.7037 -10.1951 -10.1879 -10.1879 -10.1209 -10.0428
   -10.0428  -9.9986  -9.9127  -9.9127  -9.9117  -9.9076  -9.9076  -9.9072
    -9.8929  -9.8928  -9.8419  -9.8171  -9.8171  -9.8170  -9.8104  -9.8104
    -9.7696  -9.7618  -9.7600  -9.7600  -9.7574  -9.7574  -9.7328  -9.7163
    -9.7163  -9.7136  -9.7136  -9.7133  -9.7131  -9.6832  -9.6830  -9.6739
    -9.6607  -9.6607  -9.6572  -9.6531  -9.6531  -9.6315  -9.6246  -9.6246
    -9.5704  -9.5704  -9.5675  -9.5635  -9.5635  -9.5619  -9.4942  -9.4424
    -9.4424  -9.4382  -9.4356  -9.4356  -9.3742  -9.3570  -9.3569  -9.3281
    -9.3281  -9.3242  -9.3165  -9.3132  -9.3132  -9.3071  -9.3001  -9.3001
    -9.1942  -9.1576  -9.1576  -9.1575  -9.1473  -9.1473  -9.1438  -9.1420
    -9.1420  -9.0856  -9.0856  -9.0840  -9.0425  -9.0161  -9.0161  -9.0041
    -8.9833  -8.9833  -8.9773  -8.9773  -8.9717  -8.9365  -8.9356  -8.9356
    -8.9332  -8.9332  -8.9322  -8.8597  -8.8596  -8.8585  -8.8569  -8.8557
    -8.8557  -8.8199  -8.8032  -8.8031  -8.7892  -8.7892  -8.7828  -8.5686
    -8.5686  -8.5487  -8.4968  -8.4968  -8.4564  -8.4564  -8.4564  -8.4564
    -8.4564  -8.4564  -8.4237  -8.4237  -8.3861  -8.3861  -8.3859  -8.3853
    -8.3853  -8.3848  -8.3199  -8.3199  -8.3122  -8.3073  -8.3073  -8.2998
    -8.1068  -8.1067  -8.1046  -7.8834  -7.8833  -7.8722  -7.8596  -7.7210
    -7.7210  -7.7210  -7.7210  -7.7210  -7.7209  -7.6778  -7.6778  -7.6755
    -7.6746  -7.6746  -7.6745  -7.6681  -7.6679  -7.6489  -7.6489  -7.6487
    -7.6474  -7.6474  -7.6473  -7.6348  -7.6087  -7.6087  -7.6063  -7.6030
    -7.6026  -7.6026  -7.5861  -7.5861  -7.5791  -7.5705  -7.5705  -7.5686
    -7.5655  -7.5655  -7.5592  -7.5570  -7.5537  -7.5537  -7.5470  -7.5354
    -7.5353  -7.5050  -7.5050  -7.4999  -7.4396  -7.4396  -7.3718  -7.3718
    -7.3669  -7.3032  -7.3032  -7.3022  -7.3021  -7.2927  -7.2927  -7.2918
    -7.0729  -6.9873  -6.9872  -6.9838  -6.9713  -6.9713  -6.9617  -6.9428
    -6.9427  -6.9424  -6.8435  -6.8435  -6.8398  -6.7530  -6.7530  -6.7529
    -6.7483  -6.7457  -6.7457  -6.7407  -6.7407  -6.7351  -6.6603  -6.6602
    -6.6602  -6.6420  -6.6389  -6.6389  -6.6380  -6.6350  -6.6350  -6.5764
    -6.5764  -6.5711  -6.5625  -6.5614  -6.5614  -6.5602  -6.5538  -6.5537
    -6.4899  -6.4899  -6.4877  -6.4876  -6.4876  -6.4876  -6.4876  -6.4876
    -6.4759  -6.4124  -6.4123  -6.4118  -6.4113  -6.4113  -6.4110  -6.3602
    -6.3518  -6.3518  -6.3466  -6.3466  -6.3324  -6.2789  -5.6430  -5.2916
    -4.8416  -3.9730  -3.9730  -3.9717  -3.9699  -3.9699  -3.9509  -3.9403
    -3.9403  -3.9370  -3.9368  -3.9368  -3.9190  -3.7301  -3.7301  -3.7239
    -3.7239  -3.7164  -3.7164  -3.7157  -3.7121  -3.7094  -3.7094  -3.7085
    -3.6283  -3.6282  -3.6281  -3.6133  -3.6132  -3.6120  -3.6119  -3.6118
    -3.6106  -3.5890  -3.5624  -3.5619  -3.5619  -3.5316  -3.5315  -3.5176
    -3.5175  -3.5170  -3.5117  -3.5050  -3.5049  -3.4994  -3.4988  -3.4988
    -3.4962  -3.4961  -3.4907  -3.4559  -3.4309  -3.4308  -3.4185  -3.4183
    -3.4151  -3.3961  -3.3833  -3.3832  -3.3807  -3.3807  -3.3758  -3.1663
    -3.1627  -3.1627  -3.1571  -3.1571  -3.1527  -3.0941  -3.0941  -3.0894
    -3.0893  -3.0891  -3.0890  -3.0886  -3.0885  -3.0712  -3.0711  -3.0639
    -3.0490  -3.0488  -3.0387  -3.0366  -3.0366  -3.0322  -3.0322  -3.0222
    -3.0221  -3.0207  -3.0201  -3.0126  -3.0125  -2.9974  -2.9909  -2.9907
    -2.9327  -2.9325  -2.9141  -2.9140  -2.9098  -2.9090  -2.8997  -2.8993
    -2.8722  -2.8714  -2.8681  -2.8653  -2.8645  -2.8644  -2.8468  -2.8467
    -2.8229  -2.7834  -2.7819  -2.7818  -2.7773  -2.7773  -2.7619  -2.7618
    -2.6389  -2.6032  -2.6017  -2.6005  -2.5958  -2.5950

          k = 0.0000-0.5773 0.0000 (321564 PWs)   bands (ev):

   -66.8131 -66.8131 -66.8025 -66.8025 -66.7876 -66.7876 -66.7876 -66.7876
   -66.7832 -66.7832 -66.7770 -66.7770 -66.7770 -66.7769 -66.7726 -66.7726
   -66.7477 -66.7475 -66.7371 -66.7370 -66.7221 -66.7221 -66.7221 -66.7221
   -66.7178 -66.7176 -66.7117 -66.7116 -66.7114 -66.7112 -66.7071 -66.7071
   -66.6964 -66.6926 -66.6835 -66.6815 -66.6710 -66.6706 -66.6671 -66.6671
   -66.6643 -66.6612 -66.6601 -66.6593 -66.6566 -66.6548 -66.6514 -66.5614
   -41.1143 -41.1143 -41.1143 -41.1143 -41.0877 -41.0877 -41.0757 -41.0757
   -41.0479 -41.0478 -41.0475 -41.0475 -41.0253 -41.0253 -41.0253 -41.0253
   -41.0212 -41.0210 -41.0092 -41.0091 -40.9948 -40.9934 -40.9897 -40.9776
   -40.9673 -40.9672 -40.9666 -40.9637 -40.9589 -40.9588 -40.9587 -40.9587
   -40.9574 -40.9574 -40.9513 -40.9465 -40.9465 -40.9424 -40.9171 -40.9171
   -40.9171 -40.9171 -40.9084 -40.9084 -40.9025 -40.9022 -40.9020 -40.9006
   -40.8964 -40.8964 -40.8962 -40.8962 -40.8962 -40.8962 -40.8962 -40.8931
   -40.8910 -40.8909 -40.8876 -40.8876 -40.8816 -40.8816 -40.8656 -40.8656
   -40.8656 -40.8656 -40.8523 -40.8523 -40.8522 -40.8522 -40.8494 -40.8447
   -40.8437 -40.8434 -40.8346 -40.8316 -40.8315 -40.8313 -40.8311 -40.8311
   -40.8311 -40.8311 -40.8311 -40.8300 -40.8299 -40.8286 -40.8280 -40.8241
   -40.8228 -40.8228 -40.8190 -40.8190 -40.8001 -40.7999 -40.7998 -40.7998
   -40.7994 -40.7993 -40.7992 -40.7990 -40.7977 -40.7941 -40.7911 -40.7860
   -40.7830 -40.7830 -40.7798 -40.7786 -40.7781 -40.7731 -40.7722 -40.7694
   -40.7687 -40.7649 -40.7648 -40.7647 -40.7647 -40.7529 -40.7525 -40.7525
   -40.7525 -40.7478 -40.7444 -40.7406 -40.7336 -40.7334 -40.7334 -40.7167
   -40.7166 -40.7095 -40.7077 -40.7036 -40.7021 -40.6980 -40.6864 -40.6861
   -40.6806 -40.6804 -40.6742 -40.6680 -40.6602 -40.6334 -40.6330 -40.6118
   -20.0170 -20.0142 -19.9136 -19.8915 -19.7925 -19.7566 -19.5811 -19.5798
   -19.4781 -19.4636 -19.3639 -19.3326 -18.9211 -18.8785 -18.8721 -18.8719
   -18.8717 -18.8717 -18.8197 -18.7733 -18.7729 -18.7720 -18.7451 -18.6912
   -18.6782 -18.6757 -18.6632 -18.6590 -18.6571 -18.6562 -18.6243 -18.6241
   -18.5580 -18.5353 -18.5291 -18.5270 -18.5134 -18.5128 -18.4402 -18.4327
   -18.3748 -18.3707 -18.3476 -18.3463 -18.3451 -18.3430 -18.2597 -18.2595
   -18.2594 -18.2594 -18.2482 -18.2425 -18.2327 -18.2282 -18.2257 -18.2199
   -18.1884 -18.1873 -18.1868 -18.1866 -18.1481 -18.1463 -18.1342 -18.1284
   -18.1164 -18.1148 -18.1083 -18.1066 -18.1035 -18.1011 -18.0637 -18.0616
   -18.0553 -18.0552 -18.0497 -18.0398 -18.0002 -17.9958 -17.9958 -17.9938
   -17.9873 -17.9863 -17.9374 -17.9367 -17.9310 -17.9266 -17.9209 -17.9205
   -17.9114 -17.9095 -17.8818 -17.8803 -17.8536 -17.8484 -17.8107 -17.7977
   -12.0630 -11.8020 -11.7749 -11.6074 -11.6068 -11.6067 -11.6057 -11.5826
   -11.5818 -11.5273 -11.5235 -11.5228 -11.5182 -11.4731 -11.4692 -11.4367
   -11.4251 -11.4199 -11.4162 -11.4147 -11.4109 -11.4107 -11.3885 -11.3885
   -11.3774 -11.3478 -11.3436 -11.3435 -11.2923 -11.2842 -11.2833 -11.2830
   -11.2720 -11.2714 -11.2220 -11.1078 -11.1039 -11.1018 -11.0907 -11.0703
   -11.0480 -11.0447 -11.0407 -10.9966 -10.9878 -10.9816 -10.9691 -10.9626
   -10.9622 -10.9621 -10.9614 -10.9325 -10.9286 -10.9243 -10.9107 -10.9011
   -10.8994 -10.8984 -10.8979 -10.8838 -10.8247 -10.8103 -10.7955 -10.7919
   -10.6945 -10.6768 -10.6239 -10.6216 -10.5157 -10.4977 -10.4165 -10.3390
   -10.2610 -10.2540 -10.2530 -10.2508 -10.1941 -10.1564 -10.1536 -10.1499
   -10.1064 -10.0673 -10.0673 -10.0665 -10.0621 -10.0398 -10.0336 -10.0305
   -10.0286 -10.0257 -10.0233 -10.0218  -9.9351  -9.9227  -9.9202  -9.9167
    -9.8967  -9.8771  -9.8750  -9.8720  -9.8465  -9.8432  -9.8389  -9.8378
    -9.8011  -9.7793  -9.7768  -9.7630  -9.7603  -9.7591  -9.7470  -9.7446
    -9.7433  -9.7343  -9.7328  -9.7198  -9.6613  -9.6585  -9.6198  -9.6022
    -9.6008  -9.5990  -9.5986  -9.5951  -9.5490  -9.5321  -9.4469  -9.4232
    -9.3698  -9.3688  -9.3175  -9.2736  -9.2706  -9.2653  -9.2597  -9.2564
    -9.2562  -9.2548  -9.2436  -9.2394  -9.2058  -9.1394  -9.1372  -9.1349
    -9.1246  -9.1176  -9.1165  -9.0899  -9.0874  -9.0846  -9.0718  -9.0624
    -9.0620  -9.0587  -9.0517  -9.0398  -9.0370  -9.0351  -9.0328  -9.0236
    -9.0057  -9.0002  -8.9887  -8.9844  -8.9712  -8.9711  -8.9574  -8.9435
    -8.9418  -8.9393  -8.9253  -8.9229  -8.9222  -8.8989  -8.8987  -8.8979
    -8.8716  -8.8535  -8.8505  -8.8443  -8.8246  -8.8203  -8.6443  -8.6443
    -8.5667  -8.5666  -8.5602  -8.5225  -8.5044  -8.5018  -8.3250  -8.3250
    -8.2539  -8.2538  -8.2262  -8.2057  -8.1856  -8.1756  -8.0656  -8.0648
    -8.0083  -8.0023  -8.0021  -7.9995  -7.9864  -7.9806  -7.9805  -7.9783
    -7.9783  -7.9755  -7.9465  -7.9329  -7.9326  -7.9323  -7.9320  -7.9272
    -7.9096  -7.9093  -7.9049  -7.8943  -7.8923  -7.8918  -7.8662  -7.8623
    -7.8614  -7.8599  -7.8443  -7.8433  -7.8350  -7.8318  -7.8298  -7.8288
    -7.8166  -7.8009  -7.7931  -7.7930  -7.7929  -7.7772  -7.7747  -7.7741
    -7.7666  -7.7661  -7.7358  -7.7337  -7.7239  -7.7235  -7.7231  -7.7076
    -7.7047  -7.6982  -7.6519  -7.6481  -7.6062  -7.5974  -7.5765  -7.5756
    -7.4818  -7.4701  -7.3728  -7.3712  -7.3711  -7.3683  -7.2577  -7.2529
    -7.2479  -7.2467  -7.2444  -7.2341  -7.1452  -7.1449  -7.1273  -7.0981
    -7.0966  -7.0828  -7.0714  -7.0700  -7.0646  -7.0594  -7.0569  -7.0463
    -6.9740  -6.9663  -6.9623  -6.9603  -6.9138  -6.8998  -6.8468  -6.8382
    -6.7899  -6.7899  -6.7899  -6.7898  -6.7586  -6.7460  -6.7252  -6.7243
    -6.7239  -6.7228  -6.7157  -6.6682  -6.6628  -6.6611  -6.6518  -6.6374
    -6.6368  -6.6335  -6.5407  -6.5298  -6.4587  -6.4586  -6.4586  -6.4585
    -6.3922  -6.3920  -6.3837  -6.3826  -6.3825  -6.3799  -6.3296  -6.3291
    -6.3257  -6.3173  -6.3150  -6.3091  -6.3025  -6.2929  -6.1098  -6.1098
    -6.0366  -6.0353  -5.9755  -5.9667  -5.8718  -5.8691  -5.6893  -5.6865
    -4.8316  -4.1496  -4.1489  -4.1461  -4.1323  -4.0253  -4.0252  -4.0064
    -3.9981  -3.9613  -3.9609  -3.9034  -3.9031  -3.8979  -3.8949  -3.8925
    -3.8645  -3.8105  -3.7743  -3.7288  -3.7279  -3.7270  -3.7242  -3.7111
    -3.7109  -3.6786  -3.6743  -3.6660  -3.6570  -3.6401  -3.6366  -3.6274
    -3.6105  -3.6069  -3.6048  -3.6047  -3.6000  -3.5979  -3.5725  -3.5722
    -3.5519  -3.4996  -3.4939  -3.4928  -3.4855  -3.4789  -3.4777  -3.4533
    -3.4490  -3.4446  -3.4444  -3.4040  -3.4029  -3.4021  -3.4020  -3.4017
    -3.3934  -3.3878  -3.3814  -3.3735  -3.3676  -3.3480  -3.3436  -3.3419
    -3.3397  -3.3323  -3.3294  -3.3127  -3.2927  -3.2603  -3.2473  -3.2450
    -3.2427  -3.2407  -3.2000  -3.1992  -3.1668  -3.1608  -3.1595  -3.1491
    -3.1386  -3.1384  -3.1381  -3.1379  -3.1160  -3.1077  -3.0913  -3.0904
    -3.0843  -3.0794  -3.0579  -3.0524  -3.0476  -3.0425  -3.0339  -3.0302
    -3.0264  -3.0117  -3.0092  -2.9895  -2.9832  -2.9808  -2.9590  -2.9544
    -2.9385  -2.9357  -2.9249  -2.9225  -2.8329  -2.8280  -2.7783  -2.7778
    -2.7761  -2.7583  -2.7547  -2.7535  -2.7013  -2.6959  -2.6297  -2.6263
    -2.6243  -2.6240  -2.6159  -2.6098  -2.5003  -2.4486

          k =-0.5000-0.8660 0.0000 (321564 PWs)   bands (ev):

   -66.8131 -66.8131 -66.8025 -66.8025 -66.7876 -66.7876 -66.7876 -66.7875
   -66.7832 -66.7832 -66.7770 -66.7770 -66.7769 -66.7769 -66.7726 -66.7726
   -66.7477 -66.7475 -66.7371 -66.7370 -66.7221 -66.7221 -66.7221 -66.7221
   -66.7178 -66.7176 -66.7117 -66.7116 -66.7114 -66.7112 -66.7071 -66.7071
   -66.6964 -66.6926 -66.6836 -66.6814 -66.6710 -66.6707 -66.6671 -66.6671
   -66.6643 -66.6612 -66.6601 -66.6593 -66.6566 -66.6548 -66.6514 -66.5614
   -41.1143 -41.1143 -41.1143 -41.1143 -41.0877 -41.0876 -41.0757 -41.0757
   -41.0479 -41.0478 -41.0475 -41.0475 -41.0253 -41.0253 -41.0253 -41.0253
   -41.0212 -41.0210 -41.0091 -41.0091 -40.9948 -40.9934 -40.9897 -40.9776
   -40.9673 -40.9672 -40.9666 -40.9637 -40.9589 -40.9588 -40.9587 -40.9587
   -40.9574 -40.9574 -40.9513 -40.9465 -40.9465 -40.9424 -40.9171 -40.9171
   -40.9171 -40.9171 -40.9084 -40.9084 -40.9025 -40.9022 -40.9020 -40.9006
   -40.8964 -40.8964 -40.8962 -40.8962 -40.8962 -40.8962 -40.8962 -40.8931
   -40.8910 -40.8909 -40.8876 -40.8876 -40.8816 -40.8816 -40.8656 -40.8656
   -40.8656 -40.8656 -40.8523 -40.8523 -40.8522 -40.8522 -40.8494 -40.8447
   -40.8437 -40.8434 -40.8346 -40.8316 -40.8315 -40.8313 -40.8311 -40.8311
   -40.8311 -40.8311 -40.8311 -40.8300 -40.8299 -40.8286 -40.8280 -40.8241
   -40.8228 -40.8227 -40.8190 -40.8190 -40.8001 -40.7999 -40.7999 -40.7998
   -40.7994 -40.7993 -40.7992 -40.7990 -40.7977 -40.7941 -40.7911 -40.7860
   -40.7830 -40.7830 -40.7798 -40.7786 -40.7781 -40.7731 -40.7722 -40.7694
   -40.7687 -40.7649 -40.7648 -40.7647 -40.7647 -40.7529 -40.7526 -40.7525
   -40.7525 -40.7478 -40.7444 -40.7406 -40.7336 -40.7334 -40.7334 -40.7167
   -40.7166 -40.7095 -40.7077 -40.7036 -40.7021 -40.6980 -40.6864 -40.6861
   -40.6806 -40.6804 -40.6742 -40.6679 -40.6601 -40.6335 -40.6330 -40.6118
   -20.0170 -20.0142 -19.9136 -19.8915 -19.7925 -19.7566 -19.5811 -19.5798
   -19.4781 -19.4636 -19.3639 -19.3326 -18.9211 -18.8785 -18.8721 -18.8719
   -18.8717 -18.8717 -18.8197 -18.7733 -18.7729 -18.7720 -18.7451 -18.6912
   -18.6782 -18.6757 -18.6632 -18.6590 -18.6571 -18.6562 -18.6243 -18.6241
   -18.5581 -18.5353 -18.5291 -18.5270 -18.5134 -18.5128 -18.4402 -18.4327
   -18.3747 -18.3707 -18.3476 -18.3463 -18.3451 -18.3430 -18.2597 -18.2595
   -18.2595 -18.2594 -18.2483 -18.2425 -18.2327 -18.2282 -18.2257 -18.2199
   -18.1884 -18.1873 -18.1868 -18.1866 -18.1481 -18.1462 -18.1343 -18.1283
   -18.1164 -18.1148 -18.1083 -18.1066 -18.1035 -18.1011 -18.0637 -18.0616
   -18.0553 -18.0552 -18.0497 -18.0398 -18.0002 -17.9958 -17.9958 -17.9938
   -17.9873 -17.9864 -17.9374 -17.9367 -17.9311 -17.9266 -17.9209 -17.9205
   -17.9114 -17.9095 -17.8818 -17.8803 -17.8536 -17.8484 -17.8107 -17.7977
   -12.0630 -11.8020 -11.7749 -11.6074 -11.6068 -11.6067 -11.6057 -11.5826
   -11.5818 -11.5273 -11.5235 -11.5228 -11.5182 -11.4731 -11.4692 -11.4366
   -11.4251 -11.4199 -11.4162 -11.4148 -11.4109 -11.4107 -11.3885 -11.3885
   -11.3773 -11.3478 -11.3436 -11.3435 -11.2923 -11.2842 -11.2833 -11.2830
   -11.2720 -11.2714 -11.2220 -11.1078 -11.1040 -11.1018 -11.0907 -11.0703
   -11.0480 -11.0447 -11.0407 -10.9966 -10.9878 -10.9816 -10.9692 -10.9626
   -10.9622 -10.9621 -10.9614 -10.9325 -10.9286 -10.9243 -10.9107 -10.9011
   -10.8994 -10.8984 -10.8979 -10.8838 -10.8248 -10.8103 -10.7955 -10.7919
   -10.6945 -10.6768 -10.6239 -10.6217 -10.5157 -10.4977 -10.4165 -10.3390
   -10.2610 -10.2540 -10.2530 -10.2508 -10.1941 -10.1564 -10.1536 -10.1499
   -10.1064 -10.0673 -10.0673 -10.0665 -10.0622 -10.0398 -10.0336 -10.0305
   -10.0286 -10.0257 -10.0233 -10.0218  -9.9351  -9.9228  -9.9202  -9.9167
    -9.8968  -9.8771  -9.8750  -9.8720  -9.8465  -9.8432  -9.8389  -9.8378
    -9.8010  -9.7794  -9.7767  -9.7629  -9.7603  -9.7591  -9.7470  -9.7446
    -9.7433  -9.7343  -9.7328  -9.7198  -9.6613  -9.6585  -9.6198  -9.6022
    -9.6008  -9.5990  -9.5986  -9.5951  -9.5491  -9.5321  -9.4468  -9.4232
    -9.3698  -9.3688  -9.3174  -9.2736  -9.2706  -9.2653  -9.2597  -9.2564
    -9.2562  -9.2548  -9.2436  -9.2394  -9.2058  -9.1394  -9.1372  -9.1349
    -9.1246  -9.1176  -9.1165  -9.0899  -9.0874  -9.0846  -9.0718  -9.0624
    -9.0620  -9.0587  -9.0517  -9.0399  -9.0370  -9.0351  -9.0328  -9.0236
    -9.0057  -9.0002  -8.9887  -8.9844  -8.9712  -8.9711  -8.9574  -8.9435
    -8.9418  -8.9393  -8.9253  -8.9229  -8.9222  -8.8989  -8.8987  -8.8979
    -8.8716  -8.8535  -8.8505  -8.8443  -8.8246  -8.8203  -8.6443  -8.6443
    -8.5667  -8.5666  -8.5602  -8.5225  -8.5044  -8.5018  -8.3250  -8.3250
    -8.2539  -8.2538  -8.2262  -8.2057  -8.1856  -8.1756  -8.0656  -8.0649
    -8.0082  -8.0024  -8.0021  -7.9995  -7.9864  -7.9806  -7.9805  -7.9783
    -7.9783  -7.9755  -7.9464  -7.9330  -7.9326  -7.9323  -7.9320  -7.9273
    -7.9096  -7.9093  -7.9049  -7.8943  -7.8923  -7.8918  -7.8663  -7.8623
    -7.8614  -7.8599  -7.8443  -7.8433  -7.8350  -7.8318  -7.8298  -7.8288
    -7.8167  -7.8009  -7.7931  -7.7930  -7.7929  -7.7771  -7.7747  -7.7741
    -7.7666  -7.7661  -7.7358  -7.7338  -7.7239  -7.7235  -7.7231  -7.7076
    -7.7048  -7.6982  -7.6519  -7.6481  -7.6062  -7.5974  -7.5765  -7.5756
    -7.4818  -7.4701  -7.3728  -7.3712  -7.3711  -7.3683  -7.2577  -7.2529
    -7.2479  -7.2467  -7.2444  -7.2341  -7.1452  -7.1449  -7.1274  -7.0981
    -7.0966  -7.0828  -7.0714  -7.0700  -7.0646  -7.0594  -7.0569  -7.0463
    -6.9740  -6.9664  -6.9623  -6.9603  -6.9138  -6.8999  -6.8467  -6.8382
    -6.7899  -6.7899  -6.7899  -6.7898  -6.7585  -6.7461  -6.7252  -6.7243
    -6.7239  -6.7228  -6.7157  -6.6683  -6.6628  -6.6611  -6.6518  -6.6374
    -6.6368  -6.6335  -6.5407  -6.5298  -6.4587  -6.4586  -6.4586  -6.4584
    -6.3922  -6.3920  -6.3837  -6.3826  -6.3825  -6.3799  -6.3296  -6.3292
    -6.3257  -6.3173  -6.3150  -6.3091  -6.3025  -6.2929  -6.1098  -6.1098
    -6.0366  -6.0353  -5.9754  -5.9667  -5.8718  -5.8691  -5.6893  -5.6865
    -4.8315  -4.1496  -4.1490  -4.1461  -4.1325  -4.0253  -4.0253  -4.0064
    -3.9980  -3.9614  -3.9609  -3.9034  -3.9031  -3.8979  -3.8948  -3.8925
    -3.8644  -3.8104  -3.7742  -3.7288  -3.7279  -3.7268  -3.7243  -3.7111
    -3.7106  -3.6786  -3.6745  -3.6659  -3.6567  -3.6397  -3.6363  -3.6273
    -3.6103  -3.6068  -3.6050  -3.6045  -3.5998  -3.5976  -3.5724  -3.5720
    -3.5519  -3.4994  -3.4938  -3.4929  -3.4855  -3.4789  -3.4778  -3.4533
    -3.4489  -3.4445  -3.4444  -3.4044  -3.4029  -3.4022  -3.4021  -3.4018
    -3.3935  -3.3880  -3.3810  -3.3735  -3.3676  -3.3481  -3.3436  -3.3420
    -3.3397  -3.3324  -3.3295  -3.3129  -3.2928  -3.2603  -3.2474  -3.2449
    -3.2427  -3.2406  -3.2000  -3.1992  -3.1669  -3.1608  -3.1596  -3.1499
    -3.1389  -3.1385  -3.1384  -3.1382  -3.1161  -3.1078  -3.0914  -3.0905
    -3.0844  -3.0794  -3.0580  -3.0523  -3.0475  -3.0427  -3.0339  -3.0302
    -3.0264  -3.0112  -3.0092  -2.9891  -2.9835  -2.9803  -2.9588  -2.9539
    -2.9379  -2.9357  -2.9246  -2.9215  -2.8330  -2.8295  -2.7780  -2.7778
    -2.7761  -2.7579  -2.7542  -2.7531  -2.7013  -2.6958  -2.6298  -2.6269
    -2.6242  -2.6241  -2.6158  -2.6098  -2.4987  -2.4475

          k = 0.5000 0.2887 0.0000 (321564 PWs)   bands (ev):

   -66.8131 -66.8131 -66.8025 -66.8025 -66.7876 -66.7876 -66.7876 -66.7876
   -66.7832 -66.7832 -66.7770 -66.7770 -66.7770 -66.7769 -66.7726 -66.7726
   -66.7477 -66.7475 -66.7371 -66.7370 -66.7221 -66.7221 -66.7221 -66.7221
   -66.7178 -66.7176 -66.7117 -66.7116 -66.7114 -66.7112 -66.7071 -66.7071
   -66.6964 -66.6926 -66.6835 -66.6815 -66.6710 -66.6707 -66.6671 -66.6671
   -66.6643 -66.6612 -66.6601 -66.6593 -66.6566 -66.6548 -66.6514 -66.5614
   -41.1143 -41.1143 -41.1143 -41.1143 -41.0877 -41.0877 -41.0757 -41.0757
   -41.0479 -41.0478 -41.0475 -41.0475 -41.0253 -41.0253 -41.0253 -41.0253
   -41.0212 -41.0210 -41.0091 -41.0091 -40.9948 -40.9934 -40.9897 -40.9776
   -40.9673 -40.9672 -40.9666 -40.9637 -40.9589 -40.9588 -40.9587 -40.9587
   -40.9574 -40.9574 -40.9513 -40.9465 -40.9465 -40.9424 -40.9171 -40.9171
   -40.9171 -40.9171 -40.9084 -40.9084 -40.9025 -40.9022 -40.9020 -40.9006
   -40.8964 -40.8964 -40.8962 -40.8962 -40.8962 -40.8962 -40.8962 -40.8931
   -40.8910 -40.8909 -40.8876 -40.8876 -40.8816 -40.8816 -40.8656 -40.8656
   -40.8656 -40.8656 -40.8523 -40.8523 -40.8522 -40.8522 -40.8494 -40.8447
   -40.8437 -40.8434 -40.8346 -40.8316 -40.8315 -40.8313 -40.8311 -40.8311
   -40.8311 -40.8311 -40.8311 -40.8300 -40.8299 -40.8286 -40.8280 -40.8241
   -40.8228 -40.8227 -40.8190 -40.8190 -40.8001 -40.7999 -40.7998 -40.7998
   -40.7994 -40.7993 -40.7992 -40.7990 -40.7977 -40.7941 -40.7911 -40.7860
   -40.7830 -40.7829 -40.7798 -40.7786 -40.7781 -40.7731 -40.7722 -40.7694
   -40.7687 -40.7649 -40.7648 -40.7647 -40.7647 -40.7529 -40.7526 -40.7525
   -40.7525 -40.7478 -40.7444 -40.7406 -40.7336 -40.7334 -40.7334 -40.7167
   -40.7166 -40.7095 -40.7077 -40.7036 -40.7021 -40.6980 -40.6864 -40.6861
   -40.6806 -40.6804 -40.6742 -40.6679 -40.6601 -40.6335 -40.6330 -40.6118
   -20.0170 -20.0142 -19.9136 -19.8915 -19.7924 -19.7566 -19.5811 -19.5798
   -19.4780 -19.4636 -19.3639 -19.3326 -18.9211 -18.8785 -18.8721 -18.8719
   -18.8717 -18.8717 -18.8198 -18.7733 -18.7729 -18.7720 -18.7451 -18.6912
   -18.6782 -18.6757 -18.6632 -18.6590 -18.6571 -18.6562 -18.6243 -18.6241
   -18.5581 -18.5353 -18.5291 -18.5270 -18.5134 -18.5128 -18.4402 -18.4327
   -18.3747 -18.3708 -18.3476 -18.3463 -18.3451 -18.3430 -18.2597 -18.2595
   -18.2595 -18.2594 -18.2483 -18.2424 -18.2327 -18.2282 -18.2257 -18.2199
   -18.1884 -18.1873 -18.1868 -18.1866 -18.1481 -18.1461 -18.1344 -18.1283
   -18.1164 -18.1148 -18.1083 -18.1066 -18.1035 -18.1011 -18.0638 -18.0615
   -18.0553 -18.0553 -18.0497 -18.0398 -18.0002 -17.9958 -17.9958 -17.9938
   -17.9873 -17.9864 -17.9374 -17.9367 -17.9311 -17.9265 -17.9209 -17.9205
   -17.9115 -17.9095 -17.8818 -17.8803 -17.8536 -17.8484 -17.8107 -17.7977
   -12.0630 -11.8020 -11.7749 -11.6074 -11.6068 -11.6067 -11.6057 -11.5826
   -11.5818 -11.5273 -11.5235 -11.5228 -11.5182 -11.4732 -11.4692 -11.4366
   -11.4251 -11.4199 -11.4162 -11.4147 -11.4109 -11.4107 -11.3885 -11.3885
   -11.3773 -11.3478 -11.3436 -11.3435 -11.2923 -11.2842 -11.2833 -11.2830
   -11.2720 -11.2714 -11.2221 -11.1078 -11.1040 -11.1018 -11.0907 -11.0703
   -11.0480 -11.0447 -11.0407 -10.9966 -10.9878 -10.9816 -10.9692 -10.9626
   -10.9622 -10.9621 -10.9614 -10.9325 -10.9286 -10.9243 -10.9107 -10.9011
   -10.8994 -10.8984 -10.8979 -10.8838 -10.8248 -10.8103 -10.7955 -10.7919
   -10.6945 -10.6768 -10.6239 -10.6217 -10.5157 -10.4977 -10.4165 -10.3390
   -10.2610 -10.2540 -10.2530 -10.2508 -10.1941 -10.1564 -10.1536 -10.1499
   -10.1064 -10.0673 -10.0673 -10.0666 -10.0622 -10.0397 -10.0336 -10.0305
   -10.0286 -10.0257 -10.0233 -10.0218  -9.9351  -9.9228  -9.9202  -9.9167
    -9.8968  -9.8771  -9.8750  -9.8720  -9.8464  -9.8432  -9.8390  -9.8378
    -9.8010  -9.7794  -9.7767  -9.7629  -9.7603  -9.7591  -9.7470  -9.7446
    -9.7433  -9.7343  -9.7327  -9.7198  -9.6613  -9.6585  -9.6197  -9.6022
    -9.6008  -9.5990  -9.5986  -9.5951  -9.5491  -9.5321  -9.4468  -9.4232
    -9.3698  -9.3688  -9.3174  -9.2736  -9.2706  -9.2653  -9.2596  -9.2564
    -9.2562  -9.2548  -9.2436  -9.2394  -9.2058  -9.1394  -9.1372  -9.1349
    -9.1246  -9.1176  -9.1165  -9.0899  -9.0874  -9.0846  -9.0718  -9.0624
    -9.0620  -9.0587  -9.0517  -9.0399  -9.0370  -9.0351  -9.0328  -9.0236
    -9.0057  -9.0002  -8.9887  -8.9843  -8.9712  -8.9712  -8.9573  -8.9435
    -8.9418  -8.9393  -8.9253  -8.9229  -8.9222  -8.8990  -8.8987  -8.8979
    -8.8716  -8.8535  -8.8505  -8.8443  -8.8246  -8.8203  -8.6443  -8.6442
    -8.5667  -8.5666  -8.5601  -8.5225  -8.5043  -8.5018  -8.3250  -8.3250
    -8.2539  -8.2538  -8.2262  -8.2057  -8.1857  -8.1756  -8.0656  -8.0648
    -8.0082  -8.0024  -8.0021  -7.9995  -7.9863  -7.9806  -7.9805  -7.9783
    -7.9782  -7.9754  -7.9463  -7.9330  -7.9326  -7.9323  -7.9320  -7.9274
    -7.9096  -7.9093  -7.9049  -7.8943  -7.8923  -7.8918  -7.8663  -7.8623
    -7.8614  -7.8599  -7.8443  -7.8433  -7.8350  -7.8318  -7.8298  -7.8288
    -7.8167  -7.8009  -7.7931  -7.7930  -7.7929  -7.7771  -7.7747  -7.7741
    -7.7666  -7.7661  -7.7358  -7.7338  -7.7238  -7.7235  -7.7231  -7.7075
    -7.7048  -7.6982  -7.6519  -7.6482  -7.6063  -7.5973  -7.5765  -7.5755
    -7.4819  -7.4701  -7.3728  -7.3712  -7.3711  -7.3683  -7.2577  -7.2529
    -7.2479  -7.2466  -7.2444  -7.2341  -7.1452  -7.1449  -7.1274  -7.0981
    -7.0965  -7.0828  -7.0714  -7.0700  -7.0646  -7.0595  -7.0569  -7.0462
    -6.9740  -6.9664  -6.9623  -6.9603  -6.9137  -6.8999  -6.8467  -6.8382
    -6.7899  -6.7899  -6.7899  -6.7898  -6.7584  -6.7461  -6.7252  -6.7243
    -6.7239  -6.7228  -6.7157  -6.6683  -6.6628  -6.6610  -6.6518  -6.6374
    -6.6368  -6.6335  -6.5407  -6.5298  -6.4587  -6.4586  -6.4586  -6.4584
    -6.3922  -6.3920  -6.3838  -6.3826  -6.3825  -6.3799  -6.3296  -6.3293
    -6.3257  -6.3173  -6.3150  -6.3091  -6.3025  -6.2929  -6.1098  -6.1098
    -6.0366  -6.0353  -5.9754  -5.9667  -5.8718  -5.8691  -5.6893  -5.6865
    -4.8315  -4.1496  -4.1490  -4.1461  -4.1325  -4.0253  -4.0253  -4.0064
    -3.9980  -3.9614  -3.9610  -3.9035  -3.9031  -3.8979  -3.8949  -3.8925
    -3.8645  -3.8104  -3.7742  -3.7288  -3.7279  -3.7268  -3.7241  -3.7112
    -3.7109  -3.6787  -3.6743  -3.6663  -3.6570  -3.6402  -3.6366  -3.6273
    -3.6103  -3.6067  -3.6050  -3.6045  -3.5997  -3.5977  -3.5727  -3.5719
    -3.5519  -3.4995  -3.4938  -3.4928  -3.4855  -3.4789  -3.4778  -3.4532
    -3.4490  -3.4445  -3.4444  -3.4042  -3.4029  -3.4021  -3.4020  -3.4018
    -3.3935  -3.3879  -3.3814  -3.3737  -3.3675  -3.3483  -3.3438  -3.3420
    -3.3397  -3.3324  -3.3295  -3.3127  -3.2928  -3.2603  -3.2475  -3.2450
    -3.2428  -3.2407  -3.2000  -3.1993  -3.1668  -3.1608  -3.1596  -3.1498
    -3.1390  -3.1385  -3.1382  -3.1380  -3.1161  -3.1077  -3.0913  -3.0904
    -3.0843  -3.0794  -3.0580  -3.0527  -3.0474  -3.0426  -3.0340  -3.0302
    -3.0265  -3.0113  -3.0093  -2.9891  -2.9836  -2.9805  -2.9583  -2.9544
    -2.9379  -2.9350  -2.9219  -2.9213  -2.8333  -2.8298  -2.7782  -2.7778
    -2.7761  -2.7584  -2.7548  -2.7537  -2.7012  -2.6958  -2.6297  -2.6270
    -2.6250  -2.6241  -2.6160  -2.6101  -2.4993  -2.4488

     the Fermi energy is    -4.8340 ev

!    total energy              =  -23846.21278127 Ry
     total all-electron energy =   -465366.062913 Ry
     estimated scf accuracy    <       0.00000012 Ry
     smearing contrib. (-TS)   =      -0.00563608 Ry
     internal energy E=F+TS    =  -23846.20714519 Ry

     The total energy is F=E-TS. E is the sum of the following terms:
     one-electron contribution =  440093.65537721 Ry
     hartree contribution      = -220153.39936155 Ry
     xc contribution           =   -1428.51439679 Ry
     ewald contribution        = -227011.41384910 Ry
     DFT-D3 Dispersion         =      -3.95175149 Ry
     one-center paw contrib.   =  -15342.58316348 Ry

     convergence has been achieved in  23 iterations

     negative rho (up, down):  8.648E-04 0.000E+00

     Forces acting on atoms (cartesian axes, Ry/au):

     atom    1 type  1   force =    -0.00013517   -0.00011954   -0.00035673
     atom    2 type  1   force =     0.00000415   -0.00000316    0.00190675
     atom    3 type  1   force =     0.00000545   -0.00001812   -0.00001851
     atom    4 type  2   force =    -0.00000011    0.00000164   -0.00342649
     atom    5 type  2   force =     0.00000985   -0.00000977   -0.00016353
     atom    6 type  2   force =    -0.00058567   -0.00045099   -0.00037984
     atom    7 type  2   force =     0.00000081    0.00000079    0.00163855
     atom    8 type  2   force =    -0.00002727    0.00000284    0.00013641
     atom    9 type  2   force =     0.00006003   -0.00012551    0.00042301
     atom   10 type  1   force =    -0.00015368   -0.00005093   -0.00036196
     atom   11 type  1   force =     0.00000118   -0.00000310    0.00191564
     atom   12 type  1   force =    -0.00000919   -0.00000244   -0.00001601
     atom   13 type  2   force =     0.00000099   -0.00000116   -0.00342772
     atom   14 type  2   force =    -0.00001070   -0.00000889   -0.00019126
     atom   15 type  2   force =    -0.00067945   -0.00028119   -0.00038134
     atom   16 type  2   force =     0.00000202    0.00000092    0.00163811
     atom   17 type  2   force =    -0.00003607   -0.00001700    0.00016105
     atom   18 type  2   force =    -0.00008015    0.00011563    0.00042588
     atom   19 type  1   force =     0.00014595   -0.00007146    0.00012393
     atom   20 type  1   force =    -0.00000781   -0.00000019    0.00190176
     atom   21 type  1   force =    -0.00000207    0.00001473    0.00001436
     atom   22 type  2   force =     0.00000084    0.00000125   -0.00342840
     atom   23 type  2   force =     0.00000314    0.00001564   -0.00016165
     atom   24 type  2   force =    -0.00000349   -0.00002952    0.00037713
     atom   25 type  2   force =    -0.00000208    0.00000291    0.00163784
     atom   26 type  2   force =    -0.00001168   -0.00002256    0.00013706
     atom   27 type  2   force =    -0.00000129    0.00014641    0.00044765
     atom   28 type  1   force =     0.00000785    0.00015680    0.00012329
     atom   29 type  1   force =     0.00000608    0.00000298    0.00190854
     atom   30 type  1   force =     0.00001102   -0.00000385    0.00001187
     atom   31 type  2   force =     0.00000298    0.00000363   -0.00342698
     atom   32 type  2   force =    -0.00000290    0.00000391   -0.00014602
     atom   33 type  2   force =    -0.00002927    0.00000984    0.00037632
     atom   34 type  2   force =     0.00000051    0.00000198    0.00163579
     atom   35 type  2   force =    -0.00000537    0.00000217    0.00013250
     atom   36 type  2   force =     0.00012576   -0.00007690    0.00044365
     atom   37 type  1   force =     0.00013316   -0.00012444   -0.00035248
     atom   38 type  1   force =    -0.00000232   -0.00000084    0.00190681
     atom   39 type  1   force =    -0.00000733   -0.00000368   -0.00003845
     atom   40 type  2   force =    -0.00000044   -0.00000160   -0.00342423
     atom   41 type  2   force =    -0.00001394   -0.00000915   -0.00016132
     atom   42 type  2   force =    -0.00000218   -0.00059228   -0.00105709
     atom   43 type  2   force =    -0.00000104   -0.00000118    0.00163423
     atom   44 type  2   force =     0.00002123    0.00000163    0.00013376
     atom   45 type  2   force =    -0.00000498    0.00020867    0.00001556
     atom   46 type  1   force =    -0.00000886   -0.00000262    0.00056400
     atom   47 type  1   force =     0.00000538    0.00000121    0.00190780
     atom   48 type  1   force =     0.00000371   -0.00001687    0.00002229
     atom   49 type  2   force =    -0.00000046   -0.00000136   -0.00342946
     atom   50 type  2   force =    -0.00000290   -0.00000759   -0.00013157
     atom   51 type  2   force =    -0.00041386   -0.00023890   -0.00108648
     atom   52 type  2   force =    -0.00000276   -0.00000189    0.00164743
     atom   53 type  2   force =    -0.00000378    0.00000255    0.00012961
     atom   54 type  2   force =     0.00012569    0.00007053    0.00018898
     atom   55 type  1   force =    -0.00002953    0.00016726   -0.00035133
     atom   56 type  1   force =     0.00000511   -0.00000122    0.00191737
     atom   57 type  1   force =     0.00000046    0.00000143   -0.00003363
     atom   58 type  2   force =    -0.00000260   -0.00000018   -0.00342528
     atom   59 type  2   force =    -0.00000798    0.00000524   -0.00013667
     atom   60 type  2   force =    -0.00050655    0.00029609   -0.00105263
     atom   61 type  2   force =    -0.00000025    0.00000191    0.00164211
     atom   62 type  2   force =    -0.00000472    0.00000019    0.00013143
     atom   63 type  2   force =     0.00017593   -0.00010670    0.00001861
     atom   64 type  1   force =     0.00014257    0.00007102    0.00018088
     atom   65 type  1   force =    -0.00000156    0.00000503    0.00190380
     atom   66 type  1   force =    -0.00001050   -0.00000670    0.00000821
     atom   67 type  2   force =    -0.00000126    0.00000320   -0.00342646
     atom   68 type  2   force =    -0.00001171   -0.00000634   -0.00016032
     atom   69 type  2   force =     0.00002535    0.00000902    0.00037932
     atom   70 type  2   force =    -0.00000030    0.00000232    0.00163622
     atom   71 type  2   force =     0.00001410    0.00001895    0.00013364
     atom   72 type  2   force =    -0.00012664   -0.00007593    0.00044617
     atom   73 type  1   force =    -0.00010652    0.00005189    0.00020479
     atom   74 type  1   force =     0.00000342   -0.00000046    0.00190639
     atom   75 type  1   force =     0.00000297   -0.00002110   -0.00001942
     atom   76 type  2   force =     0.00000066    0.00000006   -0.00342848
     atom   77 type  2   force =     0.00002872    0.00001250   -0.00017349
     atom   78 type  2   force =     0.00057749   -0.00044909   -0.00037460
     atom   79 type  2   force =    -0.00000308   -0.00000040    0.00163888
     atom   80 type  2   force =    -0.00001912   -0.00001542    0.00008593
     atom   81 type  2   force =    -0.00006176   -0.00012561    0.00042669
     atom   82 type  1   force =     0.00015840   -0.00005026   -0.00034838
     atom   83 type  1   force =     0.00000125   -0.00000403    0.00191567
     atom   84 type  1   force =    -0.00000256   -0.00001144    0.00002063
     atom   85 type  2   force =    -0.00000028   -0.00000164   -0.00342842
     atom   86 type  2   force =     0.00001025   -0.00000535   -0.00019514
     atom   87 type  2   force =     0.00040978   -0.00023773   -0.00108102
     atom   88 type  2   force =    -0.00000102   -0.00000158    0.00164387
     atom   89 type  2   force =     0.00003166   -0.00001538    0.00016016
     atom   90 type  2   force =    -0.00015160    0.00008120    0.00021248
     atom   91 type  1   force =     0.00003230    0.00016739   -0.00034786
     atom   92 type  1   force =    -0.00000391   -0.00000650    0.00191448
     atom   93 type  1   force =     0.00000376    0.00001819    0.00002098
     atom   94 type  2   force =     0.00000059    0.00000027   -0.00343434
     atom   95 type  2   force =     0.00000544    0.00000575   -0.00013539
     atom   96 type  2   force =    -0.00000119    0.00046729   -0.00106355
     atom   97 type  2   force =     0.00000018    0.00000295    0.00163111
     atom   98 type  2   force =     0.00000088    0.00000056    0.00013105
     atom   99 type  2   force =    -0.00000277   -0.00020481    0.00023299
     atom  100 type  1   force =     0.00000275   -0.00013302    0.00019748
     atom  101 type  1   force =    -0.00000101    0.00000808    0.00191194
     atom  102 type  1   force =     0.00000688    0.00000327   -0.00001296
     atom  103 type  2   force =    -0.00000302    0.00000379   -0.00342771
     atom  104 type  2   force =     0.00000000    0.00001283   -0.00019458
     atom  105 type  2   force =    -0.00009769    0.00071531   -0.00036748
     atom  106 type  2   force =    -0.00000335    0.00000017    0.00164535
     atom  107 type  2   force =    -0.00000128    0.00004342    0.00015889
     atom  108 type  2   force =    -0.00014201    0.00000831    0.00042895
     atom  109 type  1   force =     0.00010601    0.00004418    0.00020126
     atom  110 type  1   force =     0.00000241   -0.00000133    0.00191042
     atom  111 type  1   force =     0.00000058   -0.00000977    0.00000534
     atom  112 type  2   force =    -0.00000056    0.00000221   -0.00342651
     atom  113 type  2   force =    -0.00002518    0.00001472   -0.00017609
     atom  114 type  2   force =     0.00000103   -0.00000426    0.00038910
     atom  115 type  2   force =    -0.00000062    0.00000059    0.00163945
     atom  116 type  2   force =     0.00002146   -0.00001362    0.00008777
     atom  117 type  2   force =     0.00000005    0.00000014    0.00062043
     atom  118 type  1   force =    -0.00000579   -0.00015896    0.00017950
     atom  119 type  1   force =     0.00000100    0.00000682    0.00191032
     atom  120 type  1   force =     0.00001144    0.00000056   -0.00001492
     atom  121 type  2   force =     0.00000133   -0.00000184   -0.00342990
     atom  122 type  2   force =     0.00000076   -0.00003506   -0.00017222
     atom  123 type  2   force =     0.00067266   -0.00027596   -0.00037748
     atom  124 type  2   force =    -0.00000066    0.00000003    0.00163668
     atom  125 type  2   force =     0.00000210    0.00002937    0.00008600
     atom  126 type  2   force =     0.00007846    0.00011586    0.00043211
     atom  127 type  1   force =    -0.00015044   -0.00008255    0.00012680
     atom  128 type  1   force =     0.00001186   -0.00000302    0.00191118
     atom  129 type  1   force =     0.00000259    0.00000469   -0.00003489
     atom  130 type  2   force =    -0.00000022    0.00000097   -0.00342560
     atom  131 type  2   force =    -0.00000234    0.00001847   -0.00016191
     atom  132 type  2   force =     0.00050368    0.00029500   -0.00104722
     atom  133 type  2   force =     0.00000031    0.00000268    0.00164031
     atom  134 type  2   force =     0.00001091   -0.00001904    0.00013504
     atom  135 type  2   force =    -0.00017714   -0.00010252    0.00001775
     atom  136 type  1   force =    -0.00015389    0.00006852    0.00017814
     atom  137 type  1   force =     0.00000522    0.00000885    0.00190929
     atom  138 type  1   force =    -0.00000423   -0.00000061   -0.00001863
     atom  139 type  2   force =     0.00000232    0.00000268   -0.00343012
     atom  140 type  2   force =     0.00001473   -0.00000395   -0.00015970
     atom  141 type  2   force =     0.00009594    0.00071500   -0.00036977
     atom  142 type  2   force =     0.00000220    0.00000063    0.00164665
     atom  143 type  2   force =    -0.00001201    0.00002371    0.00013224
     atom  144 type  2   force =     0.00014021    0.00000917    0.00043137
     atom  145 type  3   force =     0.00007921    0.00017359    0.00079034
     The non-local contrib.  to forces
     atom    1 type  1   force =     0.00359058    0.00011151   -0.01069347
     atom    2 type  1   force =     0.00000615    0.00000316   -0.00195373
     atom    3 type  1   force =    -0.00000532    0.00015899   -0.00074792
     atom    4 type  2   force =     0.00000086    0.00000203    0.26318639
     atom    5 type  2   force =     0.00001123    0.00002966    0.26640122
     atom    6 type  2   force =    -0.00041970   -0.00047076    0.26714236
     atom    7 type  2   force =    -0.00000780    0.00000447   -0.26458294
     atom    8 type  2   force =    -0.00010546   -0.00008416   -0.26469731
     atom    9 type  2   force =     0.00006685   -0.00075479   -0.26384093
     atom   10 type  1   force =     0.00190305    0.00305984   -0.01068622
     atom   11 type  1   force =     0.00000803    0.00000272   -0.00196114
     atom   12 type  1   force =     0.00013864   -0.00008534   -0.00075009
     atom   13 type  2   force =     0.00000182    0.00000011    0.26318899
     atom   14 type  2   force =    -0.00003626   -0.00002158    0.26648365
     atom   15 type  2   force =    -0.00061153   -0.00013242    0.26714606
     atom   16 type  2   force =    -0.00000394   -0.00000270   -0.26458668
     atom   17 type  2   force =     0.00013824    0.00007794   -0.26553759
     atom   18 type  2   force =    -0.00061397    0.00043211   -0.26384178
     atom   19 type  1   force =    -0.00115047    0.00066797    0.00067761
     atom   20 type  1   force =     0.00001187    0.00000158   -0.00195758
     atom   21 type  1   force =     0.00000291   -0.00009158   -0.00080628
     atom   22 type  2   force =     0.00000138   -0.00000117    0.26318931
     atom   23 type  2   force =     0.00003315   -0.00000299    0.26639926
     atom   24 type  2   force =     0.00000141    0.00023804    0.26688210
     atom   25 type  2   force =     0.00000149   -0.00001063   -0.26458297
     atom   26 type  2   force =    -0.00012318   -0.00004798   -0.26469526
     atom   27 type  2   force =     0.00000021   -0.00063844   -0.26386344
     atom   28 type  1   force =    -0.00000005   -0.00132573    0.00067221
     atom   29 type  1   force =     0.00000620   -0.00000238   -0.00195275
     atom   30 type  1   force =    -0.00008813    0.00005289   -0.00080684
[...]
     atom   64 type  1   force =    -0.00001785   -0.00000004    0.00008624
     atom   65 type  1   force =    -0.00001985   -0.00001317   -0.00008886
     atom   66 type  1   force =     0.00000159    0.00000437   -0.00002872
     atom   67 type  2   force =    -0.00000113   -0.00000346   -0.00014441
     atom   68 type  2   force =    -0.00000302    0.00000068   -0.00007415
     atom   69 type  2   force =     0.00000368    0.00000049   -0.00004670
     atom   70 type  2   force =     0.00000106   -0.00000585    0.00010779
     atom   71 type  2   force =    -0.00000785    0.00000295    0.00007057
     atom   72 type  2   force =     0.00000237   -0.00000033    0.00007222
     atom   73 type  1   force =    -0.00000876    0.00001792    0.00006946
     atom   74 type  1   force =    -0.00002578    0.00003202   -0.00008832
     atom   75 type  1   force =     0.00002146   -0.00000476   -0.00003318
     atom   76 type  2   force =    -0.00000629    0.00000537   -0.00014128
     atom   77 type  2   force =    -0.00000399    0.00001143   -0.00005971
     atom   78 type  2   force =     0.00000193    0.00000217   -0.00005500
     atom   79 type  2   force =    -0.00000517    0.00000597    0.00010823
     atom   80 type  2   force =    -0.00000692    0.00001096    0.00006053
     atom   81 type  2   force =     0.00000738   -0.00001241    0.00008254
     atom   82 type  1   force =     0.00011556    0.00001225    0.00003319
     atom   83 type  1   force =    -0.00001526    0.00001858   -0.00007190
     atom   84 type  1   force =     0.00001266   -0.00002170   -0.00003685
     atom   85 type  2   force =    -0.00000118    0.00000519   -0.00013359
     atom   86 type  2   force =     0.00001029   -0.00000009   -0.00007326
     atom   87 type  2   force =     0.00002767   -0.00001673   -0.00008134
     atom   88 type  2   force =     0.00000562    0.00000798    0.00009974
     atom   89 type  2   force =     0.00001100   -0.00000154    0.00006903
     atom   90 type  2   force =    -0.00001962    0.00000898    0.00014236
     atom   91 type  1   force =     0.00008464    0.00005845    0.00002767
     atom   92 type  1   force =     0.00003541   -0.00003742   -0.00007677
     atom   93 type  1   force =     0.00001580    0.00001621   -0.00004675
     atom   94 type  2   force =     0.00001001   -0.00000910   -0.00014408
     atom   95 type  2   force =     0.00000728   -0.00000841   -0.00007677
     atom   96 type  2   force =     0.00000015    0.00001394   -0.00008532
     atom   97 type  2   force =     0.00000639   -0.00000252    0.00010292
     atom   98 type  2   force =     0.00001410   -0.00000782    0.00006691
     atom   99 type  2   force =     0.00000431   -0.00004225    0.00015489
     atom  100 type  1   force =    -0.00000250    0.00001218    0.00005808
     atom  101 type  1   force =    -0.00000285   -0.00001498   -0.00008140
     atom  102 type  1   force =    -0.00000780    0.00002950   -0.00003244
     atom  103 type  2   force =    -0.00000949   -0.00000355   -0.00015370
     atom  104 type  2   force =    -0.00000187    0.00000344   -0.00007103
     atom  105 type  2   force =    -0.00001353    0.00001114   -0.00005918
     atom  106 type  2   force =    -0.00000711   -0.00001037    0.00011873
     atom  107 type  2   force =    -0.00000216    0.00000859    0.00006428
     atom  108 type  2   force =    -0.00002532    0.00002480    0.00009210
     atom  109 type  1   force =    -0.00001656   -0.00000139    0.00006754
     atom  110 type  1   force =     0.00000977    0.00002363   -0.00009299
     atom  111 type  1   force =    -0.00003182    0.00002050   -0.00004176
     atom  112 type  2   force =    -0.00000573    0.00000666   -0.00015345
     atom  113 type  2   force =    -0.00000705    0.00000575   -0.00006668
     atom  114 type  2   force =    -0.00000714    0.00001313   -0.00005820
     atom  115 type  2   force =    -0.00000746    0.00000540    0.00011474
     atom  116 type  2   force =    -0.00000719    0.00000719    0.00006387
     atom  117 type  2   force =    -0.00000747    0.00001316    0.00008892
     atom  118 type  1   force =    -0.00004133   -0.00001016    0.00007331
     atom  119 type  1   force =    -0.00001741    0.00003866   -0.00008010
     atom  120 type  1   force =     0.00001565   -0.00001481   -0.00002545
     atom  121 type  2   force =    -0.00000693    0.00000750   -0.00013703
     atom  122 type  2   force =    -0.00001066    0.00000215   -0.00006334
     atom  123 type  2   force =     0.00000893    0.00000314   -0.00005224
     atom  124 type  2   force =    -0.00000975    0.00001402    0.00010827
     atom  125 type  2   force =    -0.00000918    0.00000947    0.00006178
     atom  126 type  2   force =     0.00002131    0.00000626    0.00008089
     atom  127 type  1   force =     0.00001814   -0.00003154    0.00009932
     atom  128 type  1   force =    -0.00000614   -0.00002419   -0.00007724
     atom  129 type  1   force =     0.00002422   -0.00001795   -0.00002665
     atom  130 type  2   force =    -0.00000270   -0.00000290   -0.00013619
     atom  131 type  2   force =    -0.00000114   -0.00001270   -0.00007183
     atom  132 type  2   force =     0.00001909   -0.00000958   -0.00006202
     atom  133 type  2   force =     0.00000110   -0.00000737    0.00010263
     atom  134 type  2   force =     0.00000478   -0.00001023    0.00006957
     atom  135 type  2   force =     0.00002905   -0.00000159    0.00010022
     atom  136 type  1   force =    -0.00002946   -0.00000565    0.00008547
     atom  137 type  1   force =     0.00002373   -0.00003112   -0.00009009
     atom  138 type  1   force =    -0.00001233    0.00000359   -0.00003616
     atom  139 type  2   force =     0.00000935   -0.00001179   -0.00015036
     atom  140 type  2   force =     0.00000162   -0.00000504   -0.00007377
     atom  141 type  2   force =     0.00000438    0.00000600   -0.00005583
     atom  142 type  2   force =     0.00000667   -0.00001651    0.00010972
     atom  143 type  2   force =     0.00000669   -0.00000815    0.00007027
     atom  144 type  2   force =     0.00001739    0.00001905    0.00009208
     atom  145 type  3   force =     0.00000073   -0.00000117    0.00001828

     DFT-D3 dispersion contribution to forces:
     atom    1 type  1   force =     0.00009536    0.00015872   -0.00249262
     atom    2 type  1   force =    -0.00000009    0.00000003    0.00260451
     atom    3 type  1   force =     0.00000425    0.00000440   -0.00003313
     atom    4 type  2   force =     0.00000002   -0.00000001    0.00441239
     atom    5 type  2   force =    -0.00000038    0.00000030   -0.00004837
     atom    6 type  2   force =    -0.00000049   -0.00000831   -0.00021696
     atom    7 type  2   force =    -0.00000002    0.00000001    0.00023520
     atom    8 type  2   force =     0.00000505    0.00001012    0.00009030
     atom    9 type  2   force =     0.00005275    0.00004738   -0.00440231
     atom   10 type  1   force =     0.00018516    0.00000327   -0.00249254
     atom   11 type  1   force =    -0.00000006   -0.00000004    0.00260458
     atom   12 type  1   force =     0.00000592    0.00000147   -0.00003313
     atom   13 type  2   force =     0.00000000    0.00000000    0.00441242
     atom   14 type  2   force =     0.00000015    0.00000008   -0.00004760
     atom   15 type  2   force =    -0.00000747    0.00000371   -0.00021696
     atom   16 type  2   force =    -0.00000007   -0.00000004    0.00023513
     atom   17 type  2   force =     0.00000516    0.00000296    0.00008021
     atom   18 type  2   force =     0.00006745    0.00002202   -0.00440230
     atom   19 type  1   force =     0.00000339   -0.00000201   -0.00263135
     atom   20 type  1   force =    -0.00000002   -0.00000009    0.00260451
     atom   21 type  1   force =     0.00000001    0.00000030   -0.00003467
     atom   22 type  2   force =     0.00000000    0.00000002    0.00441239
     atom   23 type  2   force =     0.00000007   -0.00000048   -0.00004837
     atom   24 type  2   force =     0.00000002    0.00000724   -0.00019813
     atom   25 type  2   force =    -0.00000000   -0.00000002    0.00023520
     atom   26 type  2   force =     0.00001128   -0.00000069    0.00009029
     atom   27 type  2   force =     0.00000000    0.00000305   -0.00441449
     atom   28 type  1   force =    -0.00000002    0.00000399   -0.00263138
     atom   29 type  1   force =    -0.00000000   -0.00000000    0.00260463
     atom   30 type  1   force =     0.00000027   -0.00000014   -0.00003467
     atom   31 type  2   force =    -0.00000001   -0.00000001    0.00441239
     atom   32 type  2   force =     0.00000000    0.00000000   -0.00004851
     atom   33 type  2   force =     0.00000630   -0.00000359   -0.00019814
     atom   34 type  2   force =     0.00000010    0.00000005    0.00023505
     atom   35 type  2   force =     0.00000001    0.00000002    0.00008225
     atom   36 type  2   force =     0.00000265   -0.00000152   -0.00441449
     atom   37 type  1   force =    -0.00009538    0.00015880   -0.00249258
     atom   38 type  1   force =     0.00000009    0.00000003    0.00260451
     atom   39 type  1   force =     0.00000000    0.00000753   -0.00002561
     atom   40 type  2   force =     0.00000000    0.00000001    0.00441239
     atom   41 type  2   force =     0.00000039    0.00000030   -0.00004836
     atom   42 type  2   force =    -0.00000005    0.00000614   -0.00019900
     atom   43 type  2   force =    -0.00000000   -0.00000012    0.00023505
     atom   44 type  2   force =    -0.00000506    0.00001010    0.00009028
     atom   45 type  2   force =     0.00000003    0.00020748   -0.00436629
     atom   46 type  1   force =    -0.00000014   -0.00000032   -0.00299009
     atom   47 type  1   force =     0.00000000   -0.00000000    0.00260455
     atom   48 type  1   force =     0.00000449    0.00000258   -0.00001870
     atom   49 type  2   force =    -0.00000000    0.00000001    0.00441236
     atom   50 type  2   force =     0.00000000    0.00000038   -0.00004547
     atom   51 type  2   force =     0.00007226    0.00004169   -0.00010633
     atom   52 type  2   force =    -0.00000000   -0.00000007    0.00023518
     atom   53 type  2   force =    -0.00000001    0.00000728    0.00009577
     atom   54 type  2   force =    -0.00212860   -0.00123043   -0.00575492
     atom   55 type  1   force =     0.00008991   -0.00016213   -0.00249243
     atom   56 type  1   force =     0.00000000    0.00000000    0.00260455
     atom   57 type  1   force =     0.00000651   -0.00000377   -0.00002564
     atom   58 type  2   force =     0.00000001   -0.00000001    0.00441236
     atom   59 type  2   force =     0.00000033   -0.00000019   -0.00004548
     atom   60 type  2   force =     0.00000523   -0.00000317   -0.00019901
     atom   61 type  2   force =    -0.00000006    0.00000003    0.00023518
     atom   62 type  2   force =     0.00000631   -0.00000368    0.00009575
     atom   63 type  2   force =     0.00017995   -0.00010380   -0.00436620
     atom   64 type  1   force =    -0.00001075   -0.00000612   -0.00264504
     atom   65 type  1   force =     0.00000007    0.00000006    0.00260451
     atom   66 type  1   force =    -0.00000027   -0.00000014   -0.00003466
     atom   67 type  2   force =     0.00000001   -0.00000001    0.00441239
     atom   68 type  2   force =     0.00000046    0.00000019   -0.00004837
     atom   69 type  2   force =    -0.00000629   -0.00000361   -0.00019815
     atom   70 type  2   force =    -0.00000010    0.00000006    0.00023505
     atom   71 type  2   force =     0.00000619   -0.00000941    0.00009025
     atom   72 type  2   force =    -0.00000265   -0.00000153   -0.00441449
     atom   73 type  1   force =    -0.00002764    0.00001599   -0.00263234
     atom   74 type  1   force =     0.00000009    0.00000005    0.00260469
     atom   75 type  1   force =    -0.00000425    0.00000439   -0.00003315
     atom   76 type  2   force =    -0.00000002   -0.00000001    0.00441239
     atom   77 type  2   force =     0.00000015    0.00000009   -0.00004863
     atom   78 type  2   force =     0.00000054   -0.00000838   -0.00021701
     atom   79 type  2   force =     0.00000001    0.00000001    0.00023520
     atom   80 type  2   force =    -0.00000603   -0.00000346    0.00008331
     atom   81 type  2   force =    -0.00005282    0.00004745   -0.00440228
     atom   82 type  1   force =    -0.00018527    0.00000326   -0.00249243
     atom   83 type  1   force =     0.00000006   -0.00000004    0.00260459
     atom   84 type  1   force =    -0.00000450    0.00000257   -0.00001872
     atom   85 type  2   force =     0.00000000    0.00000001    0.00441236
     atom   86 type  2   force =    -0.00000014    0.00000008   -0.00004760
     atom   87 type  2   force =    -0.00007232    0.00004169   -0.00010624
     atom   88 type  2   force =     0.00000000   -0.00000007    0.00023518
     atom   89 type  2   force =    -0.00000516    0.00000295    0.00008020
     atom   90 type  2   force =     0.00214378   -0.00124028   -0.00576604
     atom   91 type  1   force =    -0.00008990   -0.00016217   -0.00249237
     atom   92 type  1   force =    -0.00000000   -0.00000000    0.00260455
     atom   93 type  1   force =    -0.00000001   -0.00000520   -0.00001876
     atom   94 type  2   force =     0.00000000    0.00000000    0.00441234
     atom   95 type  2   force =    -0.00000032   -0.00000019   -0.00004548
     atom   96 type  2   force =    -0.00000002   -0.00008355   -0.00010610
     atom   97 type  2   force =     0.00000000    0.00000000    0.00023516
     atom   98 type  2   force =    -0.00000634   -0.00000368    0.00009574
     atom   99 type  2   force =    -0.00000094    0.00250217   -0.00578173
     atom  100 type  1   force =     0.00000001   -0.00003196   -0.00263231
     atom  101 type  1   force =    -0.00000000    0.00000007    0.00260459
     atom  102 type  1   force =     0.00000166   -0.00000585   -0.00003318
     atom  103 type  2   force =     0.00000001   -0.00000000    0.00441236
     atom  104 type  2   force =     0.00000000   -0.00000017   -0.00004761
     atom  105 type  2   force =    -0.00000704    0.00000479   -0.00021708
     atom  106 type  2   force =    -0.00000006    0.00000003    0.00023518
     atom  107 type  2   force =    -0.00000001   -0.00000595    0.00008017
     atom  108 type  2   force =     0.00001473   -0.00006966   -0.00440223
     atom  109 type  1   force =     0.00002762    0.00001597   -0.00263237
     atom  110 type  1   force =    -0.00000009    0.00000005    0.00260469
     atom  111 type  1   force =    -0.00000000    0.00000001   -0.00004320
     atom  112 type  2   force =     0.00000000   -0.00000000    0.00441242
     atom  113 type  2   force =    -0.00000015    0.00000009   -0.00004863
     atom  114 type  2   force =     0.00000001    0.00000004   -0.00020699
     atom  115 type  2   force =    -0.00000000    0.00000008    0.00023513
     atom  116 type  2   force =     0.00000602   -0.00000345    0.00008332
     atom  117 type  2   force =     0.00000003    0.00000006   -0.00440470
     atom  118 type  1   force =     0.00000005    0.00001230   -0.00264501
     atom  119 type  1   force =    -0.00000000   -0.00000010    0.00260469
     atom  120 type  1   force =    -0.00000592    0.00000147   -0.00003316
     atom  121 type  2   force =    -0.00000000    0.00000000    0.00441242
     atom  122 type  2   force =    -0.00000000   -0.00000018   -0.00004863
     atom  123 type  2   force =     0.00000757    0.00000369   -0.00021701
     atom  124 type  2   force =     0.00000007   -0.00000004    0.00023513
     atom  125 type  2   force =     0.00000001    0.00000694    0.00008332
     atom  126 type  2   force =    -0.00006758    0.00002206   -0.00440226
     atom  127 type  1   force =    -0.00000338   -0.00000198   -0.00263134
     atom  128 type  1   force =     0.00000001   -0.00000009    0.00260451
     atom  129 type  1   force =    -0.00000651   -0.00000377   -0.00002567
     atom  130 type  2   force =    -0.00000001   -0.00000001    0.00441236
     atom  131 type  2   force =    -0.00000007   -0.00000048   -0.00004837
     atom  132 type  2   force =    -0.00000524   -0.00000311   -0.00019902
     atom  133 type  2   force =     0.00000006    0.00000003    0.00023518
     atom  134 type  2   force =    -0.00001125   -0.00000069    0.00009027
     atom  135 type  2   force =    -0.00018009   -0.00010392   -0.00436613
     atom  136 type  1   force =     0.00001075   -0.00000606   -0.00264503
     atom  137 type  1   force =    -0.00000007    0.00000006    0.00260451
     atom  138 type  1   force =    -0.00000168   -0.00000585   -0.00003318
     atom  139 type  2   force =    -0.00000001   -0.00000000    0.00441236
     atom  140 type  2   force =    -0.00000045    0.00000018   -0.00004837
     atom  141 type  2   force =     0.00000704    0.00000481   -0.00021708
     atom  142 type  2   force =     0.00000006    0.00000003    0.00023518
     atom  143 type  2   force =    -0.00000619   -0.00000940    0.00009025
     atom  144 type  2   force =    -0.00001472   -0.00006969   -0.00440222
     atom  145 type  3   force =    -0.00001378   -0.00003045    0.00296121

     Total force =     0.017557     Total SCF correction =     0.001102

     Writing all to output data dir ./outdir/pwscf.save/
 
     init_run     :     99.80s CPU    101.90s WALL (       1 calls)
     electrons    :  11629.47s CPU  11727.85s WALL (       1 calls)
     forces       :     63.44s CPU     65.18s WALL (       1 calls)
     force_dftd3  :      0.45s CPU      0.48s WALL (       1 calls)

     Called by init_run:
     wfcinit      :     82.30s CPU     83.54s WALL (       1 calls)
     potinit      :      1.76s CPU      1.79s WALL (       1 calls)
     hinit0       :     11.03s CPU     11.05s WALL (       1 calls)

     Called by electrons:
     c_bands      :  10759.38s CPU  10815.47s WALL (      24 calls)
     sum_band     :    805.45s CPU    829.37s WALL (      24 calls)
     v_of_rho     :      9.68s CPU      9.79s WALL (      24 calls)
     newd         :     36.94s CPU     55.59s WALL (      24 calls)
     PAW_pot      :     13.35s CPU     13.35s WALL (      24 calls)
     mix_rho      :      2.70s CPU      2.70s WALL (      24 calls)
     energy_dftd3 :      0.21s CPU      0.21s WALL (       1 calls)

     Called by c_bands:
     init_us_2    :     35.48s CPU     35.68s WALL (     200 calls)
     init_us_2:cp :     35.48s CPU     35.68s WALL (     200 calls)
     cegterg      :  10635.34s CPU  10691.24s WALL (     105 calls)

     Called by *egterg:
     cdiaghg      :    582.59s CPU    584.61s WALL (    1429 calls)
     h_psi        :   5612.71s CPU   5632.09s WALL (    1437 calls)
     s_psi        :   1082.66s CPU   1082.87s WALL (    1437 calls)
     g_psi        :     13.93s CPU     13.91s WALL (    1328 calls)

     Called by h_psi:
     h_psi:calbec :   1101.11s CPU   1101.42s WALL (    1437 calls)
     vloc_psi     :   3401.06s CPU   3411.29s WALL (    1437 calls)
     add_vuspsi   :   1092.62s CPU   1092.75s WALL (    1437 calls)

     General routines
     calbec       :   1369.00s CPU   1369.33s WALL (    1549 calls)
     fft          :      9.64s CPU      9.81s WALL (     322 calls)
     ffts         :      0.42s CPU      0.43s WALL (      48 calls)
     fftw         :   2583.86s CPU   2591.71s WALL (  716232 calls)
     interpolate  :      0.97s CPU      0.97s WALL (      24 calls)
 
     Parallel routines
 
     PWSCF        :      3h16m CPU      3h18m WALL

 
   This run was terminated on:  13:26: 3  15Aug2023            

=------------------------------------------------------------------------------=
   JOB DONE.
=------------------------------------------------------------------------------=
Application 11041761 resources: utime ~425241s, stime ~3617s, Rss ~2344168, inblocks ~0, outblocks ~30838064
