
     Program PWSCF v.7.3 starts on 12Mar2024 at 19:41:36 

     This program is part of the open-source Quantum ESPRESSO suite
     for quantum simulation of materials; please cite
         "P. Giannozzi et al., J. Phys.:Condens. Matter 21 395502 (2009);
         "P. Giannozzi et al., J. Phys.:Condens. Matter 29 465901 (2017);
         "P. Giannozzi et al., J. Chem. Phys. 152 154105 (2020);
          URL http://www.quantum-espresso.org", 
     in publications or presentations arising from this work. More details at
     http://www.quantum-espresso.org/quote

     Parallel version (MPI & OpenMP), running on      36 processor cores
     Number of MPI processes:                36
     Threads/MPI process:                     1

     MPI processes distributed on     1 nodes
     553731 MiB available memory on the printing compute node when the environment starts
 
     Waiting for input...
     Reading input from standard input
Warning: card &CELL ignored
Warning: card / ignored

     Current dimensions of program PWSCF are:
     Max number of different atomic species (ntypx) = 10
     Max number of k-points (npk) =  40000
     Max angular momentum in pseudopotentials (lmaxx) =  4
     file Mo.pbe-spn-kjpaw_psl.1.0.0.UPF: wavefunction(s)  4S 4D renormalized
     file S.pbe-n-kjpaw_psl.1.0.0.UPF: wavefunction(s)  3S 3P renormalized
     file Pt.pbe-spfn-kjpaw_psl.1.0.0.UPF: wavefunction(s)  5P 4F renormalized
     file Pd.pbe-spn-kjpaw_psl.1.0.0.UPF: wavefunction(s)  4S 5S 4D renormalized
 
     R & G space division:  proc/nbgrp/npool/nimage =      36
     Subspace diagonalization in iterative solution of the eigenvalue problem:
     one sub-group per band group will be used
     scalapack distributed-memory algorithm (size of sub-group:  6*  6 procs)

 
     Parallelization info
     --------------------
     sticks:   dense  smooth     PW     G-vecs:    dense   smooth      PW
     Min         585     334     89               198743    85850   11735
     Max         586     335     90               198750    85861   11748
     Sum       21073   12049   3205              7154885  3090769  422587
 
     Using Slab Decomposition
 


     bravais-lattice index     =            0
     lattice parameter (alat)  =      23.8199  a.u.
     unit-cell volume          =   33861.0370 (a.u.)^3
     number of atoms/cell      =          194
     number of atomic types    =            4
     number of electrons       =      1714.00
     number of Kohn-Sham states=         1028
     kinetic-energy cutoff     =      77.0000  Ry
     charge density cutoff     =     539.0000  Ry
     scf convergence threshold =      1.0E-06
     mixing beta               =       0.2000
     number of iterations used =            8  plain     mixing
     energy convergence thresh.=      1.0E-04
     force convergence thresh. =      1.0E-03
     Exchange-correlation= SLA  PW   PBX  PBC
                           (   1   4   3   4   0   0   0)
     nstep                     =         1000


     Effective Screening Medium Method
     =================================
     Boundary Conditions: Vacuum-Slab-Vacuum
     total charge in unit cell        =   0.0000
     grid points for fit at edges     =        4 
 

     celldm(1)=  23.819920  celldm(2)=   0.000000  celldm(3)=   0.000000
     celldm(4)=   0.000000  celldm(5)=   0.000000  celldm(6)=   0.000000

     crystal axes: (cart. coord. in units of alat)
               a(1) = (   1.000000   0.000000   0.000000 )  
               a(2) = (  -0.499999   0.866026   0.000000 )  
               a(3) = (   0.000000   0.000000   2.893000 )  

     reciprocal axes: (cart. coord. in units 2 pi/alat)
               b(1) = (  1.000000  0.577349  0.000000 )  
               b(2) = (  0.000000  1.154700  0.000000 )  
               b(3) = (  0.000000  0.000000  0.345662 )  


     PseudoPot. # 1 for Mo read from file:
     ./pseudo/Mo.pbe-spn-kjpaw_psl.1.0.0.UPF
     MD5 check sum: 317bf72632116215fd98f72de1686f13
     Pseudo is Projector augmented-wave + core cor, Zval = 14.0
     Generated using 'atomic' code by A. Dal Corso  v.7.2
     Shape of augmentation charge: PSQ
     Using radial grid of 1229 points,  6 beta functions with: 
                l(1) =   0
                l(2) =   0
                l(3) =   1
                l(4) =   1
                l(5) =   2
                l(6) =   2
     Q(r) pseudized with 0 coefficients 


     PseudoPot. # 2 for S  read from file:
     ./pseudo/S.pbe-n-kjpaw_psl.1.0.0.UPF
     MD5 check sum: 8b7b5302570d38d5e87fed6a1065abda
     Pseudo is Projector augmented-wave + core cor, Zval =  6.0
     Generated using 'atomic' code by A. Dal Corso  v.7.2
     Shape of augmentation charge: PSQ
     Using radial grid of 1151 points,  6 beta functions with: 
                l(1) =   0
                l(2) =   0
                l(3) =   1
                l(4) =   1
                l(5) =   2
                l(6) =   2
     Q(r) pseudized with 0 coefficients 


     PseudoPot. # 3 for Pt read from file:
     ./pseudo/Pt.pbe-spfn-kjpaw_psl.1.0.0.UPF
     MD5 check sum: 620096ebf4e6ebacc94de60fd67efcb5
     Pseudo is Projector augmented-wave + core cor, Zval = 32.0
     Generated using 'atomic' code by A. Dal Corso  v.7.2
     Shape of augmentation charge: PSQ
     Using radial grid of 1277 points,  8 beta functions with: 
                l(1) =   0
                l(2) =   0
                l(3) =   1
                l(4) =   1
                l(5) =   2
                l(6) =   2
                l(7) =   3
                l(8) =   3
     Q(r) pseudized with 0 coefficients 


     PseudoPot. # 4 for Pd read from file:
     ./pseudo/Pd.pbe-spn-kjpaw_psl.1.0.0.UPF
     MD5 check sum: a60571a671f2502b8a6a4569d20a6edb
     Pseudo is Projector augmented-wave + core cor, Zval = 18.0
     Generated using 'atomic' code by A. Dal Corso  v.7.2
     Shape of augmentation charge: PSQ
     Using radial grid of 1235 points,  6 beta functions with: 
                l(1) =   0
                l(2) =   0
                l(3) =   1
                l(4) =   1
                l(5) =   2
                l(6) =   2
     Q(r) pseudized with 0 coefficients 


     atomic species   valence    mass     pseudopotential
     Mo               14.00    95.95000     Mo( 1.00)
     S                 6.00    32.06000     S ( 1.00)
     Pt               32.00   195.08400     Pt( 1.00)
     Pd               18.00   106.42000     Pd( 1.00)

     No symmetry found



   Cartesian axes

     site n.     atom                  positions (alat units)
         1        Mo     tau(   1) = (   0.0000010   0.1443372  -0.7272732  )
         2        Mo     tau(   2) = (   0.1249995   0.0721706  -0.2424038  )
         3        S      tau(   3) = (   0.0000015   0.1443386  -0.3667807  )
         4        S      tau(   4) = (   0.1250010   0.0721682  -0.6030489  )
         5        S      tau(   5) = (   0.1250010   0.0721683  -0.8514963  )
         6        S      tau(   6) = (   0.0000015   0.1443389  -0.1180260  )
         7        Mo     tau(   7) = (   0.0000014   0.1443616   0.2424356  )
         8        Mo     tau(   8) = (   0.1250042   0.0720311   0.7263989  )
         9        S      tau(   9) = (   0.0000639   0.1447004   0.6020022  )
        10        S      tau(  10) = (   0.1250030   0.0721650   0.3667578  )
        11        S      tau(  11) = (   0.1250031   0.0721991   0.1180453  )
        12        S      tau(  12) = (  -0.0005532   0.1426765   0.8513101  )
        13        Mo     tau(  13) = (  -0.1249989   0.3608437  -0.7272732  )
        14        Mo     tau(  14) = (   0.0000030   0.2886752  -0.2424042  )
        15        S      tau(  15) = (  -0.1249977   0.3608450  -0.3667802  )
        16        S      tau(  16) = (   0.0000012   0.2886747  -0.6030489  )
        17        S      tau(  17) = (   0.0000012   0.2886748  -0.8514963  )
        18        S      tau(  18) = (  -0.1249977   0.3608454  -0.1180274  )
        19        Mo     tau(  19) = (  -0.1249758   0.3608563   0.2424461  )
        20        Mo     tau(  20) = (  -0.0009250   0.2875651   0.7279418  )
        21        S      tau(  21) = (  -0.1248723   0.3609173   0.6030853  )
        22        S      tau(  22) = (   0.0000474   0.2887247   0.3668317  )
        23        S      tau(  23) = (   0.0000000   0.2886879   0.1180554  )
        24        S      tau(  24) = (  -0.1255989   0.3604976   0.8519229  )
        25        Mo     tau(  25) = (  -0.2499987   0.5773502  -0.7272732  )
        26        Mo     tau(  26) = (  -0.1249977   0.5051839  -0.2424055  )
        27        S      tau(  27) = (  -0.2499981   0.5773518  -0.3667809  )
        28        S      tau(  28) = (  -0.1249986   0.5051812  -0.6030489  )
        29        S      tau(  29) = (  -0.1249986   0.5051813  -0.8514963  )
        30        S      tau(  30) = (  -0.2499979   0.5773512  -0.1180266  )
        31        Mo     tau(  31) = (  -0.2499765   0.5773372   0.2424355  )
        32        Mo     tau(  32) = (  -0.1264232   0.5049348   0.7279418  )
        33        S      tau(  33) = (  -0.2496528   0.5772237   0.6020023  )
        34        S      tau(  34) = (  -0.1249318   0.5051954   0.3668318  )
        35        S      tau(  35) = (  -0.1249873   0.5051727   0.1180553  )
        36        S      tau(  36) = (  -0.2517142   0.5777014   0.8513102  )
        37        Mo     tau(  37) = (  -0.3749985   0.7938567  -0.7272732  )
        38        Mo     tau(  38) = (  -0.2500001   0.7216874  -0.2424031  )
        39        S      tau(  39) = (  -0.3749980   0.7938584  -0.3667800  )
        40        S      tau(  40) = (  -0.2499984   0.7216877  -0.6030489  )
        41        S      tau(  41) = (  -0.2499984   0.7216878  -0.8514963  )
        42        S      tau(  42) = (  -0.3749982   0.7938585  -0.1180264  )
        43        Mo     tau(  43) = (  -0.3749961   0.7938572   0.2423820  )
        44        Mo     tau(  44) = (  -0.2501160   0.7217599   0.7263989  )
        45        S      tau(  45) = (  -0.3749948   0.7938592   0.6019084  )
        46        S      tau(  46) = (  -0.2499995   0.7216903   0.3667578  )
        47        S      tau(  47) = (  -0.2499699   0.7216732   0.1180452  )
        48        S      tau(  48) = (  -0.3749951   0.7938590   0.8508262  )
        49        Mo     tau(  49) = (   0.2500010   0.1443372  -0.7272732  )
        50        Mo     tau(  50) = (   0.3750034   0.0721723  -0.2424032  )
        51        S      tau(  51) = (   0.2500017   0.1443391  -0.3667788  )
        52        S      tau(  52) = (   0.3750010   0.0721682  -0.6030489  )
        53        S      tau(  53) = (   0.3750010   0.0721683  -0.8514963  )
        54        S      tau(  54) = (   0.2500016   0.1443391  -0.1180271  )
        55        Mo     tau(  55) = (   0.2500050   0.1443618   0.2424356  )
        56        Mo     tau(  56) = (   0.3749291   0.0721273   0.7261578  )
        57        S      tau(  57) = (   0.2499446   0.1447002   0.6020022  )
        58        S      tau(  58) = (   0.3750312   0.0721852   0.3667808  )
        59        S      tau(  59) = (   0.3749943   0.0721639   0.1180502  )
        60        S      tau(  60) = (   0.2505615   0.1426764   0.8513103  )
        61        Mo     tau(  61) = (   0.1250012   0.3608437  -0.7272732  )
        62        Mo     tau(  62) = (   0.2500029   0.2886782  -0.2424031  )
        63        S      tau(  63) = (   0.1250024   0.3608455  -0.3667794  )
        64        S      tau(  64) = (   0.2500012   0.2886747  -0.6030489  )
        65        S      tau(  65) = (   0.2500012   0.2886748  -0.8514963  )
        66        S      tau(  66) = (   0.1250021   0.3608455  -0.1180270  )
        67        Mo     tau(  67) = (   0.1250036   0.3608788   0.2424134  )
        68        Mo     tau(  68) = (   0.2509342   0.2875650   0.7279417  )
        69        S      tau(  69) = (   0.1250047   0.3631022   0.6070003  )
        70        S      tau(  70) = (   0.2499595   0.2887248   0.3668321  )
        71        S      tau(  71) = (   0.2500069   0.2886879   0.1180551  )
        72        S      tau(  72) = (   0.1250048   0.3485809   0.8580653  )
        73        Mo     tau(  73) = (   0.0000014   0.5773502  -0.7272732  )
        74        Mo     tau(  74) = (   0.1250045   0.5051840  -0.2424036  )
        75        S      tau(  75) = (   0.0000030   0.5773520  -0.3667799  )
        76        S      tau(  76) = (   0.1250014   0.5051812  -0.6030489  )
        77        S      tau(  77) = (   0.1250014   0.5051813  -0.8514963  )
        78        S      tau(  78) = (   0.0000026   0.5773517  -0.1180274  )
        79        Mo     tau(  79) = (   0.0000336   0.5773337   0.2424134  )
        80        Mo     tau(  80) = (   0.1250049   0.5051837   0.7323431  )
        81        S      tau(  81) = (   0.0019589   0.5762246   0.6070004  )
        82        S      tau(  82) = (   0.1250038   0.5051820   0.3668453  )
        83        S      tau(  83) = (   0.1250038   0.5051819   0.1180162  )
        84        S      tau(  84) = (  -0.0106172   0.5834855   0.8580649  )
        85        Mo     tau(  85) = (  -0.1249984   0.7938567  -0.7272732  )
        86        Mo     tau(  86) = (   0.0000069   0.7216896  -0.2424039  )
        87        S      tau(  87) = (  -0.1249975   0.7938582  -0.3667782  )
        88        S      tau(  88) = (   0.0000016   0.7216877  -0.6030489  )
        89        S      tau(  89) = (   0.0000016   0.7216878  -0.8514963  )
        90        S      tau(  90) = (  -0.1249973   0.7938582  -0.1180279  )
        91        Mo     tau(  91) = (  -0.1249742   0.7938470   0.2424356  )
        92        Mo     tau(  92) = (  -0.0004933   0.7230516   0.7279416  )
        93        S      tau(  93) = (  -0.1247124   0.7936270   0.6020023  )
        94        S      tau(  94) = (   0.0000246   0.7216257   0.3668322  )
        95        S      tau(  95) = (   0.0000165   0.7216852   0.1180552  )
        96        S      tau(  96) = (  -0.1261568   0.7951731   0.8513104  )
        97        Mo     tau(  97) = (   0.5000010   0.1443372  -0.7272732  )
        98        Mo     tau(  98) = (   0.6250001   0.0721662  -0.2424040  )
        99        S      tau(  99) = (   0.5000017   0.1443386  -0.3667801  )
       100        S      tau( 100) = (   0.6250010   0.0721682  -0.6030489  )
       101        S      tau( 101) = (   0.6250010   0.0721683  -0.8514963  )
       102        S      tau( 102) = (   0.5000020   0.1443388  -0.1180261  )
       103        Mo     tau( 103) = (   0.5000076   0.1443402   0.2423934  )
       104        Mo     tau( 104) = (   0.6250040   0.0723531   0.7270557  )
       105        S      tau( 105) = (   0.5002419   0.1444767   0.6022126  )
       106        S      tau( 106) = (   0.6250031   0.0721699   0.3667634  )
       107        S      tau( 107) = (   0.6250031   0.0721381   0.1180360  )
       108        S      tau( 108) = (   0.4998195   0.1442328   0.8511552  )
       109        Mo     tau( 109) = (   0.3750012   0.3608437  -0.7272732  )
       110        Mo     tau( 110) = (   0.4999991   0.2886761  -0.2424038  )
       111        S      tau( 111) = (   0.3750012   0.3608452  -0.3667804  )
       112        S      tau( 112) = (   0.5000012   0.2886747  -0.6030489  )
       113        S      tau( 113) = (   0.5000012   0.2886748  -0.8514963  )
       114        S      tau( 114) = (   0.3750014   0.3608455  -0.1180261  )
       115        Mo     tau( 115) = (   0.3749823   0.3608562   0.2424462  )
       116        Mo     tau( 116) = (   0.5001624   0.2885857   0.7270558  )
       117        S      tau( 117) = (   0.3748813   0.3609171   0.6030850  )
       118        S      tau( 118) = (   0.5000041   0.2886750   0.3667632  )
       119        S      tau( 119) = (   0.4999767   0.2886908   0.1180361  )
       120        S      tau( 120) = (   0.3756080   0.3604978   0.8519227  )
       121        Mo     tau( 121) = (   0.2500014   0.5773502  -0.7272732  )
       122        Mo     tau( 122) = (   0.3749983   0.5051825  -0.2424043  )
       123        S      tau( 123) = (   0.2500017   0.5773519  -0.3667810  )
       124        S      tau( 124) = (   0.3750014   0.5051812  -0.6030489  )
       125        S      tau( 125) = (   0.3750014   0.5051813  -0.8514963  )
       126        S      tau( 126) = (   0.2500018   0.5773519  -0.1180256  )
       127        Mo     tau( 127) = (   0.2499737   0.5773335   0.2424135  )
       128        Mo     tau( 128) = (   0.3764328   0.5049349   0.7279416  )
       129        S      tau( 129) = (   0.2480514   0.5762247   0.6070002  )
       130        S      tau( 130) = (   0.3749389   0.5051953   0.3668317  )
       131        S      tau( 131) = (   0.3749944   0.5051727   0.1180554  )
       132        S      tau( 132) = (   0.2606253   0.5834843   0.8580650  )
       133        Mo     tau( 133) = (   0.1250016   0.7938567  -0.7272732  )
       134        Mo     tau( 134) = (   0.2499995   0.7216883  -0.2424036  )
       135        S      tau( 135) = (   0.1250024   0.7938578  -0.3667813  )
       136        S      tau( 136) = (   0.2500016   0.7216877  -0.6030489  )
       137        S      tau( 137) = (   0.2500016   0.7216878  -0.8514963  )
       138        S      tau( 138) = (   0.1250024   0.7938579  -0.1180253  )
       139        Mo     tau( 139) = (   0.1250038   0.7938330   0.2424463  )
       140        Mo     tau( 140) = (   0.2505035   0.7230514   0.7279415  )
       141        S      tau( 141) = (   0.1250048   0.7937168   0.6030849  )
       142        S      tau( 142) = (   0.2499835   0.7216255   0.3668318  )
       143        S      tau( 143) = (   0.2499914   0.7216850   0.1180556  )
       144        S      tau( 144) = (   0.1250053   0.7945558   0.8519227  )
       145        Mo     tau( 145) = (   0.7500010   0.1443372  -0.7272732  )
       146        Mo     tau( 146) = (   0.8750038   0.0721696  -0.2424038  )
       147        S      tau( 147) = (   0.7500016   0.1443382  -0.3667789  )
       148        S      tau( 148) = (   0.8750010   0.0721682  -0.6030489  )
       149        S      tau( 149) = (   0.8750010   0.0721683  -0.8514963  )
       150        S      tau( 150) = (   0.7500016   0.1443384  -0.1180279  )
       151        Mo     tau( 151) = (   0.7499988   0.1443404   0.2423934  )
       152        Mo     tau( 152) = (   0.8750792   0.0721276   0.7261574  )
       153        S      tau( 153) = (   0.7497661   0.1444769   0.6022124  )
       154        S      tau( 154) = (   0.8749753   0.0721851   0.3667807  )
       155        S      tau( 155) = (   0.8750121   0.0721637   0.1180502  )
       156        S      tau( 156) = (   0.7501887   0.1442327   0.8511550  )
       157        Mo     tau( 157) = (   0.6250012   0.3608437  -0.7272732  )
       158        Mo     tau( 158) = (   0.7500028   0.2886769  -0.2424041  )
       159        S      tau( 159) = (   0.6250015   0.3608451  -0.3667792  )
       160        S      tau( 160) = (   0.7500012   0.2886747  -0.6030489  )
       161        S      tau( 161) = (   0.7500012   0.2886748  -0.8514963  )
       162        S      tau( 162) = (   0.6250016   0.3608454  -0.1180280  )
       163        Mo     tau( 163) = (   0.6250035   0.3608392   0.2423934  )
       164        Mo     tau( 164) = (   0.7498463   0.2885859   0.7270559  )
       165        S      tau( 165) = (   0.6250044   0.3605709   0.6022125  )
       166        S      tau( 166) = (   0.7500026   0.2886750   0.3667635  )
       167        S      tau( 167) = (   0.7500299   0.2886908   0.1180357  )
       168        S      tau( 168) = (   0.6250043   0.3610591   0.8511551  )
       169        Mo     tau( 169) = (   0.5000014   0.5773502  -0.7272732  )
       170        Mo     tau( 170) = (   0.6250029   0.5051841  -0.2424047  )
       171        S      tau( 171) = (   0.5000014   0.5773518  -0.3667794  )
       172        S      tau( 172) = (   0.6250014   0.5051812  -0.6030489  )
       173        S      tau( 173) = (   0.6250014   0.5051813  -0.8514963  )
       174        S      tau( 174) = (   0.5000016   0.5773516  -0.1180277  )
       175        Mo     tau( 175) = (   0.4999838   0.5773372   0.2424356  )
       176        Mo     tau( 176) = (   0.6250048   0.5052701   0.7261575  )
       177        S      tau( 177) = (   0.4996630   0.5772238   0.6020019  )
       178        S      tau( 178) = (   0.6250037   0.5051496   0.3667806  )
       179        S      tau( 179) = (   0.6250036   0.5051921   0.1180503  )
       180        S      tau( 180) = (   0.5017240   0.5777016   0.8513099  )
       181        Mo     tau( 181) = (   0.3750016   0.7938567  -0.7272732  )
       182        Mo     tau( 182) = (   0.5000025   0.7216901  -0.2424039  )
       183        S      tau( 183) = (   0.3750019   0.7938578  -0.3667793  )
       184        S      tau( 184) = (   0.5000016   0.7216877  -0.6030489  )
       185        S      tau( 185) = (   0.5000016   0.7216878  -0.8514963  )
       186        S      tau( 186) = (   0.3750020   0.7938579  -0.1180272  )
       187        Mo     tau( 187) = (   0.3749825   0.7938468   0.2424356  )
       188        Mo     tau( 188) = (   0.5001261   0.7217601   0.7263985  )
       189        S      tau( 189) = (   0.3747228   0.7936274   0.6020018  )
       190        S      tau( 190) = (   0.5000073   0.7216903   0.3667579  )
       191        S      tau( 191) = (   0.4999777   0.7216732   0.1180450  )
       192        S      tau( 192) = (   0.3761670   0.7951734   0.8513099  )
       193        Pt     tau( 193) = (   0.1250041   0.5051825   0.9498857  )
       194        Pd     tau( 194) = (   0.2509330   0.2875852   0.9770758  )

     --------------------------------------------
     DFT-D3 Dispersion Correction (3-body terms):
     --------------------------------------------
       Reference C6 values for interpolation: 

         atom   Coordination number   C6
         S          0.000           268.01
         S          0.995           261.99
         S          1.990           251.62
         Mo         0.000          1691.79
         Mo         1.942          1004.01
         Mo        11.056           674.22
         Pd         0.000          1217.01
         Pd         1.863           573.90
         Pd         5.710           531.75
         Pt         0.000           782.29
         Pt         1.919           692.72
         Pt         6.667           673.75

       Values used:

         atom   Coordination number  R0_AB[au]  C6      C8
         Mo        10.208            3.547    674.21  77634.20
         Mo        10.221            3.547    674.22  77634.20
         S          3.858            3.128    251.62  12327.25
         S          3.859            3.128    251.62  12327.25
         S          3.758            3.128    251.62  12327.25
         S          3.859            3.128    251.62  12327.25
         Mo        10.220            3.547    674.22  77634.20
         Mo        10.243            3.547    674.22  77634.20
         S          3.844            3.128    251.62  12327.25
         S          3.861            3.128    251.62  12327.25
         S          3.859            3.128    251.62  12327.25
         S          3.836            3.128    251.62  12327.25
         Mo        10.208            3.547    674.22  77634.20
         Mo        10.221            3.547    674.22  77634.20
         S          3.858            3.128    251.62  12327.25
         S          3.859            3.128    251.62  12327.25
         S          3.758            3.128    251.62  12327.25
         S          3.859            3.128    251.62  12327.25
         Mo        10.221            3.547    674.22  77634.20
         Mo        10.199            3.547    674.22  77634.20
         S          3.857            3.128    251.62  12327.25
         S          3.855            3.128    251.62  12327.25
         S          3.859            3.128    251.62  12327.25
         S          3.758            3.128    251.62  12327.25
         Mo        10.208            3.547    674.22  77634.20
         Mo        10.221            3.547    674.22  77634.20
         S          3.858            3.128    251.62  12327.25
         S          3.859            3.128    251.62  12327.25
         S          3.758            3.128    251.62  12327.25
         S          3.859            3.128    251.62  12327.25
         Mo        10.220            3.547    674.22  77634.20
         Mo        10.192            3.547    674.22  77634.20
         S          3.844            3.128    251.62  12327.25
         S          3.855            3.128    251.62  12327.25
         S          3.859            3.128    251.62  12327.25
         S          3.828            3.128    251.62  12327.25
         Mo        10.208            3.547    674.22  77634.20
         Mo        10.221            3.547    674.22  77634.20
         S          3.858            3.128    251.62  12327.25
         S          3.859            3.128    251.62  12327.25
         S          3.758            3.128    251.62  12327.25
         S          3.859            3.128    251.62  12327.25
         Mo        10.219            3.547    674.22  77634.20
         Mo        10.236            3.547    674.22  77634.20
         S          3.852            3.128    251.62  12327.25
         S          3.861            3.128    251.62  12327.25
         S          3.859            3.128    251.62  12327.25
         S          3.792            3.128    251.62  12327.25
         Mo        10.208            3.547    674.22  77634.20
         Mo        10.221            3.547    674.22  77634.20
         S          3.858            3.128    251.62  12327.25
         S          3.859            3.128    251.62  12327.25
         S          3.758            3.128    251.62  12327.25
         S          3.859            3.128    251.62  12327.25
         Mo        10.220            3.547    674.22  77634.20
         Mo        10.257            3.547    674.22  77634.20
         S          3.845            3.128    251.62  12327.25
         S          3.860            3.128    251.62  12327.25
         S          3.859            3.128    251.62  12327.25
         S          4.754            3.128    251.62  12327.25
         Mo        10.208            3.547    674.22  77634.20
         Mo        10.221            3.547    674.22  77634.20
         S          3.858            3.128    251.62  12327.25
         S          3.859            3.128    251.62  12327.25
         S          3.758            3.128    251.62  12327.25
         S          3.859            3.128    251.62  12327.25
         Mo        10.222            3.547    674.22  77634.20
         Mo        10.632            3.547    674.22  77634.20
         S          3.866            3.128    251.62  12327.25
         S          3.855            3.128    251.62  12327.25
         S          3.859            3.128    251.62  12327.25
         S          5.626            3.128    251.62  12327.25
         Mo        10.208            3.547    674.22  77634.20
         Mo        10.221            3.547    674.22  77634.20
         S          3.858            3.128    251.62  12327.25
         S          3.859            3.128    251.62  12327.25
         S          3.758            3.128    251.62  12327.25
         S          3.859            3.128    251.62  12327.25
         Mo        10.222            3.547    674.22  77634.20
         Mo        10.916            3.547    674.22  77634.20
         S          3.865            3.128    251.62  12327.25
         S          3.851            3.128    251.62  12327.25
         S          3.859            3.128    251.62  12327.25
         S          4.660            3.128    251.62  12327.25
         Mo        10.208            3.547    674.22  77634.20
         Mo        10.221            3.547    674.22  77634.20
         S          3.858            3.128    251.62  12327.25
         S          3.859            3.128    251.62  12327.25
         S          3.758            3.128    251.62  12327.25
         S          3.859            3.128    251.62  12327.25
         Mo        10.220            3.547    674.22  77634.20
         Mo        10.192            3.547    674.22  77634.20
         S          3.844            3.128    251.62  12327.25
         S          3.855            3.128    251.62  12327.25
         S          3.859            3.128    251.62  12327.25
         S          3.829            3.128    251.62  12327.25
         Mo        10.208            3.547    674.21  77634.20
         Mo        10.221            3.547    674.22  77634.20
         S          3.858            3.128    251.62  12327.25
         S          3.859            3.128    251.62  12327.25
         S          3.758            3.128    251.62  12327.25
         S          3.859            3.128    251.62  12327.25
         Mo        10.220            3.547    674.22  77634.20
         Mo        10.236            3.547    674.22  77634.20
         S          3.860            3.128    251.62  12327.25
         S          3.860            3.128    251.62  12327.25
         S          3.859            3.128    251.62  12327.25
         S          3.778            3.128    251.62  12327.25
         Mo        10.208            3.547    674.22  77634.20
         Mo        10.221            3.547    674.22  77634.20
         S          3.858            3.128    251.62  12327.25
         S          3.859            3.128    251.62  12327.25
         S          3.758            3.128    251.62  12327.25
         S          3.859            3.128    251.62  12327.25
         Mo        10.221            3.547    674.22  77634.20
         Mo        10.243            3.547    674.22  77634.20
         S          3.858            3.128    251.62  12327.25
         S          3.860            3.128    251.62  12327.25
         S          3.859            3.128    251.62  12327.25
         S          4.688            3.128    251.62  12327.25
         Mo        10.208            3.547    674.22  77634.20
         Mo        10.221            3.547    674.22  77634.20
         S          3.858            3.128    251.62  12327.25
         S          3.859            3.128    251.62  12327.25
         S          3.758            3.128    251.62  12327.25
         S          3.859            3.128    251.62  12327.25
         Mo        10.222            3.547    674.22  77634.20
         Mo        10.199            3.547    674.22  77634.20
         S          3.865            3.128    251.62  12327.25
         S          3.855            3.128    251.62  12327.25
         S          3.859            3.128    251.62  12327.25
         S          4.667            3.128    251.62  12327.25
         Mo        10.208            3.547    674.22  77634.20
         Mo        10.221            3.547    674.22  77634.20
         S          3.858            3.128    251.62  12327.25
         S          3.859            3.128    251.62  12327.25
         S          3.758            3.128    251.62  12327.25
         S          3.859            3.128    251.62  12327.25
         Mo        10.221            3.547    674.22  77634.20
         Mo        10.192            3.547    674.22  77634.20
         S          3.857            3.128    251.62  12327.25
         S          3.855            3.128    251.62  12327.25
         S          3.859            3.128    251.62  12327.25
         S          3.758            3.128    251.62  12327.25
         Mo        10.208            3.547    674.22  77634.20
         Mo        10.221            3.547    674.22  77634.20
         S          3.858            3.128    251.62  12327.25
         S          3.859            3.128    251.62  12327.25
         S          3.758            3.128    251.62  12327.25
         S          3.859            3.128    251.62  12327.25
         Mo        10.220            3.547    674.22  77634.20
         Mo        10.250            3.547    674.22  77634.20
         S          3.860            3.128    251.62  12327.25
         S          3.860            3.128    251.62  12327.25
         S          3.859            3.128    251.62  12327.25
         S          3.768            3.128    251.62  12327.25
         Mo        10.208            3.547    674.22  77634.20
         Mo        10.220            3.547    674.22  77634.20
         S          3.858            3.128    251.62  12327.25
         S          3.859            3.128    251.62  12327.25
         S          3.758            3.128    251.62  12327.25
         S          3.859            3.128    251.62  12327.25
         Mo        10.220            3.547    674.22  77634.20
         Mo        10.236            3.547    674.22  77634.20
         S          3.860            3.128    251.62  12327.25
         S          3.860            3.128    251.62  12327.25
         S          3.859            3.128    251.62  12327.25
         S          3.769            3.128    251.62  12327.25
         Mo        10.208            3.547    674.22  77634.20
         Mo        10.221            3.547    674.22  77634.20
         S          3.858            3.128    251.62  12327.25
         S          3.859            3.128    251.62  12327.25
         S          3.758            3.128    251.62  12327.25
         S          3.859            3.128    251.62  12327.25
         Mo        10.220            3.547    674.21  77634.20
         Mo        10.250            3.547    674.22  77634.20
         S          3.844            3.128    251.62  12327.25
         S          3.860            3.128    251.62  12327.25
         S          3.859            3.128    251.62  12327.25
         S          3.829            3.128    251.62  12327.25
         Mo        10.208            3.547    674.22  77634.20
         Mo        10.221            3.547    674.22  77634.20
         S          3.858            3.128    251.62  12327.25
         S          3.859            3.128    251.62  12327.25
         S          3.758            3.128    251.62  12327.25
         S          3.859            3.128    251.62  12327.25
         Mo        10.220            3.547    674.22  77634.20
         Mo        10.236            3.547    674.22  77634.20
         S          3.844            3.128    251.62  12327.25
         S          3.861            3.128    251.62  12327.25
         S          3.859            3.128    251.62  12327.25
         S          3.828            3.128    251.62  12327.25
         Pt         4.244            3.168    690.07  71759.88
         Pd         3.568            3.168    573.85  52578.28

         Molecular C6 ( Ry / a.u.^6 ) =  13985694.60


     number of k points=     4  Gaussian smearing, width (Ry)=  0.0100
                       cart. coord. in units 2pi/alat
        k(    1) = (   0.0000000   0.0000000   0.0000000), wk =   0.5000000
        k(    2) = (   0.0000000  -0.5773499   0.0000000), wk =   0.5000000
        k(    3) = (  -0.5000000  -0.2886744   0.0000000), wk =   0.5000000
        k(    4) = (  -0.5000000  -0.8660242   0.0000000), wk =   0.5000000

     Dense  grid:  7154885 G-vectors     FFT dimensions: ( 180, 180, 512)

     Smooth grid:  3090769 G-vectors     FFT dimensions: ( 135, 135, 400)

     Estimated max dynamical RAM per process >       4.31 GB

     Estimated total dynamical RAM >     155.10 GB

     Initial potential from superposition of free atoms

     starting charge    1713.9389, renormalised to    1714.0000

     negative rho (up, down):  9.018E-04 0.000E+00
     Starting wfcs are 1179 randomized atomic wfcs
     Checking if some PAW data can be deallocated... 

     total cpu time spent up to now is      175.3 secs

     Self-consistent Calculation

     iteration #  1     ecut=    77.00 Ry     beta= 0.20
     Davidson diagonalization with overlap
     ethr =  1.00E-02,  avg # of iterations =  2.0

     Threshold (ethr) on eigenvalues was too large:
     Diagonalizing with lowered threshold

     Davidson diagonalization with overlap
     ethr =  1.62E-04,  avg # of iterations = 15.5

     negative rho (up, down):  2.453E-04 0.000E+00

     total cpu time spent up to now is     2195.2 secs

     total energy              =  -33980.25852344 Ry
     estimated scf accuracy    <       6.60021619 Ry

     iteration #  2     ecut=    77.00 Ry     beta= 0.20
     Davidson diagonalization with overlap
     ethr =  3.85E-04,  avg # of iterations =  2.0

     negative rho (up, down):  2.634E-05 0.000E+00

     total cpu time spent up to now is     2595.2 secs

     total energy              =  -33978.89004157 Ry
     estimated scf accuracy    <       3.44628761 Ry

     iteration #  3     ecut=    77.00 Ry     beta= 0.20
     Davidson diagonalization with overlap
     c_bands:  1 eigenvalues not converged
     c_bands:  1 eigenvalues not converged
     c_bands:  1 eigenvalues not converged
     ethr =  2.01E-04,  avg # of iterations = 20.0

     negative rho (up, down):  2.116E-05 0.000E+00

     total cpu time spent up to now is     3140.8 secs

     total energy              =  -33979.27750463 Ry
     estimated scf accuracy    <       1.79540817 Ry

     iteration #  4     ecut=    77.00 Ry     beta= 0.20
     Davidson diagonalization with overlap
     ethr =  1.05E-04,  avg # of iterations = 11.8

     negative rho (up, down):  1.654E-05 0.000E+00

     total cpu time spent up to now is     3678.5 secs

     total energy              =  -33979.67175814 Ry
     estimated scf accuracy    <       0.45254528 Ry

     iteration #  5     ecut=    77.00 Ry     beta= 0.20
     Davidson diagonalization with overlap
     c_bands:  1 eigenvalues not converged
     ethr =  2.64E-05,  avg # of iterations = 20.0

     negative rho (up, down):  2.709E-05 0.000E+00

     total cpu time spent up to now is     5285.6 secs

     total energy              =  -33980.22807388 Ry
     estimated scf accuracy    <       0.38468329 Ry

     iteration #  6     ecut=    77.00 Ry     beta= 0.20
     Davidson diagonalization with overlap
     ethr =  2.24E-05,  avg # of iterations =  2.0

     negative rho (up, down):  6.588E-05 0.000E+00

     total cpu time spent up to now is     5685.5 secs

     total energy              =  -33980.18467797 Ry
     estimated scf accuracy    <       0.23699578 Ry

     iteration #  7     ecut=    77.00 Ry     beta= 0.20
     Davidson diagonalization with overlap
     ethr =  1.38E-05,  avg # of iterations = 12.2

     negative rho (up, down):  4.326E-04 0.000E+00

     total cpu time spent up to now is     6138.6 secs

     total energy              =  -33980.19139962 Ry
     estimated scf accuracy    <       0.09831887 Ry

     iteration #  8     ecut=    77.00 Ry     beta= 0.20
     Davidson diagonalization with overlap
     c_bands:  5 eigenvalues not converged
     c_bands:  4 eigenvalues not converged
     c_bands:  1 eigenvalues not converged
     ethr =  5.74E-06,  avg # of iterations = 19.8

     negative rho (up, down):  3.267E-04 0.000E+00

     total cpu time spent up to now is     7376.6 secs

     total energy              =  -33980.23897411 Ry
     estimated scf accuracy    <       0.39460713 Ry

     iteration #  9     ecut=    77.00 Ry     beta= 0.20
     Davidson diagonalization with overlap
     c_bands:  1 eigenvalues not converged
     c_bands:  1 eigenvalues not converged
     ethr =  5.74E-06,  avg # of iterations = 21.2

     negative rho (up, down):  2.489E-04 0.000E+00

     total cpu time spent up to now is     7962.8 secs

     total energy              =  -33980.22835086 Ry
     estimated scf accuracy    <       0.07328348 Ry

     iteration # 10     ecut=    77.00 Ry     beta= 0.20
     Davidson diagonalization with overlap
     c_bands:  2 eigenvalues not converged
     ethr =  4.28E-06,  avg # of iterations = 19.8

     negative rho (up, down):  3.160E-04 0.000E+00

     total cpu time spent up to now is     8785.3 secs

     total energy              =  -33980.27257731 Ry
     estimated scf accuracy    <       0.00283443 Ry

     iteration # 11     ecut=    77.00 Ry     beta= 0.20
     Davidson diagonalization with overlap
     c_bands:  4 eigenvalues not converged
     c_bands:  5 eigenvalues not converged
     ethr =  1.65E-07,  avg # of iterations = 68.2

     negative rho (up, down):  3.875E-04 0.000E+00

     total cpu time spent up to now is    12635.1 secs

     total energy              =  -33980.28614238 Ry
     estimated scf accuracy    <       0.02960655 Ry

     iteration # 12     ecut=    77.00 Ry     beta= 0.20
     Davidson diagonalization with overlap
     c_bands:  1 eigenvalues not converged
     ethr =  1.65E-07,  avg # of iterations = 14.5

     negative rho (up, down):  5.791E-04 0.000E+00

     total cpu time spent up to now is    13370.0 secs

     total energy              =  -33980.28395679 Ry
     estimated scf accuracy    <       0.00653843 Ry

     iteration # 13     ecut=    77.00 Ry     beta= 0.20
     Davidson diagonalization with overlap
     c_bands:  2 eigenvalues not converged
     ethr =  1.65E-07,  avg # of iterations = 17.2

     negative rho (up, down):  8.708E-04 0.000E+00

     total cpu time spent up to now is    14470.6 secs

     total energy              =  -33980.29248259 Ry
     estimated scf accuracy    <       0.00548149 Ry

     iteration # 14     ecut=    77.00 Ry     beta= 0.20
     Davidson diagonalization with overlap
     ethr =  1.65E-07,  avg # of iterations = 11.5

     negative rho (up, down):  7.799E-04 0.000E+00

     total cpu time spent up to now is    15157.4 secs

     total energy              =  -33980.28631596 Ry
     estimated scf accuracy    <       0.01452374 Ry

     iteration # 15     ecut=    77.00 Ry     beta= 0.20
     Davidson diagonalization with overlap
     ethr =  1.65E-07,  avg # of iterations = 11.5

     negative rho (up, down):  7.658E-04 0.000E+00

     total cpu time spent up to now is    15649.6 secs

     total energy              =  -33980.28679973 Ry
     estimated scf accuracy    <       0.00148910 Ry

     iteration # 16     ecut=    77.00 Ry     beta= 0.20
     Davidson diagonalization with overlap
     ethr =  8.69E-08,  avg # of iterations =  7.5

     negative rho (up, down):  8.236E-04 0.000E+00

     total cpu time spent up to now is    16290.0 secs

     total energy              =  -33980.28754339 Ry
     estimated scf accuracy    <       0.00009238 Ry

     iteration # 17     ecut=    77.00 Ry     beta= 0.20
     Davidson diagonalization with overlap
     c_bands:  2 eigenvalues not converged
     c_bands:  3 eigenvalues not converged
     c_bands:  4 eigenvalues not converged
     ethr =  5.39E-09,  avg # of iterations = 25.2

     negative rho (up, down):  8.306E-04 0.000E+00

     total cpu time spent up to now is    17993.4 secs

     total energy              =  -33980.28781869 Ry
     estimated scf accuracy    <       0.00004088 Ry

     iteration # 18     ecut=    77.00 Ry     beta= 0.20
     Davidson diagonalization with overlap
     c_bands:  4 eigenvalues not converged
     ethr =  2.38E-09,  avg # of iterations = 17.8

     negative rho (up, down):  8.561E-04 0.000E+00

     total cpu time spent up to now is    18629.3 secs

     total energy              =  -33980.28781605 Ry
     estimated scf accuracy    <       0.00001587 Ry

     iteration # 19     ecut=    77.00 Ry     beta= 0.20
     Davidson diagonalization with overlap
     c_bands:  3 eigenvalues not converged
     ethr =  9.26E-10,  avg # of iterations = 15.0

     negative rho (up, down):  8.755E-04 0.000E+00

     total cpu time spent up to now is    19327.0 secs

     total energy              =  -33980.28781116 Ry
     estimated scf accuracy    <       0.00000998 Ry

     iteration # 20     ecut=    77.00 Ry     beta= 0.20
     Davidson diagonalization with overlap
     ethr =  5.83E-10,  avg # of iterations = 11.0

     negative rho (up, down):  8.827E-04 0.000E+00

     total cpu time spent up to now is    19909.7 secs

     total energy              =  -33980.28781149 Ry
     estimated scf accuracy    <       0.00000131 Ry

     iteration # 21     ecut=    77.00 Ry     beta= 0.20
     Davidson diagonalization with overlap
     c_bands:  1 eigenvalues not converged
     c_bands:  1 eigenvalues not converged
     ethr =  7.61E-11,  avg # of iterations = 25.8

     negative rho (up, down):  8.851E-04 0.000E+00

     total cpu time spent up to now is    21470.2 secs

     total energy              =  -33980.28781301 Ry
     estimated scf accuracy    <       0.00000103 Ry

     iteration # 22     ecut=    77.00 Ry     beta= 0.20
     Davidson diagonalization with overlap
     ethr =  6.01E-11,  avg # of iterations =  3.2

     negative rho (up, down):  9.000E-04 0.000E+00

     total cpu time spent up to now is    21875.2 secs

     End of self-consistent calculation

          k = 0.0000 0.0000 0.0000 (386245 PWs)   bands (ev):

  -103.0500 -88.4096 -71.3708 -71.3585 -71.3488 -71.3365 -71.3291 -71.3227
   -71.3151 -66.6244 -66.6243 -66.6231 -66.6231 -66.6113 -66.6041 -66.6032
   -66.6031 -66.6031 -66.6031 -66.6031 -66.6031 -66.6031 -66.6031 -66.6030
   -66.6030 -66.6029 -66.6028 -66.6019 -66.6017 -66.6017 -66.6017 -66.6017
   -66.6017 -66.6017 -66.5968 -66.5891 -66.5886 -66.5819 -66.5818 -66.5817
   -66.5817 -66.5817 -66.5817 -66.5817 -66.5817 -66.5817 -66.5817 -66.5817
   -66.5817 -66.5816 -66.5816 -66.5816 -66.5815 -66.5814 -66.5813 -66.5811
   -66.5803 -66.5803 -66.5803 -66.5803 -66.5803 -66.5803 -66.5803 -66.5803
   -66.5803 -66.5785 -66.5723 -66.5656 -66.5588 -66.5556 -66.5512 -66.5443
   -66.5378 -57.2959 -57.2825 -57.2460 -54.2732 -54.2175 -54.1447 -40.9518
   -40.9517 -40.9517 -40.9517 -40.9517 -40.9516 -40.9511 -40.9511 -40.9511
   -40.9433 -40.9418 -40.9361 -40.8765 -40.8764 -40.8764 -40.8764 -40.8764
   -40.8764 -40.8764 -40.8764 -40.8764 -40.8763 -40.8763 -40.8762 -40.8757
   -40.8757 -40.8757 -40.8757 -40.8757 -40.8757 -40.8711 -40.8689 -40.8639
   -40.8599 -40.8452 -40.8436 -40.8044 -40.7840 -40.7840 -40.7834 -40.7804
   -40.7534 -40.7502 -40.7501 -40.7501 -40.7501 -40.7501 -40.7501 -40.7501
   -40.7500 -40.7500 -40.7500 -40.7500 -40.7499 -40.7492 -40.7492 -40.7492
   -40.7492 -40.7492 -40.7492 -40.7479 -40.7466 -40.7451 -40.7443 -40.7425
   -40.7424 -40.7424 -40.7423 -40.7423 -40.7423 -40.7423 -40.7423 -40.7423
   -40.7422 -40.7422 -40.7422 -40.7421 -40.7416 -40.7416 -40.7416 -40.7416
   -40.7416 -40.7416 -40.7413 -40.7351 -40.7307 -40.7285 -40.7152 -40.7152
   -40.7151 -40.7151 -40.7151 -40.7150 -40.7150 -40.7150 -40.7150 -40.7150
   -40.7150 -40.7149 -40.7148 -40.7141 -40.7141 -40.7141 -40.7141 -40.7141
   -40.7141 -40.7140 -40.7128 -40.7089 -40.7084 -40.7023 -40.7008 -40.7006
   -40.7005 -40.7004 -40.7004 -40.7004 -40.7004 -40.7004 -40.7004 -40.7003
   -40.7003 -40.7003 -40.7003 -40.7003 -40.7003 -40.7003 -40.7002 -40.7002
   -40.7000 -40.7000 -40.6996 -40.6996 -40.6996 -40.6996 -40.6996 -40.6996
   -40.6996 -40.6996 -40.6996 -40.6993 -40.6931 -40.6929 -40.6880 -40.6862
   -40.6816 -40.6805 -40.6795 -40.6367 -40.6367 -40.6367 -40.6367 -40.6367
   -40.6366 -40.6357 -40.6357 -40.6357 -40.6253 -40.6229 -40.6199 -40.5897
   -40.5896 -40.5896 -40.5896 -40.5896 -40.5896 -40.5896 -40.5896 -40.5896
   -40.5895 -40.5894 -40.5893 -40.5886 -40.5886 -40.5886 -40.5886 -40.5886
   -40.5886 -40.5754 -40.5742 -40.5688 -40.5680 -40.5633 -40.5607 -40.5420
   -40.5420 -40.5419 -40.5419 -40.5409 -40.5409 -40.5149 -40.5095 -20.1749
   -20.0964 -19.9946 -19.8886 -19.5548 -19.3467 -19.3147 -19.2566 -19.2515
   -19.2483 -19.2377 -19.2329 -19.2308 -19.2065 -19.1957 -19.1866 -19.1510
   -19.1424 -19.1403 -19.1230 -19.1130 -19.1018 -19.0462 -19.0410 -19.0401
   -19.0343 -19.0305 -19.0253 -18.9116 -18.8065 -18.7357 -18.6358 -18.5962
   -18.5612 -18.5094 -18.4984 -18.4793 -18.4708 -18.4491 -18.4360 -18.4203
   -18.4058 -18.3967 -18.3645 -18.3376 -18.3268 -18.2876 -18.2864 -18.2774
   -18.2528 -18.2433 -18.2389 -18.1928 -18.1856 -18.1833 -18.1748 -18.1739
   -18.1726 -18.1450 -18.1275 -18.1229 -18.1220 -18.1202 -18.1192 -18.1185
   -18.1055 -18.0938 -18.0899 -18.0862 -18.0826 -18.0821 -18.0770 -18.0768
   -18.0754 -18.0670 -18.0521 -18.0514 -18.0502 -18.0485 -18.0453 -18.0351
   -18.0300 -18.0295 -18.0165 -18.0111 -18.0058 -18.0053 -18.0011 -17.9991
   -17.9889 -17.9861 -17.9859 -17.9573 -17.9481 -17.9442 -17.9336 -17.9220
   -17.9203 -17.9185 -17.9174 -17.9153 -17.8963 -17.8942 -17.8905 -17.8794
   -17.8758 -17.8718 -17.8696 -17.8670 -17.8636 -17.8586 -17.8576 -17.8567
   -17.8412 -17.8410 -17.8403 -17.8294 -17.8282 -17.8256 -17.8239 -17.8222
   -17.8200 -17.7972 -17.7971 -17.7961 -17.7956 -17.7948 -17.7941 -12.1562
   -12.0198 -11.9331 -11.8781 -11.8091 -11.8003 -11.7856 -11.7742 -11.6844
   -11.6734 -11.6659 -11.5640 -11.5613 -11.5541 -11.5200 -11.4324 -11.3854
   -11.3400 -11.2949 -11.2431 -11.2405 -11.2378 -11.2350 -11.2327 -11.2194
   -11.1597 -11.1491 -11.1348 -11.1335 -11.1315 -11.1266 -11.1208 -11.1175
   -11.0938 -11.0757 -11.0721 -11.0684 -11.0631 -11.0612 -11.0569 -11.0550
   -11.0496 -11.0420 -11.0317 -11.0241 -11.0121 -10.9806 -10.9735 -10.9578
   -10.9523 -10.9461 -10.9354 -10.9157 -10.9065 -10.8985 -10.8947 -10.8913
   -10.8768 -10.8713 -10.8620 -10.8512 -10.8497 -10.8472 -10.8417 -10.8362
   -10.8348 -10.8302 -10.8294 -10.8285 -10.8211 -10.8112 -10.8096 -10.8063
   -10.8053 -10.8039 -10.8018 -10.7822 -10.7817 -10.7773 -10.7758 -10.7719
   -10.7707 -10.7665 -10.7562 -10.7538 -10.7381 -10.7380 -10.7364 -10.7359
   -10.7337 -10.7323 -10.6704 -10.6647 -10.6582 -10.6193 -10.6010 -10.5963
   -10.5856 -10.5804 -10.5783 -10.5438 -10.4809 -10.2753 -10.1944 -10.1722
   -10.1335 -10.0968  -9.9758  -9.9644  -9.9123  -9.8960  -9.8507  -9.8239
    -9.8127  -9.8056  -9.8034  -9.7965  -9.7799  -9.7748  -9.7721  -9.7712
    -9.7681  -9.7636  -9.7616  -9.7569  -9.7527  -9.7497  -9.7465  -9.7416
    -9.7383  -9.7270  -9.7096  -9.6987  -9.6714  -9.6464  -9.6321  -9.6309
    -9.6295  -9.6266  -9.6200  -9.6191  -9.6187  -9.6179  -9.6172  -9.6156
    -9.6138  -9.6106  -9.6017  -9.5778  -9.5555  -9.5419  -9.5417  -9.5415
    -9.5412  -9.5410  -9.5406  -9.5386  -9.5308  -9.5191  -9.5187  -9.5051
    -9.5010  -9.4799  -9.4733  -9.4537  -9.4474  -9.4113  -9.3670  -9.3662
    -9.3648  -9.3585  -9.3476  -9.3406  -9.3340  -9.3326  -9.3243  -9.3140
    -9.3056  -9.2958  -9.2678  -9.2485  -9.2404  -9.2353  -9.2226  -9.2166
    -9.2099  -9.1874  -9.1850  -9.1823  -9.1807  -9.1781  -9.1774  -9.1579
    -9.1365  -9.1337  -9.1239  -9.1044  -9.1006  -9.0696  -9.0489  -9.0132
    -8.9831  -8.9824  -8.9795  -8.9669  -8.9591  -8.9531  -8.9501  -8.9481
    -8.9397  -8.9295  -8.9174  -8.9170  -8.9154  -8.9113  -8.9050  -8.8967
    -8.8856  -8.8821  -8.8662  -8.8215  -8.8214  -8.8211  -8.8210  -8.8207
    -8.8201  -8.7658  -8.7524  -8.7513  -8.7452  -8.7422  -8.7273  -8.7115
    -8.6745  -8.6677  -8.6668  -8.6632  -8.6584  -8.6437  -8.5994  -8.5962
    -8.5926  -8.5915  -8.5905  -8.5869  -8.5546  -8.5371  -8.4525  -8.3968
    -8.3666  -8.3664  -8.3657  -8.3616  -8.3615  -8.3553  -8.3551  -8.3489
    -8.3439  -8.3007  -8.2839  -8.2762  -8.2758  -8.2757  -8.2755  -8.2735
    -8.2682  -8.2507  -8.2493  -8.2490  -8.2485  -8.2460  -8.2428  -8.2231
    -8.2212  -8.2209  -8.2206  -8.2196  -8.2187  -8.2007  -8.1592  -8.1052
    -8.0129  -7.9404  -7.8628  -7.8585  -7.8565  -7.8002  -7.7762  -7.7679
    -7.7524  -7.7117  -7.6974  -7.6885  -7.6496  -7.6460  -7.6429  -7.6371
    -7.6263  -7.6220  -7.6197  -7.6144  -7.6012  -7.5950  -7.5848  -7.5660
    -7.5593  -7.5479  -7.5403  -7.5397  -7.5347  -7.5340  -7.5339  -7.5334
    -7.5298  -7.5225  -7.5088  -7.5085  -7.5070  -7.5065  -7.5049  -7.4991
    -7.4910  -7.4852  -7.4827  -7.4821  -7.4820  -7.4813  -7.4797  -7.4741
    -7.4631  -7.4509  -7.4320  -7.4289  -7.4196  -7.4146  -7.4118  -7.4072
    -7.4067  -7.3998  -7.3636  -7.3530  -7.3505  -7.3327  -7.3260  -7.3171
    -7.3108  -7.3050  -7.2977  -7.2947  -7.2912  -7.2878  -7.2870  -7.2823
    -7.2524  -7.2505  -7.2501  -7.2320  -7.2318  -7.2137  -7.2136  -7.1809
    -7.1472  -7.1458  -7.1074  -7.0987  -7.0848  -7.0697  -7.0481  -6.9854
    -6.9601  -6.9087  -6.8834  -6.8661  -6.8580  -6.8456  -6.8347  -6.7905
    -6.7795  -6.7788  -6.7713  -6.7381  -6.7165  -6.6991  -6.6977  -6.6925
    -6.6729  -6.6380  -6.6318  -6.6282  -6.6226  -6.6216  -6.6111  -6.6093
    -6.5824  -6.5758  -6.5691  -6.5644  -6.5516  -6.5422  -6.5347  -6.5230
    -6.5165  -6.5145  -6.5133  -6.5101  -6.5085  -6.5062  -6.5051  -6.5040
    -6.4975  -6.4974  -6.4972  -6.4971  -6.4968  -6.4965  -6.4859  -6.4732
    -6.4533  -6.4436  -6.4360  -6.4126  -6.4103  -6.4097  -6.4060  -6.3815
    -6.3659  -6.3444  -6.3379  -6.3334  -6.3322  -6.3297  -6.3274  -6.3218
    -6.3119  -6.2989  -6.2940  -6.2889  -6.2877  -6.2850  -6.2788  -6.2656
    -6.2565  -6.2531  -6.2523  -6.2512  -6.2497  -6.2453  -6.2342  -6.1790
    -6.0499  -5.9250  -5.8154  -5.6404  -5.5946  -5.4718  -5.4661  -5.3118
    -5.1508  -4.2204  -3.9406  -3.8520  -3.8510  -3.8466  -3.8436  -3.8305
    -3.8276  -3.8258  -3.8250  -3.8225  -3.8205  -3.8021  -3.7712  -3.7032
    -3.6999  -3.6872  -3.6847  -3.6829  -3.6785  -3.6749  -3.6745  -3.6738
    -3.6706  -3.5786  -3.5501  -3.5176  -3.5105  -3.5065  -3.5004  -3.4914
    -3.4827  -3.4783  -3.4740  -3.4722  -3.4714  -3.4682  -3.4649  -3.4564
    -3.4520  -3.4484  -3.4463  -3.4424  -3.4418  -3.4418  -3.4355  -3.4274
    -3.4269  -3.4257  -3.4169  -3.4125  -3.4112  -3.4101  -3.4070  -3.4064
    -3.4007  -3.3999  -3.3985  -3.3926  -3.3880  -3.3581  -3.3518  -3.3509
    -3.3487  -3.3446  -3.3427  -3.3409  -3.3395  -3.3340  -3.3318  -3.3156
    -3.3071  -3.2910  -3.2864  -3.2836  -3.2821  -3.2802  -3.2699  -3.2558
    -3.2365  -3.2223  -3.2041  -3.2017  -3.1932  -3.0841  -3.0799  -3.0724
    -3.0600  -3.0580  -3.0571  -3.0503  -3.0450  -3.0425  -3.0372  -3.0115
    -3.0022  -2.9951  -2.9755  -2.9733  -2.9722  -2.9705  -2.9699  -2.9663
    -2.9634  -2.9623  -2.9620  -2.9617  -2.9534  -2.9531  -2.9504  -2.9454
    -2.9380  -2.9345  -2.9333  -2.9312  -2.9292  -2.9270  -2.9268  -2.9259
    -2.9258  -2.9194  -2.9162  -2.8918  -2.8871  -2.8835  -2.8701  -2.8649
    -2.8602  -2.8573  -2.8528  -2.8419  -2.8046  -2.8029  -2.8028  -2.8026
    -2.8024  -2.8021  -2.8015  -2.8013  -2.8010  -2.7847  -2.7834  -2.7742
    -2.7570  -2.7455  -2.7354  -2.7315  -2.7265  -2.7157  -2.7143  -2.6703
    -2.6646  -2.6397  -2.6387  -2.6285  -2.6196  -2.6191  -2.6155  -2.6122
    -2.6103  -2.5867  -2.5651  -2.5537  -2.5405  -2.5377  -2.5357  -2.4260
    -2.4163  -2.4114  -2.4060  -2.4040

          k = 0.0000-0.5773 0.0000 (386352 PWs)   bands (ev):

  -103.0500 -88.4096 -71.3708 -71.3585 -71.3488 -71.3365 -71.3291 -71.3227
   -71.3151 -66.6206 -66.6181 -66.6181 -66.6181 -66.6180 -66.6168 -66.6168
   -66.6162 -66.6075 -66.6075 -66.6075 -66.6074 -66.6062 -66.6062 -66.6036
   -66.5994 -66.5960 -66.5928 -66.5925 -66.5924 -66.5924 -66.5924 -66.5924
   -66.5923 -66.5923 -66.5923 -66.5910 -66.5910 -66.5910 -66.5910 -66.5879
   -66.5879 -66.5879 -66.5878 -66.5866 -66.5866 -66.5864 -66.5817 -66.5817
   -66.5817 -66.5817 -66.5816 -66.5816 -66.5816 -66.5815 -66.5814 -66.5803
   -66.5803 -66.5803 -66.5803 -66.5774 -66.5772 -66.5772 -66.5772 -66.5771
   -66.5759 -66.5759 -66.5726 -66.5657 -66.5589 -66.5557 -66.5512 -66.5445
   -66.5376 -57.2959 -57.2825 -57.2460 -54.2732 -54.2175 -54.1447 -40.9220
   -40.9203 -40.9201 -40.9201 -40.9201 -40.9201 -40.9201 -40.9200 -40.9199
   -40.9194 -40.9194 -40.9194 -40.9194 -40.9133 -40.9081 -40.8933 -40.8933
   -40.8933 -40.8932 -40.8926 -40.8926 -40.8906 -40.8890 -40.8843 -40.8812
   -40.8812 -40.8812 -40.8812 -40.8805 -40.8805 -40.8640 -40.8478 -40.8306
   -40.8305 -40.8305 -40.8305 -40.8305 -40.8305 -40.8305 -40.8305 -40.8298
   -40.8298 -40.8298 -40.8298 -40.8168 -40.8138 -40.8088 -40.8029 -40.7949
   -40.7784 -40.7719 -40.7718 -40.7718 -40.7717 -40.7712 -40.7712 -40.7668
   -40.7623 -40.7623 -40.7623 -40.7622 -40.7614 -40.7614 -40.7510 -40.7510
   -40.7509 -40.7509 -40.7504 -40.7503 -40.7503 -40.7444 -40.7419 -40.7403
   -40.7283 -40.7241 -40.7214 -40.7214 -40.7214 -40.7214 -40.7213 -40.7213
   -40.7213 -40.7213 -40.7206 -40.7206 -40.7206 -40.7206 -40.7188 -40.7162
   -40.7127 -40.7126 -40.7126 -40.7126 -40.7119 -40.7119 -40.7098 -40.7039
   -40.7027 -40.7008 -40.7008 -40.7008 -40.7007 -40.7005 -40.7003 -40.7003
   -40.7003 -40.7003 -40.7002 -40.7002 -40.7002 -40.6999 -40.6999 -40.6996
   -40.6996 -40.6996 -40.6996 -40.6981 -40.6941 -40.6916 -40.6916 -40.6916
   -40.6916 -40.6909 -40.6909 -40.6886 -40.6866 -40.6822 -40.6796 -40.6699
   -40.6699 -40.6699 -40.6698 -40.6698 -40.6698 -40.6698 -40.6697 -40.6689
   -40.6689 -40.6689 -40.6689 -40.6600 -40.6595 -40.6544 -40.6497 -40.6351
   -40.6351 -40.6351 -40.6351 -40.6351 -40.6351 -40.6350 -40.6350 -40.6341
   -40.6341 -40.6341 -40.6341 -40.6240 -40.6230 -40.6230 -40.6229 -40.6228
   -40.6220 -40.6220 -40.6186 -40.6131 -40.6100 -40.6038 -40.6037 -40.6036
   -40.6036 -40.6035 -40.6027 -40.6026 -40.5922 -40.5916 -40.5866 -40.5866
   -40.5866 -40.5866 -40.5856 -40.5856 -40.5806 -40.5633 -40.5560 -40.5560
   -40.5560 -40.5558 -40.5549 -40.5549 -40.5471 -40.5417 -40.5190 -20.0200
   -19.8940 -19.8668 -19.8384 -19.7681 -19.7449 -19.6588 -19.6492 -19.4913
   -19.4730 -19.4257 -19.4175 -19.3347 -19.3250 -19.2325 -19.2265 -19.0876
   -18.8935 -18.8606 -18.7782 -18.7490 -18.7423 -18.7241 -18.7204 -18.7199
   -18.7082 -18.6891 -18.6618 -18.6533 -18.6486 -18.6347 -18.6242 -18.5936
   -18.5845 -18.5715 -18.5554 -18.5516 -18.5469 -18.5329 -18.5176 -18.5109
   -18.4861 -18.4792 -18.4730 -18.4689 -18.4400 -18.4119 -18.4090 -18.4025
   -18.3820 -18.3709 -18.3660 -18.3349 -18.3241 -18.3203 -18.2909 -18.2563
   -18.2485 -18.2410 -18.2330 -18.1995 -18.1928 -18.1805 -18.1651 -18.1352
   -18.1213 -18.1168 -18.1106 -18.1037 -18.1009 -18.0975 -18.0966 -18.0886
   -18.0743 -18.0727 -18.0690 -18.0651 -18.0641 -18.0559 -18.0499 -18.0453
   -18.0420 -18.0398 -18.0311 -18.0092 -18.0079 -18.0037 -18.0005 -17.9992
   -17.9952 -17.9942 -17.9896 -17.9858 -17.9772 -17.9471 -17.9436 -17.9360
   -17.9339 -17.9294 -17.9205 -17.8919 -17.8892 -17.8834 -17.8753 -17.8527
   -17.8478 -17.8444 -17.8395 -17.8346 -17.8233 -17.8185 -17.8183 -17.8179
   -17.8168 -17.8161 -17.8137 -17.8038 -17.8020 -17.7844 -17.7819 -17.7602
   -17.7581 -17.7412 -17.7382 -17.7264 -17.7245 -17.7186 -17.7183 -12.0255
   -11.8682 -11.7455 -11.7149 -11.7068 -11.5817 -11.5621 -11.5241 -11.5006
   -11.4983 -11.4937 -11.4828 -11.4802 -11.4747 -11.4581 -11.4074 -11.3996
   -11.3868 -11.3841 -11.3798 -11.3518 -11.3380 -11.3206 -11.3178 -11.2960
   -11.2793 -11.2769 -11.2723 -11.2617 -11.2586 -11.2564 -11.2504 -11.2458
   -11.2117 -11.2033 -11.1968 -11.1918 -11.1861 -11.1717 -11.1688 -11.1657
   -11.1600 -11.1457 -11.1455 -11.1329 -11.1168 -11.0973 -11.0810 -11.0783
   -11.0626 -11.0572 -11.0274 -10.9946 -10.9777 -10.9548 -10.9501 -10.9225
   -10.9149 -10.9120 -10.9062 -10.8908 -10.8641 -10.8472 -10.8361 -10.8350
   -10.8275 -10.8188 -10.8119 -10.8114 -10.8110 -10.8093 -10.8070 -10.8002
   -10.7998 -10.7937 -10.7927 -10.7909 -10.7906 -10.7838 -10.7835 -10.7805
   -10.7744 -10.7435 -10.7430 -10.7420 -10.7412 -10.7015 -10.6295 -10.5633
   -10.5461 -10.5311 -10.5284 -10.5028 -10.4770 -10.4176 -10.3948 -10.3138
   -10.2895 -10.2498 -10.2179 -10.1694 -10.1482 -10.1362 -10.1322 -10.1140
   -10.1093 -10.0930 -10.0850 -10.0568 -10.0521 -10.0350 -10.0342 -10.0311
   -10.0254 -10.0174 -10.0079  -9.9842  -9.9739  -9.9335  -9.9310  -9.9266
    -9.9148  -9.9099  -9.8984  -9.8917  -9.8892  -9.8642  -9.8587  -9.8473
    -9.8391  -9.8089  -9.7962  -9.7817  -9.7780  -9.7667  -9.7638  -9.7450
    -9.7341  -9.7088  -9.7020  -9.6825  -9.6783  -9.6548  -9.6540  -9.6286
    -9.6185  -9.6154  -9.6023  -9.5909  -9.5696  -9.5645  -9.5547  -9.5458
    -9.5361  -9.5325  -9.5258  -9.4957  -9.4907  -9.4881  -9.4741  -9.4723
    -9.4670  -9.4612  -9.4583  -9.4539  -9.4424  -9.4325  -9.4289  -9.3992
    -9.3801  -9.3613  -9.3405  -9.2986  -9.2858  -9.2597  -9.2271  -9.2164
    -9.2104  -9.2040  -9.1955  -9.1877  -9.1754  -9.1567  -9.1493  -9.1342
    -9.1237  -9.1203  -9.1041  -9.0850  -9.0653  -9.0553  -9.0486  -9.0402
    -9.0380  -9.0350  -9.0282  -8.9915  -8.9868  -8.9837  -8.9674  -8.9550
    -8.9481  -8.9471  -8.9387  -8.9277  -8.9090  -8.8965  -8.8904  -8.8879
    -8.8863  -8.8841  -8.8820  -8.8766  -8.8699  -8.8682  -8.8652  -8.8640
    -8.8575  -8.8559  -8.8511  -8.8432  -8.8392  -8.8386  -8.8337  -8.8185
    -8.8097  -8.7921  -8.7907  -8.7883  -8.7854  -8.7836  -8.7816  -8.7621
    -8.7608  -8.7425  -8.7394  -8.7320  -8.7298  -8.7261  -8.7161  -8.7004
    -8.6555  -8.6483  -8.6397  -8.6208  -8.5893  -8.5104  -8.5033  -8.4981
    -8.4526  -8.4400  -8.4114  -8.3908  -8.3553  -8.3422  -8.2953  -8.2818
    -8.2328  -8.2154  -8.1602  -8.1266  -8.1264  -8.1177  -8.1174  -8.1064
    -8.1063  -8.0973  -8.0664  -8.0479  -8.0220  -7.9729  -7.9705  -7.9586
    -7.9373  -7.8942  -7.8739  -7.8477  -7.8434  -7.8396  -7.8344  -7.8286
    -7.8195  -7.8144  -7.8100  -7.8032  -7.8012  -7.7985  -7.7947  -7.7918
    -7.7907  -7.7872  -7.7812  -7.7800  -7.7747  -7.7727  -7.7683  -7.7674
    -7.7643  -7.7637  -7.7615  -7.7587  -7.7573  -7.7568  -7.7443  -7.7385
    -7.7350  -7.7289  -7.7256  -7.7212  -7.7194  -7.6962  -7.6955  -7.6950
    -7.6943  -7.6672  -7.6657  -7.6648  -7.6637  -7.6609  -7.6548  -7.6491
    -7.6418  -7.6319  -7.6164  -7.6097  -7.6070  -7.6048  -7.6027  -7.6005
    -7.5935  -7.5844  -7.5823  -7.5730  -7.5634  -7.5623  -7.5614  -7.5499
    -7.5442  -7.5370  -7.4994  -7.4643  -7.4595  -7.4521  -7.4516  -7.4328
    -7.4094  -7.3589  -7.2920  -7.2184  -7.1898  -7.1744  -7.1688  -7.1684
    -7.1589  -7.1418  -7.1322  -7.1182  -7.1126  -7.1006  -7.0958  -7.0680
    -7.0543  -7.0454  -7.0343  -7.0215  -7.0151  -7.0088  -6.9952  -6.9783
    -6.9748  -6.9636  -6.9412  -6.9138  -6.9075  -6.8913  -6.8841  -6.8810
    -6.8618  -6.8585  -6.8548  -6.8345  -6.8285  -6.8139  -6.7751  -6.7735
    -6.7553  -6.7450  -6.7330  -6.6876  -6.6824  -6.6475  -6.6395  -6.6202
    -6.6170  -6.6102  -6.6048  -6.6042  -6.6018  -6.5983  -6.5889  -6.5866
    -6.5851  -6.5843  -6.5788  -6.5778  -6.5776  -6.5774  -6.5726  -6.5513
    -6.5309  -6.4992  -6.4869  -6.4663  -6.4263  -6.4096  -6.3615  -6.3284
    -6.3208  -6.3181  -6.3144  -6.2982  -6.2931  -6.2802  -6.2758  -6.2750
    -6.2713  -6.2710  -6.2669  -6.2545  -6.2500  -6.2477  -6.2315  -6.2272
    -6.2127  -6.2035  -6.2006  -6.1966  -6.1915  -6.0684  -6.0435  -6.0046
    -5.9841  -5.9717  -5.9442  -5.9150  -5.9029  -5.8556  -5.8497  -5.8417
    -5.7570  -5.7268  -5.6817  -5.6425  -5.6021  -5.5922  -5.5534  -5.4556
    -5.3990  -4.2595  -4.1017  -4.0912  -4.0872  -4.0619  -3.9650  -3.9268
    -3.9242  -3.9165  -3.9088  -3.8633  -3.8403  -3.8394  -3.8255  -3.8231
    -3.8091  -3.8070  -3.7972  -3.7964  -3.7951  -3.7417  -3.7189  -3.6864
    -3.6812  -3.6470  -3.6119  -3.6002  -3.5989  -3.5978  -3.5948  -3.5522
    -3.5511  -3.5489  -3.5376  -3.5243  -3.5183  -3.5150  -3.5100  -3.5066
    -3.4971  -3.4812  -3.4788  -3.4735  -3.4696  -3.4678  -3.4675  -3.4596
    -3.4448  -3.4445  -3.4335  -3.4217  -3.4178  -3.4164  -3.4037  -3.3787
    -3.3702  -3.3543  -3.3460  -3.3447  -3.3420  -3.3416  -3.3379  -3.3360
    -3.3129  -3.2991  -3.2928  -3.2879  -3.2831  -3.2801  -3.2772  -3.2742
    -3.2719  -3.2673  -3.2564  -3.2448  -3.2394  -3.2347  -3.2298  -3.2275
    -3.2250  -3.2134  -3.2096  -3.2055  -3.1993  -3.1912  -3.1803  -3.1764
    -3.1694  -3.1676  -3.1636  -3.1591  -3.1590  -3.1491  -3.1406  -3.1209
    -3.0949  -3.0886  -3.0736  -3.0675  -3.0659  -3.0620  -3.0559  -3.0248
    -3.0226  -3.0202  -3.0200  -3.0183  -3.0168  -3.0108  -3.0093  -3.0083
    -3.0037  -3.0009  -2.9978  -2.9877  -2.9840  -2.9828  -2.9754  -2.9737
    -2.9718  -2.9674  -2.9646  -2.9579  -2.9552  -2.9449  -2.9439  -2.9404
    -2.9388  -2.9322  -2.9276  -2.9209  -2.9106  -2.8970  -2.8933  -2.8831
    -2.8824  -2.8781  -2.8720  -2.8590  -2.8403  -2.7959  -2.7927  -2.7864
    -2.7829  -2.7464  -2.7268  -2.7119  -2.7051  -2.6183  -2.6077  -2.5871
    -2.5747  -2.5638  -2.5498  -2.5436  -2.5413  -2.5262  -2.5238  -2.5234
    -2.5217  -2.5170  -2.4955  -2.4110  -2.4069  -2.3966  -2.3911  -2.3850
    -2.3758  -2.3621  -2.3534  -2.3389

          k =-0.5000-0.2887 0.0000 (386352 PWs)   bands (ev):

  -103.0500 -88.4096 -71.3708 -71.3585 -71.3488 -71.3365 -71.3291 -71.3227
   -71.3151 -66.6217 -66.6182 -66.6181 -66.6181 -66.6180 -66.6168 -66.6168
   -66.6134 -66.6075 -66.6075 -66.6075 -66.6074 -66.6062 -66.6062 -66.6051
   -66.6012 -66.5969 -66.5925 -66.5924 -66.5924 -66.5924 -66.5924 -66.5924
   -66.5922 -66.5922 -66.5910 -66.5910 -66.5910 -66.5910 -66.5892 -66.5880
   -66.5879 -66.5879 -66.5878 -66.5866 -66.5866 -66.5866 -66.5818 -66.5817
   -66.5817 -66.5817 -66.5817 -66.5817 -66.5817 -66.5816 -66.5814 -66.5803
   -66.5803 -66.5803 -66.5803 -66.5777 -66.5772 -66.5772 -66.5772 -66.5771
   -66.5759 -66.5759 -66.5731 -66.5654 -66.5589 -66.5559 -66.5511 -66.5444
   -66.5377 -57.2959 -57.2825 -57.2460 -54.2732 -54.2175 -54.1447 -40.9273
   -40.9202 -40.9201 -40.9201 -40.9201 -40.9201 -40.9201 -40.9201 -40.9199
   -40.9194 -40.9194 -40.9194 -40.9194 -40.9110 -40.9024 -40.8933 -40.8933
   -40.8933 -40.8932 -40.8926 -40.8926 -40.8920 -40.8856 -40.8812 -40.8812
   -40.8812 -40.8812 -40.8806 -40.8805 -40.8805 -40.8679 -40.8526 -40.8306
   -40.8306 -40.8305 -40.8305 -40.8305 -40.8305 -40.8305 -40.8305 -40.8298
   -40.8298 -40.8298 -40.8298 -40.8165 -40.8158 -40.8138 -40.8033 -40.7917
   -40.7786 -40.7719 -40.7718 -40.7718 -40.7717 -40.7712 -40.7712 -40.7656
   -40.7623 -40.7623 -40.7623 -40.7622 -40.7614 -40.7614 -40.7520 -40.7510
   -40.7510 -40.7509 -40.7509 -40.7503 -40.7503 -40.7431 -40.7416 -40.7370
   -40.7281 -40.7224 -40.7215 -40.7214 -40.7214 -40.7214 -40.7213 -40.7213
   -40.7212 -40.7212 -40.7210 -40.7207 -40.7206 -40.7206 -40.7206 -40.7130
   -40.7127 -40.7126 -40.7126 -40.7125 -40.7119 -40.7119 -40.7109 -40.7050
   -40.7026 -40.7008 -40.7008 -40.7008 -40.7007 -40.7004 -40.7004 -40.7004
   -40.7003 -40.7003 -40.7003 -40.7003 -40.7000 -40.6999 -40.6999 -40.6996
   -40.6996 -40.6996 -40.6996 -40.6987 -40.6942 -40.6916 -40.6916 -40.6916
   -40.6916 -40.6909 -40.6909 -40.6875 -40.6855 -40.6817 -40.6798 -40.6700
   -40.6699 -40.6698 -40.6698 -40.6698 -40.6698 -40.6697 -40.6697 -40.6689
   -40.6689 -40.6689 -40.6689 -40.6643 -40.6588 -40.6540 -40.6443 -40.6351
   -40.6351 -40.6351 -40.6351 -40.6351 -40.6351 -40.6350 -40.6350 -40.6341
   -40.6341 -40.6341 -40.6341 -40.6243 -40.6230 -40.6230 -40.6229 -40.6228
   -40.6220 -40.6220 -40.6172 -40.6153 -40.6122 -40.6045 -40.6037 -40.6036
   -40.6036 -40.6035 -40.6027 -40.6026 -40.5897 -40.5879 -40.5866 -40.5866
   -40.5866 -40.5866 -40.5856 -40.5856 -40.5855 -40.5665 -40.5560 -40.5560
   -40.5559 -40.5559 -40.5549 -40.5549 -40.5478 -40.5438 -40.5147 -20.0299
   -19.8875 -19.8669 -19.8272 -19.7678 -19.7361 -19.6584 -19.6463 -19.5207
   -19.4738 -19.4287 -19.4181 -19.3368 -19.3256 -19.2329 -19.2268 -19.0737
   -18.8760 -18.8550 -18.7739 -18.7644 -18.7419 -18.7243 -18.7207 -18.7195
   -18.7099 -18.6962 -18.6614 -18.6537 -18.6456 -18.6398 -18.6246 -18.5854
   -18.5808 -18.5710 -18.5535 -18.5477 -18.5465 -18.5454 -18.5206 -18.4953
   -18.4854 -18.4822 -18.4765 -18.4670 -18.4359 -18.4119 -18.4108 -18.4012
   -18.3971 -18.3743 -18.3571 -18.3329 -18.3228 -18.3191 -18.3115 -18.2610
   -18.2458 -18.2349 -18.2313 -18.2128 -18.1942 -18.1749 -18.1632 -18.1492
   -18.1237 -18.1151 -18.1098 -18.1010 -18.1010 -18.0984 -18.0968 -18.0747
   -18.0733 -18.0728 -18.0699 -18.0664 -18.0638 -18.0601 -18.0483 -18.0460
   -18.0403 -18.0323 -18.0314 -18.0115 -18.0074 -18.0019 -17.9997 -17.9992
   -17.9956 -17.9908 -17.9886 -17.9854 -17.9756 -17.9530 -17.9407 -17.9358
   -17.9323 -17.9218 -17.9196 -17.8934 -17.8895 -17.8764 -17.8749 -17.8561
   -17.8486 -17.8402 -17.8396 -17.8368 -17.8315 -17.8191 -17.8181 -17.8174
   -17.8171 -17.8162 -17.8159 -17.8036 -17.8030 -17.7838 -17.7830 -17.7597
   -17.7587 -17.7406 -17.7390 -17.7262 -17.7250 -17.7185 -17.7184 -12.0675
   -11.8768 -11.7220 -11.7117 -11.6691 -11.5729 -11.5228 -11.5158 -11.5060
   -11.5001 -11.4902 -11.4800 -11.4746 -11.4575 -11.4432 -11.4311 -11.4018
   -11.3932 -11.3851 -11.3588 -11.3517 -11.3395 -11.3274 -11.3211 -11.3085
   -11.2899 -11.2804 -11.2759 -11.2638 -11.2584 -11.2577 -11.2542 -11.2486
   -11.2132 -11.2055 -11.1998 -11.1921 -11.1861 -11.1704 -11.1680 -11.1670
   -11.1571 -11.1493 -11.1452 -11.1427 -11.1211 -11.1180 -11.0832 -11.0699
   -11.0689 -11.0479 -11.0342 -10.9929 -10.9756 -10.9629 -10.9397 -10.9333
   -10.9234 -10.9035 -10.8974 -10.8849 -10.8718 -10.8412 -10.8360 -10.8319
   -10.8297 -10.8280 -10.8148 -10.8116 -10.8109 -10.8096 -10.8091 -10.7990
   -10.7969 -10.7959 -10.7924 -10.7901 -10.7899 -10.7845 -10.7824 -10.7802
   -10.7686 -10.7453 -10.7427 -10.7420 -10.7405 -10.7320 -10.6685 -10.5446
   -10.5424 -10.5347 -10.5288 -10.4960 -10.4710 -10.4128 -10.3791 -10.3172
   -10.2679 -10.2456 -10.2033 -10.1708 -10.1521 -10.1426 -10.1206 -10.1146
   -10.1085 -10.0963 -10.0860 -10.0593 -10.0509 -10.0393 -10.0381 -10.0277
   -10.0242 -10.0164 -10.0124 -10.0055  -9.9768  -9.9450  -9.9370  -9.9203
    -9.9180  -9.9147  -9.9030  -9.8970  -9.8922  -9.8777  -9.8699  -9.8472
    -9.8252  -9.8153  -9.8048  -9.7952  -9.7772  -9.7720  -9.7646  -9.7465
    -9.7247  -9.7223  -9.7073  -9.6964  -9.6745  -9.6615  -9.6571  -9.6275
    -9.6243  -9.6151  -9.6045  -9.5794  -9.5612  -9.5511  -9.5495  -9.5443
    -9.5389  -9.5335  -9.5192  -9.4913  -9.4885  -9.4846  -9.4772  -9.4734
    -9.4620  -9.4582  -9.4561  -9.4403  -9.4326  -9.4271  -9.4256  -9.3770
    -9.3660  -9.3364  -9.3211  -9.3006  -9.2921  -9.2592  -9.2183  -9.2151
    -9.2103  -9.2051  -9.1930  -9.1805  -9.1699  -9.1553  -9.1508  -9.1328
    -9.1287  -9.1157  -9.1019  -9.0931  -9.0640  -9.0637  -9.0568  -9.0389
    -9.0334  -9.0329  -9.0239  -9.0035  -9.0024  -8.9845  -8.9592  -8.9561
    -8.9509  -8.9471  -8.9381  -8.9228  -8.9178  -8.9002  -8.8908  -8.8894
    -8.8875  -8.8838  -8.8818  -8.8796  -8.8763  -8.8729  -8.8680  -8.8664
    -8.8575  -8.8509  -8.8434  -8.8420  -8.8391  -8.8386  -8.8253  -8.8230
    -8.8051  -8.7928  -8.7902  -8.7894  -8.7834  -8.7813  -8.7808  -8.7627
    -8.7568  -8.7398  -8.7328  -8.7306  -8.7278  -8.7252  -8.7145  -8.7023
    -8.6578  -8.6525  -8.6331  -8.6201  -8.5822  -8.5038  -8.5016  -8.4777
    -8.4509  -8.4391  -8.4366  -8.3685  -8.3527  -8.3279  -8.3199  -8.3109
    -8.2700  -8.2321  -8.1331  -8.1266  -8.1257  -8.1176  -8.1162  -8.1062
    -8.1059  -8.1023  -8.0654  -8.0523  -8.0322  -8.0169  -7.9715  -7.9665
    -7.9362  -7.8923  -7.8828  -7.8430  -7.8406  -7.8353  -7.8286  -7.8216
    -7.8177  -7.8117  -7.8063  -7.8033  -7.8003  -7.7984  -7.7918  -7.7901
    -7.7876  -7.7851  -7.7820  -7.7801  -7.7794  -7.7686  -7.7684  -7.7663
    -7.7651  -7.7638  -7.7612  -7.7586  -7.7574  -7.7551  -7.7447  -7.7394
    -7.7373  -7.7354  -7.7272  -7.7249  -7.7169  -7.7150  -7.6965  -7.6948
    -7.6943  -7.6939  -7.6723  -7.6653  -7.6649  -7.6635  -7.6633  -7.6513
    -7.6452  -7.6268  -7.6114  -7.6073  -7.6057  -7.6039  -7.5964  -7.5949
    -7.5918  -7.5849  -7.5823  -7.5641  -7.5632  -7.5620  -7.5558  -7.5498
    -7.5416  -7.5386  -7.4646  -7.4574  -7.4568  -7.4488  -7.4478  -7.4301
    -7.4083  -7.3572  -7.2878  -7.2669  -7.1940  -7.1721  -7.1671  -7.1657
    -7.1591  -7.1519  -7.1216  -7.1154  -7.1063  -7.1029  -7.0936  -7.0787
    -7.0482  -7.0442  -7.0264  -7.0238  -7.0202  -7.0116  -6.9763  -6.9746
    -6.9558  -6.9453  -6.9317  -6.9202  -6.9141  -6.8958  -6.8819  -6.8740
    -6.8690  -6.8585  -6.8540  -6.8426  -6.8347  -6.7888  -6.7849  -6.7589
    -6.7460  -6.7423  -6.7073  -6.6867  -6.6787  -6.6564  -6.6421  -6.6403
    -6.6182  -6.6136  -6.6052  -6.6037  -6.6031  -6.6020  -6.5950  -6.5866
    -6.5860  -6.5854  -6.5842  -6.5778  -6.5777  -6.5776  -6.5773  -6.5648
    -6.5264  -6.5044  -6.4849  -6.4501  -6.4166  -6.3946  -6.3505  -6.3293
    -6.3234  -6.3221  -6.3146  -6.3090  -6.3032  -6.2894  -6.2765  -6.2758
    -6.2723  -6.2716  -6.2707  -6.2625  -6.2552  -6.2481  -6.2260  -6.2221
    -6.2180  -6.2064  -6.2023  -6.1955  -6.1946  -6.1679  -6.0627  -5.9904
    -5.9877  -5.9452  -5.9284  -5.9136  -5.8694  -5.8629  -5.8439  -5.8347
    -5.7578  -5.7510  -5.6561  -5.6366  -5.5954  -5.5805  -5.5459  -5.4572
    -5.3978  -4.2370  -4.1087  -4.0853  -4.0847  -4.0549  -3.9740  -3.9286
    -3.9207  -3.9106  -3.9059  -3.8568  -3.8412  -3.8386  -3.8294  -3.8226
    -3.8143  -3.8070  -3.7997  -3.7958  -3.7907  -3.7523  -3.7146  -3.6903
    -3.6742  -3.6385  -3.6173  -3.6047  -3.6010  -3.5968  -3.5967  -3.5673
    -3.5512  -3.5491  -3.5426  -3.5298  -3.5188  -3.5138  -3.5120  -3.5103
    -3.4883  -3.4849  -3.4804  -3.4756  -3.4716  -3.4701  -3.4635  -3.4577
    -3.4455  -3.4450  -3.4387  -3.4275  -3.4203  -3.4164  -3.4124  -3.3964
    -3.3597  -3.3543  -3.3470  -3.3441  -3.3413  -3.3375  -3.3370  -3.3352
    -3.3210  -3.3051  -3.2895  -3.2849  -3.2837  -3.2790  -3.2777  -3.2745
    -3.2732  -3.2672  -3.2500  -3.2438  -3.2415  -3.2367  -3.2323  -3.2285
    -3.2252  -3.2101  -3.2086  -3.2052  -3.2005  -3.1861  -3.1834  -3.1796
    -3.1730  -3.1710  -3.1604  -3.1588  -3.1588  -3.1546  -3.1349  -3.1218
    -3.0911  -3.0825  -3.0732  -3.0722  -3.0647  -3.0587  -3.0555  -3.0305
    -3.0241  -3.0206  -3.0193  -3.0182  -3.0166  -3.0120  -3.0110  -3.0054
    -3.0017  -3.0009  -2.9985  -2.9868  -2.9857  -2.9827  -2.9806  -2.9752
    -2.9710  -2.9646  -2.9628  -2.9607  -2.9544  -2.9444  -2.9437  -2.9398
    -2.9383  -2.9325  -2.9268  -2.9213  -2.9073  -2.8986  -2.8947  -2.8824
    -2.8778  -2.8735  -2.8717  -2.8605  -2.8386  -2.7983  -2.7953  -2.7835
    -2.7825  -2.7427  -2.7243  -2.7156  -2.7055  -2.6168  -2.6073  -2.5891
    -2.5735  -2.5703  -2.5532  -2.5486  -2.5416  -2.5317  -2.5253  -2.5231
    -2.5216  -2.5131  -2.5005  -2.4341  -2.4047  -2.3995  -2.3907  -2.3858
    -2.3839  -2.3623  -2.3595  -2.3416

          k =-0.5000-0.8660 0.0000 (386352 PWs)   bands (ev):

  -103.0500 -88.4096 -71.3708 -71.3585 -71.3488 -71.3365 -71.3291 -71.3227
   -71.3151 -66.6201 -66.6182 -66.6181 -66.6181 -66.6180 -66.6169 -66.6168
   -66.6168 -66.6075 -66.6075 -66.6075 -66.6074 -66.6062 -66.6062 -66.6040
   -66.5984 -66.5962 -66.5924 -66.5924 -66.5924 -66.5924 -66.5924 -66.5923
   -66.5923 -66.5923 -66.5915 -66.5910 -66.5910 -66.5910 -66.5910 -66.5880
   -66.5879 -66.5879 -66.5879 -66.5878 -66.5866 -66.5866 -66.5818 -66.5818
   -66.5817 -66.5817 -66.5817 -66.5817 -66.5816 -66.5816 -66.5815 -66.5803
   -66.5803 -66.5803 -66.5803 -66.5775 -66.5772 -66.5772 -66.5772 -66.5771
   -66.5759 -66.5759 -66.5719 -66.5659 -66.5588 -66.5555 -66.5514 -66.5445
   -66.5376 -57.2959 -57.2825 -57.2460 -54.2732 -54.2175 -54.1447 -40.9201
   -40.9201 -40.9201 -40.9201 -40.9201 -40.9201 -40.9200 -40.9200 -40.9194
   -40.9194 -40.9194 -40.9194 -40.9167 -40.9164 -40.9067 -40.8938 -40.8933
   -40.8933 -40.8933 -40.8932 -40.8926 -40.8926 -40.8898 -40.8857 -40.8812
   -40.8812 -40.8812 -40.8812 -40.8805 -40.8805 -40.8666 -40.8450 -40.8306
   -40.8305 -40.8305 -40.8305 -40.8305 -40.8305 -40.8305 -40.8305 -40.8298
   -40.8298 -40.8298 -40.8298 -40.8208 -40.8114 -40.8053 -40.8007 -40.7959
   -40.7750 -40.7719 -40.7718 -40.7718 -40.7717 -40.7714 -40.7712 -40.7712
   -40.7623 -40.7623 -40.7623 -40.7622 -40.7614 -40.7614 -40.7516 -40.7510
   -40.7510 -40.7509 -40.7509 -40.7503 -40.7503 -40.7442 -40.7402 -40.7367
   -40.7290 -40.7258 -40.7222 -40.7214 -40.7214 -40.7214 -40.7214 -40.7213
   -40.7213 -40.7213 -40.7213 -40.7206 -40.7206 -40.7206 -40.7206 -40.7172
   -40.7127 -40.7126 -40.7126 -40.7125 -40.7119 -40.7119 -40.7074 -40.7044
   -40.7008 -40.7008 -40.7008 -40.7007 -40.7004 -40.7004 -40.7003 -40.7003
   -40.7003 -40.7003 -40.7002 -40.7002 -40.7001 -40.6999 -40.6999 -40.6996
   -40.6996 -40.6996 -40.6996 -40.6985 -40.6941 -40.6916 -40.6916 -40.6916
   -40.6916 -40.6909 -40.6909 -40.6886 -40.6865 -40.6829 -40.6791 -40.6700
   -40.6698 -40.6698 -40.6698 -40.6698 -40.6698 -40.6697 -40.6696 -40.6689
   -40.6689 -40.6689 -40.6689 -40.6595 -40.6580 -40.6547 -40.6535 -40.6351
   -40.6351 -40.6351 -40.6351 -40.6351 -40.6351 -40.6350 -40.6350 -40.6341
   -40.6341 -40.6341 -40.6341 -40.6263 -40.6230 -40.6230 -40.6229 -40.6229
   -40.6220 -40.6220 -40.6173 -40.6134 -40.6113 -40.6038 -40.6036 -40.6036
   -40.6034 -40.6027 -40.6026 -40.6005 -40.5949 -40.5921 -40.5866 -40.5866
   -40.5866 -40.5865 -40.5856 -40.5856 -40.5771 -40.5652 -40.5560 -40.5560
   -40.5560 -40.5559 -40.5549 -40.5549 -40.5435 -40.5411 -40.5215 -20.0241
   -19.8906 -19.8669 -19.8333 -19.7681 -19.7411 -19.6587 -19.6480 -19.5196
   -19.4640 -19.4288 -19.4126 -19.3368 -19.3221 -19.2328 -19.2256 -19.0746
   -18.8915 -18.8518 -18.7889 -18.7547 -18.7411 -18.7242 -18.7207 -18.7195
   -18.7127 -18.6884 -18.6601 -18.6552 -18.6514 -18.6323 -18.6235 -18.6022
   -18.5777 -18.5730 -18.5550 -18.5525 -18.5460 -18.5311 -18.5245 -18.5107
   -18.4814 -18.4783 -18.4735 -18.4671 -18.4406 -18.4125 -18.4060 -18.4056
   -18.3842 -18.3807 -18.3507 -18.3333 -18.3214 -18.3170 -18.2831 -18.2590
   -18.2534 -18.2450 -18.2307 -18.1996 -18.1968 -18.1841 -18.1646 -18.1350
   -18.1230 -18.1156 -18.1119 -18.1022 -18.1006 -18.0979 -18.0968 -18.0880
   -18.0732 -18.0718 -18.0684 -18.0658 -18.0637 -18.0555 -18.0495 -18.0476
   -18.0414 -18.0395 -18.0308 -18.0099 -18.0080 -18.0043 -18.0007 -17.9979
   -17.9964 -17.9939 -17.9886 -17.9858 -17.9771 -17.9480 -17.9454 -17.9365
   -17.9336 -17.9285 -17.9195 -17.8920 -17.8907 -17.8831 -17.8741 -17.8522
   -17.8485 -17.8435 -17.8376 -17.8348 -17.8241 -17.8188 -17.8180 -17.8179
   -17.8170 -17.8159 -17.8138 -17.8039 -17.8022 -17.7847 -17.7819 -17.7604
   -17.7580 -17.7414 -17.7381 -17.7265 -17.7244 -17.7186 -17.7183 -12.0435
   -11.8641 -11.7308 -11.7095 -11.6892 -11.5943 -11.5466 -11.5155 -11.5084
   -11.4986 -11.4961 -11.4854 -11.4715 -11.4676 -11.4457 -11.4285 -11.4117
   -11.3904 -11.3817 -11.3631 -11.3507 -11.3375 -11.3323 -11.3192 -11.3099
   -11.2828 -11.2777 -11.2712 -11.2613 -11.2597 -11.2568 -11.2542 -11.2480
   -11.2127 -11.2050 -11.2025 -11.1934 -11.1838 -11.1692 -11.1683 -11.1667
   -11.1570 -11.1464 -11.1455 -11.1370 -11.1224 -11.1075 -11.0791 -11.0678
   -11.0615 -11.0533 -11.0322 -10.9997 -10.9662 -10.9564 -10.9351 -10.9268
   -10.9203 -10.9021 -10.8976 -10.8894 -10.8779 -10.8609 -10.8360 -10.8341
   -10.8300 -10.8204 -10.8131 -10.8112 -10.8107 -10.8095 -10.8081 -10.8058
   -10.7967 -10.7949 -10.7931 -10.7912 -10.7905 -10.7837 -10.7832 -10.7803
   -10.7785 -10.7434 -10.7428 -10.7421 -10.7417 -10.6924 -10.6616 -10.5430
   -10.5386 -10.5295 -10.5268 -10.4897 -10.4676 -10.3981 -10.3784 -10.3322
   -10.2948 -10.2593 -10.2479 -10.1639 -10.1546 -10.1315 -10.1306 -10.1134
   -10.1039 -10.0899 -10.0818 -10.0555 -10.0465 -10.0364 -10.0322 -10.0278
   -10.0267 -10.0151 -10.0100  -9.9911  -9.9720  -9.9459  -9.9310  -9.9235
    -9.9144  -9.9060  -9.8985  -9.8914  -9.8813  -9.8725  -9.8575  -9.8529
    -9.8278  -9.8166  -9.7999  -9.7822  -9.7791  -9.7656  -9.7632  -9.7394
    -9.7334  -9.7194  -9.6946  -9.6875  -9.6779  -9.6554  -9.6522  -9.6203
    -9.6177  -9.6144  -9.5984  -9.5940  -9.5688  -9.5679  -9.5479  -9.5447
    -9.5396  -9.5328  -9.5191  -9.4927  -9.4902  -9.4878  -9.4726  -9.4699
    -9.4653  -9.4605  -9.4577  -9.4539  -9.4375  -9.4337  -9.4226  -9.3979
    -9.3735  -9.3615  -9.3463  -9.3039  -9.2801  -9.2573  -9.2389  -9.2176
    -9.2150  -9.2083  -9.2007  -9.1955  -9.1636  -9.1575  -9.1460  -9.1376
    -9.1240  -9.1132  -9.1014  -9.0908  -9.0898  -9.0627  -9.0492  -9.0421
    -9.0333  -9.0313  -9.0239  -9.0013  -8.9863  -8.9770  -8.9750  -8.9551
    -8.9486  -8.9460  -8.9384  -8.9253  -8.9152  -8.8944  -8.8898  -8.8892
    -8.8883  -8.8848  -8.8768  -8.8725  -8.8697  -8.8680  -8.8652  -8.8609
    -8.8564  -8.8550  -8.8515  -8.8444  -8.8390  -8.8385  -8.8339  -8.8232
[...]
     atom  170 type  1   force =    -0.00001469   -0.00001347    0.00000653
     atom  171 type  2   force =    -0.00000522    0.00000219    0.00000473
     atom  172 type  2   force =    -0.00000180    0.00000237    0.00161525
     atom  173 type  2   force =    -0.00000187    0.00000187   -0.00235921
     atom  174 type  2   force =    -0.00000708   -0.00000100   -0.00000265
     atom  175 type  1   force =    -0.00000779   -0.00000823    0.00002110
     atom  176 type  1   force =     0.00005887    0.00002557    0.00002793
     atom  177 type  2   force =     0.00005364    0.00003964   -0.00003575
     atom  178 type  2   force =    -0.00001331    0.00000078    0.00000116
     atom  179 type  2   force =     0.00000044   -0.00000704    0.00001689
     atom  180 type  2   force =    -0.00002232   -0.00001297   -0.00012617
     atom  181 type  1   force =    -0.00000005    0.00000163    0.00068827
     atom  182 type  1   force =    -0.00001177   -0.00000824    0.00000079
     atom  183 type  2   force =    -0.00000356    0.00000049    0.00000479
     atom  184 type  2   force =    -0.00000182    0.00000231    0.00161533
     atom  185 type  2   force =    -0.00000195    0.00000185   -0.00235926
     atom  186 type  2   force =    -0.00000535   -0.00000181   -0.00000006
     atom  187 type  1   force =    -0.00000667    0.00000284    0.00004799
     atom  188 type  1   force =     0.00001256    0.00001036   -0.00008400
     atom  189 type  2   force =    -0.00014139   -0.00009853    0.00011491
     atom  190 type  2   force =    -0.00000008   -0.00000715    0.00000502
     atom  191 type  2   force =    -0.00001304    0.00000236    0.00001842
     atom  192 type  2   force =     0.00010239   -0.00006659    0.00001257
     atom  193 type  3   force =     0.00027028    0.00019653    0.00064664
     atom  194 type  4   force =     0.00021062   -0.00062190   -0.00057459

     Total force =     0.002048     Total SCF correction =     0.000640
     SCF correction compared to forces is large: reduce conv_thr to get better values
     Energy error            =      5.5E-06 Ry
     Gradient error          =      7.5E-04 Ry/Bohr

     bfgs converged in  23 scf cycles and  22 bfgs steps
     (criteria: energy <  1.0E-04 Ry, force <  1.0E-03 Ry/Bohr)

     End of BFGS Geometry Optimization

     Final energy             =  -33980.2984979898 Ry

     File ./outdir/pwscf.bfgs deleted, as requested
Begin final coordinates

ATOMIC_POSITIONS (angstrom)
Mo               0.0000119917        1.8193638619       -9.1672481230    0   0   0
Mo               1.5756136568        0.9097075315       -3.0554901653    0   0   0
S                0.0000188998        1.8193822938       -4.6232556019    0   0   0
S                1.5756321638        0.9096773839       -7.6014065489    0   0   0
S                1.5756326175        0.9096785128      -10.7330757790    0   0   0
S                0.0000189190        1.8193860094       -1.4877129945    0   0   0
Mo               0.0000699763        1.8194125442        3.0566481601
Mo               1.5736952773        0.9022851561        9.1715929481
S                0.0024717169        1.8025133332        7.5765994575
S                1.5761977672        0.9098265751        4.6239216641
S                1.5756908864        0.9099217785        1.4886276288
S               -0.0217741041        1.7985016961       10.7230396107
Mo              -1.5756053507        4.5484193819       -9.1672481230    0   0   0
Mo               0.0000378379        3.6387394919       -3.0554952701    0   0   0
S               -1.5755913433        4.5484363582       -4.6232494962    0   0   0
S                0.0000148214        3.6387329039       -7.6014065489    0   0   0
S                0.0000152751        3.6387340328      -10.7330757790    0   0   0
S               -1.5755906502        4.5484413613       -1.4877305502    0   0   0
Mo              -1.5754933155        4.5485188401        3.0565589325
Mo              -0.0453910154        3.6115203211        9.1494355955
S               -1.5894670125        4.5567343186        7.5788570042
S                0.0003225746        3.6390066649        4.6247059955
S                0.0001013559        3.6387584091        1.4889137388
S               -1.5985678692        4.5385577250       10.7244495751
Mo              -3.1512226931        7.2774749019       -9.1672481230    0   0   0
Mo              -1.5755910988        6.3678216792       -3.0555115988    0   0   0
S               -3.1512162438        7.2774954350       -4.6232578178    0   0   0
S               -1.5756025210        6.3677884239       -7.6014065489    0   0   0
S               -1.5756020673        6.3677895528      -10.7330757790    0   0   0
S               -3.1512127704        7.2774877076       -1.4877200710    0   0   0
Mo              -3.1509666747        7.2775198237        3.0562383535
Mo              -1.5862347136        6.3669341574        9.1733417950
S               -3.1427510416        7.2809724934        7.5912060991
S               -1.5748388645        6.3682373164        4.6239380927
S               -1.5754263341        6.3677066786        1.4884588760
S               -3.1634567176        7.2775515570       10.7336302409
Mo              -4.7268400355       10.0065304219       -9.1672481230    0   0   0
Mo              -3.1512405618        9.0968403586       -3.0554816746    0   0   0
S               -4.7268341792       10.0065523623       -4.6232463762    0   0   0
S               -3.1512198634        9.0968439439       -7.6014065489    0   0   0
S               -3.1512194097        9.0968450728      -10.7330757790    0   0   0
S               -4.7268370797       10.0065537885       -1.4877176751    0   0   0
Mo              -4.7266927777       10.0066340768        3.0561407788
Mo              -3.1492049764        9.0973923821        9.1651206131
S               -4.7196978703       10.0102888599        7.5930683521
S               -3.1510435891        9.0969099674        4.6238007755
S               -3.1510077971        9.0969473661        1.4884878618
S               -4.7302267146        9.9979609837       10.7341802481
Mo               3.1512517547        1.8193638619       -9.1672481230    0   0   0
Mo               4.7269020221        0.9097289540       -3.0554823951    0   0   0
S                3.1512612351        1.8193882564       -4.6232320683    0   0   0
S                4.7268719268        0.9096773839       -7.6014065489    0   0   0
S                4.7268723805        0.9096785128      -10.7330757790    0   0   0
S                3.1512592485        1.8193890201       -1.4877261251    0   0   0
Mo               3.1513578610        1.8196617310        3.0564319275
Mo               4.7296073687        0.9017404792        9.1767286181
S                3.1554039509        1.8327997261        7.6278585041
S                4.7266862103        0.9098093408        4.6245072306
S                4.7268396533        0.9097070996        1.4887285364
S                3.1572878200        1.7431134083       10.7962199771
Mo               1.5756344123        4.5484193819       -9.1672481230    0   0   0
Mo               3.1512756394        3.6387769522       -3.0554814834    0   0   0
S                1.5756504879        4.5484423799       -4.6232390542    0   0   0
S                3.1512545844        3.6387329039       -7.6014065489    0   0   0
S                3.1512550381        3.6387340328      -10.7330757790    0   0   0
S                1.5756466253        4.5484431864       -1.4877251801    0   0   0
Mo               1.5757657849        4.5485113676        3.0567157531
Mo               3.1611778435        3.6202974737        9.2107510603
S                1.5858636525        4.5596690433        7.6618716662
S                3.1509064671        3.6388065581        4.6252593274
S                3.1513057304        3.6389341313        1.4888828724
S                1.4661526133        4.4384346334       10.7644272135
Mo               0.0000170699        7.2774749019       -9.1672481230    0   0   0
Mo               1.5756764447        6.3678236689       -3.0554877708    0   0   0
S                0.0000381981        7.2774979204       -4.6232454413    0   0   0
S                1.5756372420        6.3677884239       -7.6014065489    0   0   0
S                1.5756376957        6.3677895528      -10.7330757790    0   0   0
S                0.0000328088        7.2774946042       -1.4877307940    0   0   0
Mo               0.0004494394        7.2772959174        3.0560937752
Mo               1.5686946426        6.3761896217        9.2182622758
S                0.0215696542        7.2701986297        7.6418012803
S                1.5754984296        6.3675596716        4.6251502888
S                1.5758874538        6.3674662347        1.4885506774
S               -0.0937178088        7.3341500153       10.8211863597
Mo              -1.5756002725       10.0065304219       -9.1672481230    0   0   0
Mo               0.0000873425        9.0968676911       -3.0554912329    0   0   0
S               -1.5755883952       10.0065504530       -4.6232240150    0   0   0
S                0.0000198996        9.0968439439       -7.6014065489    0   0   0
S                0.0000203533        9.0968450728      -10.7330757790    0   0   0
S               -1.5755859047       10.0065492576       -1.4877362381    0   0   0
Mo              -1.5754042693       10.0065167235        3.0565414202
Mo              -0.0051276514        9.1067658960        9.1810714631
S               -1.5703494704       10.0083668317        7.6000121405
S                0.0002115927        9.0962043367        4.6243970186
S                0.0000306393        9.0967933693        1.4884965928
S               -1.5826865359       10.0064728755       10.7470557521
Mo               6.3024915177        1.8193638619       -9.1672481230    0   0   0
Mo               7.8781001445        0.9096521684       -3.0554919963    0   0   0
S                6.3025008696        1.8193826232       -4.6232480596    0   0   0
S                7.8781116898        0.9096773839       -7.6014065489    0   0   0
S                7.8781121435        0.9096785128      -10.7330757790    0   0   0
S                6.3025042007        1.8193849068       -1.4877147524    0   0   0
Mo               6.3022468020        1.8193927556        3.0565539054
Mo               7.8773386445        0.9085515409        9.1626204034
S                6.2982294427        1.8161946661        7.5972747791
S                7.8779090605        0.9094682496        4.6237263889
S                7.8776693545        0.9094872550        1.4884113127
S                6.3103017303        1.8197482080       10.7352934801
Mo               4.7268741753        4.5484193819       -9.1672481230    0   0   0
Mo               6.3024679138        3.6387501714       -3.0554895197    0   0   0
S                4.7268748770        4.5484386753       -4.6232519432    0   0   0
S                6.3024943474        3.6387329039       -7.6014065489    0   0   0
S                6.3024948011        3.6387340328      -10.7330757790    0   0   0
S                4.7268770533        4.5484432419       -1.4877137856    0   0   0
Mo               4.7265254919        4.5484369788        3.0570448421
Mo               6.3182378651        3.6367934236        9.1669331454
S                4.7157721969        4.5429823386        7.6320845161
S                6.3021153792        3.6387470679        4.6245229897
S                6.3020207809        3.6388552051        1.4888724948
S                4.8087232185        4.5860389034       10.7703958827
Mo               3.1512568329        7.2774749019       -9.1672481230    0   0   0
Mo               4.7268384135        6.3678043337       -3.0554959052    0   0   0
S                3.1512606125        7.2774972547       -4.6232589675    0   0   0
S                4.7268770050        6.3677884239       -7.6014065489    0   0   0
S                4.7268774587        6.3677895528      -10.7330757790    0   0   0
S                3.1512629079        7.2774963749       -1.4877081835    0   0   0
Mo               3.1510180327        7.2770645719        3.0567494999
Mo               4.7539560792        6.3781127906        9.1792029085
S                3.1361654386        7.2652861482        7.6444293340
S                4.7263971612        6.3676788889        4.6251813337
S                4.7267977543        6.3676152432        1.4890764504
S                3.2625113307        7.3486916583       10.7972632609
Mo               1.5756394905       10.0065304219       -9.1672481230    0   0   0
Mo               3.1512330605        9.0968514907       -3.0554878870    0   0   0
S                1.5756499830       10.0065443759       -4.6232632674    0   0   0
S                3.1512596626        9.0968439439       -7.6014065489    0   0   0
S                3.1512601163        9.0968450728      -10.7330757790    0   0   0
S                1.5756503041       10.0065459699       -1.4877044377    0   0   0
Mo               1.5754963743       10.0062330528        3.0563962846
Mo               3.1573815025        9.1140471322        9.1699653254
S                1.5706935494       10.0023782494        7.5988971665
S                3.1508804847        9.0962422727        4.6243443857
S                3.1510895769        9.0964074988        1.4886553274
S                1.5799925865       10.0135888190       10.7374753008
Mo               9.4537312807        1.8193638619       -9.1672481230    0   0   0
Mo              11.0293863460        0.9096952246       -3.0554894007    0   0   0
S                9.4537395970        1.8193770750       -4.6232328036    0   0   0
S               11.0293514528        0.9096773839       -7.6014065489    0   0   0
S               11.0293519066        0.9096785128      -10.7330757790    0   0   0
S                9.4537393632        1.8193794783       -1.4877366147    0   0   0
Mo               9.4534163715        1.8192355910        3.0557056383
Mo              11.0263865449        0.9026453900        9.1452037118
S                9.4447934984        1.8148328809        7.5819068330
S               11.0287033007        0.9096135117        4.6234997666
S               11.0294749696        0.9095467338        1.4884790858
S                9.4557444957        1.8188215442       10.7192173177
Mo               7.8781139383        4.5484193819       -9.1672481230    0   0   0
Mo               9.4537539161        3.6387607911       -3.0554933032    0   0   0
S                7.8781175448        4.5484378232       -4.6232366318    0   0   0
S                9.4537341104        3.6387329039       -7.6014065489    0   0   0
S                9.4537345641        3.6387340328      -10.7330757790    0   0   0
S                7.8781194018        4.5484411585       -1.4877377057    0   0   0
Mo               7.8778523084        4.5483822184        3.0563328055
Mo               9.4470754571        3.6380627760        9.1490599577
S                7.8729152769        4.5486063410        7.5826581241
S                9.4534756064        3.6383524810        4.6234196327
S                9.4536820650        3.6390028378        1.4884472234
S                7.8915496508        4.5513942259       10.7274497647
Mo               6.3024965959        7.2774749019       -9.1672481230    0   0   0
Mo               7.8781361655        6.3678242352       -3.0555014130    0   0   0
S                6.3024973331        7.2774953556       -4.6232392528    0   0   0
S                7.8781167680        6.3677884239       -7.6014065489    0   0   0
S                7.8781172217        6.3677895528      -10.7330757790    0   0   0
S                6.3024989866        7.2774929744       -1.4877349119    0   0   0
Mo               6.3023224507        7.2773759548        3.0567252376
Mo               7.8829235293        6.3697781751        9.1533532918
S                6.3048555547        7.2786780994        7.5860710647
S                7.8783892798        6.3677558470        4.6238931615
S                7.8779604917        6.3678796439        1.4887050479
S                6.3342885217        7.2922549543       10.7331523848
Mo               4.7268792535       10.0065304219       -9.1672481230    0   0   0
Mo               6.3025111524        9.0968738021       -3.0554915260    0   0   0
S                4.7268840634       10.0065452125       -4.6232380477    0   0   0
S                6.3024994256        9.0968439439       -7.6014065489    0   0   0
S                6.3024998793        9.0968450728      -10.7330757790    0   0   0
S                4.7268847312       10.0065459141       -1.4877283294    0   0   0
Mo               4.7266290162       10.0062659262        3.0562876784
Mo               6.3069891196        9.0988346615        9.1556701178
S                4.7254993112        9.9984865147        7.5818575462
S                6.3025805090        9.0970557363        4.6237687860
S                6.3024662896        9.0966475277        1.4886345632
S                4.7382708168       10.0201450953       10.7275868760
Pt               1.6452472094        6.2859723556       12.0357239733
Pd               3.1152132324        3.7719032509       12.1814518810
End final coordinates



     Writing all to output data dir ./outdir/pwscf.save/ :
     XML data file, charge density, pseudopotentials, collected wavefunctions
 
     init_run     :    171.60s CPU    174.69s WALL (       1 calls)
     electrons    : 175608.21s CPU 177814.06s WALL (      23 calls)
     update_pot   :     36.72s CPU     37.98s WALL (      22 calls)
     forces       :   2940.86s CPU   2993.57s WALL (      23 calls)
     force_dftd3  :     15.34s CPU     16.02s WALL (      23 calls)

     Called by init_run:
     wfcinit      :    147.92s CPU    149.62s WALL (       1 calls)
     potinit      :      1.28s CPU      1.39s WALL (       1 calls)
     hinit0       :     12.75s CPU     12.83s WALL (       1 calls)

     Called by electrons:
     c_bands      : 155310.15s CPU 156791.33s WALL (     287 calls)
     sum_band     :  18150.16s CPU  18532.16s WALL (     287 calls)
     v_of_rho     :    103.21s CPU    116.17s WALL (     290 calls)
     newd         :   1820.48s CPU   2156.32s WALL (     290 calls)
     PAW_pot      :    267.38s CPU    270.12s WALL (     312 calls)
     mix_rho      :     27.21s CPU     31.56s WALL (     287 calls)
     energy_dftd3 :      8.81s CPU      8.85s WALL (      23 calls)

     Called by c_bands:
     init_us_2    :    618.65s CPU    621.79s WALL (    2480 calls)
     init_us_2:cp :    618.63s CPU    621.78s WALL (    2480 calls)
     cegterg      : 152765.33s CPU 154230.07s WALL (    1168 calls)

     Called by *egterg:
     cdiaghg      :   8998.96s CPU   9314.51s WALL (   14301 calls)
     h_psi        :  76684.52s CPU  77172.41s WALL (   14473 calls)
     s_psi        :  17033.54s CPU  17144.26s WALL (   14473 calls)
     g_psi        :    141.54s CPU    142.25s WALL (   13301 calls)

     Called by h_psi:
     h_psi:calbec :  17345.74s CPU  17406.48s WALL (   14473 calls)
     vloc_psi     :  41965.29s CPU  42172.58s WALL (   14473 calls)
     add_vuspsi   :  17052.35s CPU  17164.28s WALL (   14473 calls)

     General routines
     calbec       :  24922.71s CPU  25010.61s WALL (   16077 calls)
     fft          :    111.44s CPU    122.98s WALL (    4019 calls)
     ffts         :      5.27s CPU      5.68s WALL (     577 calls)
     fftw         :  31795.14s CPU  31950.28s WALL ( 8298824 calls)
     interpolate  :      9.09s CPU      9.98s WALL (     290 calls)
 
     Parallel routines
 
     PWSCF        :   2d 1h54m CPU   2d 2h33m WALL

 
   This run was terminated on:  22:15:31  14Mar2024            

=------------------------------------------------------------------------------=
   JOB DONE.
=------------------------------------------------------------------------------=
