
     Program PWSCF v.7.3 starts on 22Apr2024 at  7:34:56 

     This program is part of the open-source Quantum ESPRESSO suite
     for quantum simulation of materials; please cite
         "P. Giannozzi et al., J. Phys.:Condens. Matter 21 395502 (2009);
         "P. Giannozzi et al., J. Phys.:Condens. Matter 29 465901 (2017);
         "P. Giannozzi et al., J. Chem. Phys. 152 154105 (2020);
          URL http://www.quantum-espresso.org", 
     in publications or presentations arising from this work. More details at
     http://www.quantum-espresso.org/quote

     Parallel version (MPI & OpenMP), running on      36 processor cores
     Number of MPI processes:                36
     Threads/MPI process:                     1

     MPI processes distributed on     1 nodes
     553769 MiB available memory on the printing compute node when the environment starts
 
     Waiting for input...
     Reading input from standard input
Warning: card &CELL ignored
Warning: card / ignored

     Current dimensions of program PWSCF are:
     Max number of different atomic species (ntypx) = 10
     Max number of k-points (npk) =  40000
     Max angular momentum in pseudopotentials (lmaxx) =  4
     file Mo.pbe-spn-kjpaw_psl.1.0.0.UPF: wavefunction(s)  4S 4D renormalized
     file S.pbe-n-kjpaw_psl.1.0.0.UPF: wavefunction(s)  3S 3P renormalized
     file Pt.pbe-spfn-kjpaw_psl.1.0.0.UPF: wavefunction(s)  5P 4F renormalized
     file Pd.pbe-spn-kjpaw_psl.1.0.0.UPF: wavefunction(s)  4S 5S 4D renormalized
 
     R & G space division:  proc/nbgrp/npool/nimage =      36
     Subspace diagonalization in iterative solution of the eigenvalue problem:
     one sub-group per band group will be used
     scalapack distributed-memory algorithm (size of sub-group:  6*  6 procs)

 
     Parallelization info
     --------------------
     sticks:   dense  smooth     PW     G-vecs:    dense   smooth      PW
     Min         585     334     89               198743    85850   11735
     Max         586     335     90               198750    85861   11748
     Sum       21073   12049   3205              7154885  3090769  422587
 
     Using Slab Decomposition
 


     bravais-lattice index     =            0
     lattice parameter (alat)  =      23.8199  a.u.
     unit-cell volume          =   33861.0370 (a.u.)^3
     number of atoms/cell      =          195
     number of atomic types    =            4
     number of electrons       =      1746.00
     number of Kohn-Sham states=         1048
     kinetic-energy cutoff     =      77.0000  Ry
     charge density cutoff     =     539.0000  Ry
     scf convergence threshold =      1.0E-06
     mixing beta               =       0.2000
     number of iterations used =            8  plain     mixing
     energy convergence thresh.=      1.0E-04
     force convergence thresh. =      1.0E-03
     Exchange-correlation= SLA  PW   PBX  PBC
                           (   1   4   3   4   0   0   0)
     nstep                     =         1000


     Effective Screening Medium Method
     =================================
     Boundary Conditions: Vacuum-Slab-Vacuum
     total charge in unit cell        =   0.0000
     grid points for fit at edges     =        4 
 

     celldm(1)=  23.819920  celldm(2)=   0.000000  celldm(3)=   0.000000
     celldm(4)=   0.000000  celldm(5)=   0.000000  celldm(6)=   0.000000

     crystal axes: (cart. coord. in units of alat)
               a(1) = (   1.000000   0.000000   0.000000 )  
               a(2) = (  -0.499999   0.866026   0.000000 )  
               a(3) = (   0.000000   0.000000   2.893000 )  

     reciprocal axes: (cart. coord. in units 2 pi/alat)
               b(1) = (  1.000000  0.577349  0.000000 )  
               b(2) = (  0.000000  1.154700  0.000000 )  
               b(3) = (  0.000000  0.000000  0.345662 )  


     PseudoPot. # 1 for Mo read from file:
     ./pseudo/Mo.pbe-spn-kjpaw_psl.1.0.0.UPF
     MD5 check sum: 317bf72632116215fd98f72de1686f13
     Pseudo is Projector augmented-wave + core cor, Zval = 14.0
     Generated using 'atomic' code by A. Dal Corso  v.7.2
     Shape of augmentation charge: PSQ
     Using radial grid of 1229 points,  6 beta functions with: 
                l(1) =   0
                l(2) =   0
                l(3) =   1
                l(4) =   1
                l(5) =   2
                l(6) =   2
     Q(r) pseudized with 0 coefficients 


     PseudoPot. # 2 for S  read from file:
     ./pseudo/S.pbe-n-kjpaw_psl.1.0.0.UPF
     MD5 check sum: 8b7b5302570d38d5e87fed6a1065abda
     Pseudo is Projector augmented-wave + core cor, Zval =  6.0
     Generated using 'atomic' code by A. Dal Corso  v.7.2
     Shape of augmentation charge: PSQ
     Using radial grid of 1151 points,  6 beta functions with: 
                l(1) =   0
                l(2) =   0
                l(3) =   1
                l(4) =   1
                l(5) =   2
                l(6) =   2
     Q(r) pseudized with 0 coefficients 


     PseudoPot. # 3 for Pt read from file:
     ./pseudo/Pt.pbe-spfn-kjpaw_psl.1.0.0.UPF
     MD5 check sum: 620096ebf4e6ebacc94de60fd67efcb5
     Pseudo is Projector augmented-wave + core cor, Zval = 32.0
     Generated using 'atomic' code by A. Dal Corso  v.7.2
     Shape of augmentation charge: PSQ
     Using radial grid of 1277 points,  8 beta functions with: 
                l(1) =   0
                l(2) =   0
                l(3) =   1
                l(4) =   1
                l(5) =   2
                l(6) =   2
                l(7) =   3
                l(8) =   3
     Q(r) pseudized with 0 coefficients 


     PseudoPot. # 4 for Pd read from file:
     ./pseudo/Pd.pbe-spn-kjpaw_psl.1.0.0.UPF
     MD5 check sum: a60571a671f2502b8a6a4569d20a6edb
     Pseudo is Projector augmented-wave + core cor, Zval = 18.0
     Generated using 'atomic' code by A. Dal Corso  v.7.2
     Shape of augmentation charge: PSQ
     Using radial grid of 1235 points,  6 beta functions with: 
                l(1) =   0
                l(2) =   0
                l(3) =   1
                l(4) =   1
                l(5) =   2
                l(6) =   2
     Q(r) pseudized with 0 coefficients 


     atomic species   valence    mass     pseudopotential
     Mo               14.00    95.95000     Mo( 1.00)
     S                 6.00    32.06000     S ( 1.00)
     Pt               32.00   195.08400     Pt( 1.00)
     Pd               18.00   106.42000     Pd( 1.00)

     No symmetry found



   Cartesian axes

     site n.     atom                  positions (alat units)
         1        Mo     tau(   1) = (   0.0000010   0.1443372  -0.7272732  )
         2        Mo     tau(   2) = (   0.1249995   0.0721706  -0.2424038  )
         3        S      tau(   3) = (   0.0000015   0.1443386  -0.3667807  )
         4        S      tau(   4) = (   0.1250010   0.0721682  -0.6030489  )
         5        S      tau(   5) = (   0.1250010   0.0721683  -0.8514963  )
         6        S      tau(   6) = (   0.0000015   0.1443389  -0.1180260  )
         7        Mo     tau(   7) = (   0.0000005   0.1443381   0.2424561  )
         8        Mo     tau(   8) = (   0.1251981   0.0716023   0.7276027  )
         9        S      tau(   9) = (  -0.0003031   0.1454842   0.6052312  )
        10        S      tau(  10) = (   0.1249558   0.0721599   0.3668208  )
        11        S      tau(  11) = (   0.1250088   0.0721517   0.1180857  )
        12        S      tau(  12) = (  -0.0004157   0.1382876   0.8564685  )
        13        Mo     tau(  13) = (  -0.1249989   0.3608437  -0.7272732  )
        14        Mo     tau(  14) = (   0.0000030   0.2886752  -0.2424042  )
        15        S      tau(  15) = (  -0.1249977   0.3608450  -0.3667802  )
        16        S      tau(  16) = (   0.0000012   0.2886747  -0.6030489  )
        17        S      tau(  17) = (   0.0000012   0.2886748  -0.8514963  )
        18        S      tau(  18) = (  -0.1249977   0.3608454  -0.1180274  )
        19        Mo     tau(  19) = (  -0.1249623   0.3608201   0.2425155  )
        20        Mo     tau(  20) = (  -0.0007801   0.2872696   0.7308518  )
        21        S      tau(  21) = (  -0.1240398   0.3604107   0.6055268  )
        22        S      tau(  22) = (   0.0000411   0.2886546   0.3669163  )
        23        S      tau(  23) = (   0.0000035   0.2886726   0.1180964  )
        24        S      tau(  24) = (  -0.1315418   0.3638985   0.8543850  )
        25        Mo     tau(  25) = (  -0.2499987   0.5773502  -0.7272732  )
        26        Mo     tau(  26) = (  -0.1249977   0.5051839  -0.2424055  )
        27        S      tau(  27) = (  -0.2499981   0.5773518  -0.3667809  )
        28        S      tau(  28) = (  -0.1249986   0.5051812  -0.6030489  )
        29        S      tau(  29) = (  -0.1249986   0.5051813  -0.8514963  )
        30        S      tau(  30) = (  -0.2499979   0.5773512  -0.1180266  )
        31        Mo     tau(  31) = (  -0.2499787   0.5773156   0.2425145  )
        32        Mo     tau(  32) = (  -0.1271807   0.5060660   0.7281741  )
        33        S      tau(  33) = (  -0.2502658   0.5775034   0.6017985  )
        34        S      tau(  34) = (  -0.1249543   0.5051367   0.3669386  )
        35        S      tau(  35) = (  -0.1249864   0.5051552   0.1181399  )
        36        S      tau(  36) = (  -0.2525628   0.5785576   0.8514793  )
        37        Mo     tau(  37) = (  -0.3749985   0.7938567  -0.7272732  )
        38        Mo     tau(  38) = (  -0.2500001   0.7216874  -0.2424031  )
        39        S      tau(  39) = (  -0.3749980   0.7938584  -0.3667800  )
        40        S      tau(  40) = (  -0.2499984   0.7216877  -0.6030489  )
        41        S      tau(  41) = (  -0.2499984   0.7216878  -0.8514963  )
        42        S      tau(  42) = (  -0.3749982   0.7938585  -0.1180264  )
        43        Mo     tau(  43) = (  -0.3750043   0.7938372   0.2424536  )
        44        Mo     tau(  44) = (  -0.2503619   0.7218808   0.7263407  )
        45        S      tau(  45) = (  -0.3755748   0.7941519   0.6023691  )
        46        S      tau(  46) = (  -0.2500067   0.7216811   0.3668312  )
        47        S      tau(  47) = (  -0.2499793   0.7216445   0.1181126  )
        48        S      tau(  48) = (  -0.3746959   0.7932047   0.8515893  )
        49        Mo     tau(  49) = (   0.2500010   0.1443372  -0.7272732  )
        50        Mo     tau(  50) = (   0.3750034   0.0721723  -0.2424032  )
        51        S      tau(  51) = (   0.2500017   0.1443391  -0.3667788  )
        52        S      tau(  52) = (   0.3750010   0.0721682  -0.6030489  )
        53        S      tau(  53) = (   0.3750010   0.0721683  -0.8514963  )
        54        S      tau(  54) = (   0.2500016   0.1443391  -0.1180271  )
        55        Mo     tau(  55) = (   0.2500033   0.1443124   0.2424881  )
        56        Mo     tau(  56) = (   0.3752595   0.0716472   0.7255395  )
        57        S      tau(  57) = (   0.2498544   0.1431280   0.6011361  )
        58        S      tau(  58) = (   0.3750516   0.0721435   0.3668117  )
        59        S      tau(  59) = (   0.3750079   0.0721203   0.1180977  )
        60        S      tau(  60) = (   0.2517312   0.1427646   0.8506906  )
        61        Mo     tau(  61) = (   0.1250012   0.3608437  -0.7272732  )
        62        Mo     tau(  62) = (   0.2500029   0.2886782  -0.2424031  )
        63        S      tau(  63) = (   0.1250024   0.3608455  -0.3667794  )
        64        S      tau(  64) = (   0.2500012   0.2886747  -0.6030489  )
        65        S      tau(  65) = (   0.2500012   0.2886748  -0.8514963  )
        66        S      tau(  66) = (   0.1250021   0.3608455  -0.1180270  )
        67        Mo     tau(  67) = (   0.1249995   0.3608273   0.2424838  )
        68        Mo     tau(  68) = (   0.2535704   0.2866116   0.7259154  )
        69        S      tau(  69) = (   0.1241106   0.3617788   0.6079553  )
        70        S      tau(  70) = (   0.2499752   0.2886689   0.3668869  )
        71        S      tau(  71) = (   0.2500098   0.2886475   0.1181123  )
        72        S      tau(  72) = (   0.1336503   0.3523048   0.8541313  )
        73        Mo     tau(  73) = (   0.0000014   0.5773502  -0.7272732  )
        74        Mo     tau(  74) = (   0.1250045   0.5051840  -0.2424036  )
        75        S      tau(  75) = (   0.0000030   0.5773520  -0.3667799  )
        76        S      tau(  76) = (   0.1250014   0.5051812  -0.6030489  )
        77        S      tau(  77) = (   0.1250014   0.5051813  -0.8514963  )
        78        S      tau(  78) = (   0.0000026   0.5773517  -0.1180274  )
        79        Mo     tau(  79) = (   0.0000276   0.5772927   0.2425177  )
        80        Mo     tau(  80) = (   0.1255270   0.5059369   0.7313762  )
        81        S      tau(  81) = (   0.0011816   0.5764663   0.6064450  )
        82        S      tau(  82) = (   0.1250222   0.5051261   0.3669341  )
        83        S      tau(  83) = (   0.1249880   0.5051467   0.1180950  )
        84        S      tau(  84) = (  -0.0088763   0.5830479   0.8565830  )
        85        Mo     tau(  85) = (  -0.1249984   0.7938567  -0.7272732  )
        86        Mo     tau(  86) = (   0.0000069   0.7216896  -0.2424039  )
        87        S      tau(  87) = (  -0.1249975   0.7938582  -0.3667782  )
        88        S      tau(  88) = (   0.0000016   0.7216877  -0.6030489  )
        89        S      tau(  89) = (   0.0000016   0.7216878  -0.8514963  )
        90        S      tau(  90) = (  -0.1249973   0.7938582  -0.1180279  )
        91        Mo     tau(  91) = (  -0.1249699   0.7938095   0.2424907  )
        92        Mo     tau(  92) = (  -0.0004895   0.7231014   0.7275053  )
        93        S      tau(  93) = (  -0.1248847   0.7932555   0.6014963  )
        94        S      tau(  94) = (   0.0000405   0.7216116   0.3668908  )
        95        S      tau(  95) = (   0.0000242   0.7216332   0.1181249  )
        96        S      tau(  96) = (  -0.1259194   0.7949777   0.8510667  )
        97        Mo     tau(  97) = (   0.5000010   0.1443372  -0.7272732  )
        98        Mo     tau(  98) = (   0.6250001   0.0721662  -0.2424040  )
        99        S      tau(  99) = (   0.5000017   0.1443386  -0.3667801  )
       100        S      tau( 100) = (   0.6250010   0.0721682  -0.6030489  )
       101        S      tau( 101) = (   0.6250010   0.0721683  -0.8514963  )
       102        S      tau( 102) = (   0.5000020   0.1443388  -0.1180261  )
       103        Mo     tau( 103) = (   0.5000355   0.1442968   0.2424343  )
       104        Mo     tau( 104) = (   0.6251054   0.0720760   0.7269638  )
       105        S      tau( 105) = (   0.5007812   0.1439212   0.6015111  )
       106        S      tau( 106) = (   0.6250309   0.0721295   0.3668346  )
       107        S      tau( 107) = (   0.6250410   0.0721183   0.1180973  )
       108        S      tau( 108) = (   0.4998652   0.1442971   0.8504179  )
       109        Mo     tau( 109) = (   0.3750012   0.3608437  -0.7272732  )
       110        Mo     tau( 110) = (   0.4999991   0.2886761  -0.2424038  )
       111        S      tau( 111) = (   0.3750012   0.3608452  -0.3667804  )
       112        S      tau( 112) = (   0.5000012   0.2886747  -0.6030489  )
       113        S      tau( 113) = (   0.5000012   0.2886748  -0.8514963  )
       114        S      tau( 114) = (   0.3750014   0.3608455  -0.1180261  )
       115        Mo     tau( 115) = (   0.3749988   0.3608207   0.2424913  )
       116        Mo     tau( 116) = (   0.5005676   0.2886014   0.7258090  )
       117        S      tau( 117) = (   0.3761076   0.3615161   0.6013079  )
       118        S      tau( 118) = (   0.5000282   0.2886169   0.3668001  )
       119        S      tau( 119) = (   0.5000158   0.2886613   0.1180928  )
       120        S      tau( 120) = (   0.3768791   0.3600665   0.8508100  )
       121        Mo     tau( 121) = (   0.2500014   0.5773502  -0.7272732  )
       122        Mo     tau( 122) = (   0.3749983   0.5051825  -0.2424043  )
       123        S      tau( 123) = (   0.2500017   0.5773519  -0.3667810  )
       124        S      tau( 124) = (   0.3750014   0.5051812  -0.6030489  )
       125        S      tau( 125) = (   0.3750014   0.5051813  -0.8514963  )
       126        S      tau( 126) = (   0.2500018   0.5773519  -0.1180256  )
       127        Mo     tau( 127) = (   0.2499755   0.5773110   0.2424609  )
       128        Mo     tau( 128) = (   0.3758691   0.5051374   0.7277779  )
       129        S      tau( 129) = (   0.2483182   0.5768077   0.6062789  )
       130        S      tau( 130) = (   0.3749464   0.5051844   0.3668408  )
       131        S      tau( 131) = (   0.3749944   0.5051486   0.1180923  )
       132        S      tau( 132) = (   0.2574557   0.5818559   0.8585037  )
       133        Mo     tau( 133) = (   0.1250016   0.7938567  -0.7272732  )
       134        Mo     tau( 134) = (   0.2499995   0.7216883  -0.2424036  )
       135        S      tau( 135) = (   0.1250024   0.7938578  -0.3667813  )
       136        S      tau( 136) = (   0.2500016   0.7216877  -0.6030489  )
       137        S      tau( 137) = (   0.2500016   0.7216878  -0.8514963  )
       138        S      tau( 138) = (   0.1250024   0.7938579  -0.1180253  )
       139        Mo     tau( 139) = (   0.1250229   0.7938069   0.2425006  )
       140        Mo     tau( 140) = (   0.2504358   0.7224862   0.7284223  )
       141        S      tau( 141) = (   0.1254429   0.7935457   0.6029055  )
       142        S      tau( 142) = (   0.2500049   0.7216116   0.3668842  )
       143        S      tau( 143) = (   0.2500022   0.7216616   0.1181021  )
       144        S      tau( 144) = (   0.1246626   0.7944127   0.8519137  )
       145        Mo     tau( 145) = (   0.7500010   0.1443372  -0.7272732  )
       146        Mo     tau( 146) = (   0.8750038   0.0721696  -0.2424038  )
       147        S      tau( 147) = (   0.7500016   0.1443382  -0.3667789  )
       148        S      tau( 148) = (   0.8750010   0.0721682  -0.6030489  )
       149        S      tau( 149) = (   0.8750010   0.0721683  -0.8514963  )
       150        S      tau( 150) = (   0.7500016   0.1443384  -0.1180279  )
       151        Mo     tau( 151) = (   0.7500289   0.1443141   0.2424936  )
       152        Mo     tau( 152) = (   0.8748115   0.0715393   0.7280420  )
       153        S      tau( 153) = (   0.7503587   0.1440662   0.6027403  )
       154        S      tau( 154) = (   0.8750369   0.0721618   0.3668742  )
       155        S      tau( 155) = (   0.8750002   0.0721408   0.1181001  )
       156        S      tau( 156) = (   0.7494385   0.1444101   0.8516821  )
       157        Mo     tau( 157) = (   0.6250012   0.3608437  -0.7272732  )
       158        Mo     tau( 158) = (   0.7500028   0.2886769  -0.2424041  )
       159        S      tau( 159) = (   0.6250015   0.3608451  -0.3667792  )
       160        S      tau( 160) = (   0.7500012   0.2886747  -0.6030489  )
       161        S      tau( 161) = (   0.7500012   0.2886748  -0.8514963  )
       162        S      tau( 162) = (   0.6250016   0.3608454  -0.1180280  )
       163        Mo     tau( 163) = (   0.6250302   0.3608127   0.2424760  )
       164        Mo     tau( 164) = (   0.7487590   0.2885376   0.7272130  )
       165        S      tau( 165) = (   0.6254237   0.3608917   0.6015174  )
       166        S      tau( 166) = (   0.7500486   0.2886525   0.3668797  )
       167        S      tau( 167) = (   0.7500385   0.2886557   0.1181169  )
       168        S      tau( 168) = (   0.6239430   0.3610912   0.8510113  )
       169        Mo     tau( 169) = (   0.5000014   0.5773502  -0.7272732  )
       170        Mo     tau( 170) = (   0.6250029   0.5051841  -0.2424047  )
       171        S      tau( 171) = (   0.5000014   0.5773518  -0.3667794  )
       172        S      tau( 172) = (   0.6250014   0.5051812  -0.6030489  )
       173        S      tau( 173) = (   0.6250014   0.5051813  -0.8514963  )
       174        S      tau( 174) = (   0.5000016   0.5773516  -0.1180277  )
       175        Mo     tau( 175) = (   0.4999859   0.5773250   0.2424709  )
       176        Mo     tau( 176) = (   0.6245890   0.5053660   0.7261562  )
       177        S      tau( 177) = (   0.4993068   0.5776651   0.6022414  )
       178        S      tau( 178) = (   0.6249823   0.5051501   0.3668388  )
       179        S      tau( 179) = (   0.6250205   0.5051637   0.1181147  )
       180        S      tau( 180) = (   0.5009766   0.5773609   0.8515797  )
       181        Mo     tau( 181) = (   0.3750016   0.7938567  -0.7272732  )
       182        Mo     tau( 182) = (   0.5000025   0.7216901  -0.2424039  )
       183        S      tau( 183) = (   0.3750019   0.7938578  -0.3667793  )
       184        S      tau( 184) = (   0.5000016   0.7216877  -0.6030489  )
       185        S      tau( 185) = (   0.5000016   0.7216878  -0.8514963  )
       186        S      tau( 186) = (   0.3750020   0.7938579  -0.1180272  )
       187        Mo     tau( 187) = (   0.3749951   0.7938323   0.2424893  )
       188        Mo     tau( 188) = (   0.4998599   0.7217391   0.7271366  )
       189        S      tau( 189) = (   0.3746033   0.7939741   0.6029663  )
       190        S      tau( 190) = (   0.4999946   0.7216688   0.3668260  )
       191        S      tau( 191) = (   0.4999891   0.7216628   0.1180901  )
       192        S      tau( 192) = (   0.3755955   0.7938624   0.8526444  )
       193        Pt     tau( 193) = (   0.1194898   0.4990527   0.9549993  )
       194        Pd     tau( 194) = (   0.0026419   0.2990244   0.9662205  )
       195        Pt     tau( 195) = (   0.7487529   0.2885372   0.9733471  )

     --------------------------------------------
     DFT-D3 Dispersion Correction (3-body terms):
     --------------------------------------------
       Reference C6 values for interpolation: 

         atom   Coordination number   C6
         S          0.000           268.01
         S          0.995           261.99
         S          1.990           251.62
         Mo         0.000          1691.79
         Mo         1.942          1004.01
         Mo        11.056           674.22
         Pd         0.000          1217.01
         Pd         1.863           573.90
         Pd         5.710           531.75
         Pt         0.000           782.29
         Pt         1.919           692.72
         Pt         6.667           673.75

       Values used:

         atom   Coordination number  R0_AB[au]  C6      C8
         Mo        10.208            3.547    674.22  77634.20
         Mo        10.221            3.547    674.22  77634.20
         S          3.858            3.128    251.62  12327.25
         S          3.859            3.128    251.62  12327.25
         S          3.758            3.128    251.62  12327.25
         S          3.859            3.128    251.62  12327.25
         Mo        10.221            3.547    674.22  77634.20
         Mo        10.229            3.547    674.22  77634.20
         S          3.849            3.128    251.62  12327.25
         S          3.859            3.128    251.62  12327.25
         S          3.859            3.128    251.62  12327.25
         S          4.632            3.128    251.62  12327.25
         Mo        10.208            3.547    674.22  77634.20
         Mo        10.221            3.547    674.22  77634.20
         S          3.858            3.128    251.62  12327.25
         S          3.859            3.128    251.62  12327.25
         S          3.758            3.128    251.62  12327.25
         S          3.859            3.128    251.62  12327.25
         Mo        10.222            3.547    674.22  77634.20
         Mo        10.732            3.547    674.21  77634.20
         S          3.863            3.128    251.62  12327.25
         S          3.850            3.128    251.62  12327.25
         S          3.859            3.128    251.62  12327.25
         S          5.641            3.128    251.62  12327.25
         Mo        10.208            3.547    674.22  77634.20
         Mo        10.221            3.547    674.22  77634.20
         S          3.858            3.128    251.62  12327.25
         S          3.859            3.128    251.62  12327.25
         S          3.758            3.128    251.62  12327.25
         S          3.859            3.128    251.62  12327.25
         Mo        10.220            3.547    674.22  77634.20
         Mo        10.181            3.547    674.22  77634.20
         S          3.843            3.128    251.62  12327.25
         S          3.853            3.128    251.62  12327.25
         S          3.859            3.128    251.62  12327.25
         S          3.854            3.128    251.62  12327.25
         Mo        10.208            3.547    674.21  77634.20
         Mo        10.220            3.547    674.22  77634.20
         S          3.858            3.128    251.62  12327.25
         S          3.859            3.128    251.62  12327.25
         S          3.758            3.128    251.62  12327.25
         S          3.859            3.128    251.62  12327.25
         Mo        10.220            3.547    674.22  77634.20
         Mo        10.260            3.547    674.22  77634.20
         S          3.856            3.128    251.62  12327.25
         S          3.861            3.128    251.62  12327.25
         S          3.859            3.128    251.62  12327.25
         S          3.808            3.128    251.62  12327.25
         Mo        10.208            3.547    674.22  77634.20
         Mo        10.221            3.547    674.22  77634.20
         S          3.858            3.128    251.62  12327.25
         S          3.859            3.128    251.62  12327.25
         S          3.758            3.128    251.62  12327.25
         S          3.859            3.128    251.62  12327.25
         Mo        10.220            3.547    674.22  77634.20
         Mo        10.278            3.547    674.22  77634.20
         S          3.837            3.128    251.62  12327.25
         S          3.863            3.128    251.62  12327.25
         S          3.859            3.128    251.62  12327.25
         S          3.842            3.128    251.62  12327.25
         Mo        10.208            3.547    674.21  77634.20
         Mo        10.221            3.547    674.22  77634.20
         S          3.858            3.128    251.62  12327.25
         S          3.859            3.128    251.62  12327.25
         S          3.758            3.128    251.62  12327.25
         S          3.859            3.128    251.62  12327.25
         Mo        10.222            3.547    674.22  77634.20
         Mo        10.177            3.547    674.22  77634.20
         S          3.873            3.128    251.62  12327.25
         S          3.855            3.128    251.62  12327.25
         S          3.859            3.128    251.62  12327.25
         S          5.643            3.128    251.62  12327.25
         Mo        10.208            3.547    674.22  77634.20
         Mo        10.221            3.547    674.22  77634.20
         S          3.858            3.128    251.62  12327.25
         S          3.859            3.128    251.62  12327.25
         S          3.758            3.128    251.62  12327.25
         S          3.859            3.128    251.62  12327.25
         Mo        10.222            3.547    674.22  77634.20
         Mo        10.867            3.547    674.22  77634.20
         S          3.860            3.128    251.62  12327.25
         S          3.850            3.128    251.62  12327.25
         S          3.859            3.128    251.62  12327.25
         S          4.673            3.128    251.62  12327.25
         Mo        10.208            3.547    674.22  77634.20
         Mo        10.221            3.547    674.22  77634.20
         S          3.858            3.128    251.62  12327.25
         S          3.859            3.128    251.62  12327.25
         S          3.758            3.128    251.62  12327.25
         S          3.859            3.128    251.62  12327.25
         Mo        10.220            3.547    674.22  77634.20
         Mo        10.214            3.547    674.22  77634.20
         S          3.850            3.128    251.62  12327.25
         S          3.856            3.128    251.62  12327.25
         S          3.859            3.128    251.62  12327.25
         S          3.827            3.128    251.62  12327.25
         Mo        10.208            3.547    674.22  77634.20
         Mo        10.221            3.547    674.22  77634.20
         S          3.858            3.128    251.62  12327.25
         S          3.859            3.128    251.62  12327.25
         S          3.758            3.128    251.62  12327.25
         S          3.859            3.128    251.62  12327.25
         Mo        10.220            3.547    674.22  77634.20
         Mo        10.260            3.547    674.22  77634.20
         S          3.856            3.128    251.62  12327.25
         S          3.861            3.128    251.62  12327.25
         S          3.859            3.128    251.62  12327.25
         S          3.801            3.128    251.62  12327.25
         Mo        10.208            3.547    674.22  77634.20
         Mo        10.221            3.547    674.22  77634.20
         S          3.858            3.128    251.62  12327.25
         S          3.859            3.128    251.62  12327.25
         S          3.758            3.128    251.62  12327.25
         S          3.859            3.128    251.62  12327.25
         Mo        10.220            3.547    674.22  77634.20
         Mo        10.287            3.547    674.22  77634.20
         S          3.840            3.128    251.62  12327.25
         S          3.863            3.128    251.62  12327.25
         S          3.859            3.128    251.62  12327.25
         S          3.820            3.128    251.62  12327.25
         Mo        10.208            3.547    674.22  77634.20
         Mo        10.221            3.547    674.22  77634.20
         S          3.858            3.128    251.62  12327.25
         S          3.859            3.128    251.62  12327.25
         S          3.758            3.128    251.62  12327.25
         S          3.859            3.128    251.62  12327.25
         Mo        10.222            3.547    674.22  77634.20
         Mo        10.220            3.547    674.22  77634.20
         S          3.851            3.128    251.62  12327.25
         S          3.858            3.128    251.62  12327.25
         S          3.859            3.128    251.62  12327.25
         S          4.642            3.128    251.62  12327.25
         Mo        10.208            3.547    674.22  77634.20
         Mo        10.221            3.547    674.22  77634.20
         S          3.858            3.128    251.62  12327.25
         S          3.859            3.128    251.62  12327.25
         S          3.758            3.128    251.62  12327.25
         S          3.859            3.128    251.62  12327.25
         Mo        10.221            3.547    674.22  77634.20
         Mo        10.226            3.547    674.22  77634.20
         S          3.863            3.128    251.62  12327.25
         S          3.856            3.128    251.62  12327.25
         S          3.859            3.128    251.62  12327.25
         S          3.765            3.128    251.62  12327.25
         Mo        10.208            3.547    674.22  77634.20
         Mo        10.221            3.547    674.22  77634.20
         S          3.858            3.128    251.62  12327.25
         S          3.859            3.128    251.62  12327.25
         S          3.758            3.128    251.62  12327.25
         S          3.859            3.128    251.62  12327.25
         Mo        10.221            3.547    674.22  77634.20
         Mo        10.250            3.547    674.22  77634.20
         S          3.865            3.128    251.62  12327.25
         S          3.857            3.128    251.62  12327.25
         S          3.859            3.128    251.62  12327.25
         S          4.727            3.128    251.62  12327.25
         Mo        10.208            3.547    674.22  77634.20
         Mo        10.220            3.547    674.22  77634.20
         S          3.858            3.128    251.62  12327.25
         S          3.859            3.128    251.62  12327.25
         S          3.758            3.128    251.62  12327.25
         S          3.859            3.128    251.62  12327.25
         Mo        10.220            3.547    674.22  77634.20
         Mo        10.782            3.547    674.22  77634.20
         S          3.855            3.128    251.62  12327.25
         S          3.857            3.128    251.62  12327.25
         S          3.859            3.128    251.62  12327.25
         S          4.767            3.128    251.62  12327.25
         Mo        10.208            3.547    674.22  77634.20
         Mo        10.221            3.547    674.22  77634.20
         S          3.858            3.128    251.62  12327.25
         S          3.859            3.128    251.62  12327.25
         S          3.758            3.128    251.62  12327.25
         S          3.859            3.128    251.62  12327.25
         Mo        10.220            3.547    674.22  77634.20
         Mo        10.276            3.547    674.22  77634.20
         S          3.853            3.128    251.62  12327.25
         S          3.861            3.128    251.62  12327.25
         S          3.859            3.128    251.62  12327.25
         S          3.821            3.128    251.62  12327.25
         Mo        10.208            3.547    674.22  77634.20
         Mo        10.221            3.547    674.22  77634.20
         S          3.858            3.128    251.62  12327.25
         S          3.859            3.128    251.62  12327.25
         S          3.758            3.128    251.62  12327.25
         S          3.859            3.128    251.62  12327.25
         Mo        10.221            3.547    674.22  77634.20
         Mo        10.251            3.547    674.22  77634.20
         S          3.853            3.128    251.62  12327.25
         S          3.860            3.128    251.62  12327.25
         S          3.859            3.128    251.62  12327.25
         S          3.823            3.128    251.62  12327.25
         Pt         4.461            3.168    673.78  70065.07
         Pd         4.319            3.168    531.75  48720.73
         Pt         3.768            3.168    692.72  72035.25

         Molecular C6 ( Ry / a.u.^6 ) =  14174372.50


     number of k points=     4  Gaussian smearing, width (Ry)=  0.0100
                       cart. coord. in units 2pi/alat
        k(    1) = (   0.0000000   0.0000000   0.0000000), wk =   0.5000000
        k(    2) = (   0.0000000  -0.5773499   0.0000000), wk =   0.5000000
        k(    3) = (  -0.5000000  -0.2886744   0.0000000), wk =   0.5000000
        k(    4) = (  -0.5000000  -0.8660242   0.0000000), wk =   0.5000000

     Dense  grid:  7154885 G-vectors     FFT dimensions: ( 180, 180, 512)

     Smooth grid:  3090769 G-vectors     FFT dimensions: ( 135, 135, 400)

     Estimated max dynamical RAM per process >       4.33 GB

     Estimated total dynamical RAM >     155.86 GB

     Atomic positions and unit cell read from directory:
     ./outdir/pwscf.save/
     Atomic positions from file used, from input discarded
 

     The initial density is read from file :
     ./outdir/pwscf.save/charge-density


     negative rho (up, down):  9.102E-04 0.000E+00
     Cannot read wfcs: file not found
     Starting wfcs are 1196 randomized atomic wfcs
     Checking if some PAW data can be deallocated... 

     total cpu time spent up to now is      180.1 secs

     Self-consistent Calculation

     iteration #  1     ecut=    77.00 Ry     beta= 0.20
     Davidson diagonalization with overlap
     c_bands:  4 eigenvalues not converged
     c_bands: 16 eigenvalues not converged
     c_bands: 15 eigenvalues not converged
     c_bands: 21 eigenvalues not converged
     ethr =  1.00E-05,  avg # of iterations =115.0

     negative rho (up, down):  8.401E-04 0.000E+00

     total cpu time spent up to now is    11008.3 secs

     total energy              =  -35654.30714291 Ry
     estimated scf accuracy    <       8.93797531 Ry

     iteration #  2     ecut=    77.00 Ry     beta= 0.20
     Davidson diagonalization with overlap
     ethr =  5.12E-04,  avg # of iterations = 18.5

     negative rho (up, down):  8.058E-04 0.000E+00

     total cpu time spent up to now is    11516.5 secs

     total energy              =  -35654.95569316 Ry
     estimated scf accuracy    <       4.80822163 Ry

     iteration #  3     ecut=    77.00 Ry     beta= 0.20
     Davidson diagonalization with overlap
     ethr =  2.75E-04,  avg # of iterations = 12.8

     negative rho (up, down):  8.266E-04 0.000E+00

     total cpu time spent up to now is    11967.5 secs

     total energy              =  -35653.68344920 Ry
     estimated scf accuracy    <      13.60216252 Ry

     iteration #  4     ecut=    77.00 Ry     beta= 0.20
     Davidson diagonalization with overlap
     ethr =  2.75E-04,  avg # of iterations =  1.2

     negative rho (up, down):  8.311E-04 0.000E+00

     total cpu time spent up to now is    12352.9 secs

     total energy              =  -35652.74713905 Ry
     estimated scf accuracy    <      62.58678483 Ry

     iteration #  5     ecut=    77.00 Ry     beta= 0.20
     Davidson diagonalization with overlap
     ethr =  2.75E-04,  avg # of iterations =  2.0

     negative rho (up, down):  7.627E-04 0.000E+00

     total cpu time spent up to now is    12767.4 secs

     total energy              =  -35654.67979031 Ry
     estimated scf accuracy    <       1.22812461 Ry

     iteration #  6     ecut=    77.00 Ry     beta= 0.20
     Davidson diagonalization with overlap
     ethr =  7.03E-05,  avg # of iterations = 17.5

     negative rho (up, down):  7.560E-04 0.000E+00

     total cpu time spent up to now is    13325.1 secs

     total energy              =  -35654.69623618 Ry
     estimated scf accuracy    <       5.19332369 Ry

     iteration #  7     ecut=    77.00 Ry     beta= 0.20
     Davidson diagonalization with overlap
     ethr =  7.03E-05,  avg # of iterations = 10.0

     negative rho (up, down):  7.588E-04 0.000E+00

     total cpu time spent up to now is    13776.9 secs

     total energy              =  -35654.94240586 Ry
     estimated scf accuracy    <       0.35948994 Ry

     iteration #  8     ecut=    77.00 Ry     beta= 0.20
     Davidson diagonalization with overlap
     ethr =  2.06E-05,  avg # of iterations = 10.5

     negative rho (up, down):  7.628E-04 0.000E+00

     total cpu time spent up to now is    14257.9 secs

     total energy              =  -35654.93689104 Ry
     estimated scf accuracy    <       0.16752960 Ry

     iteration #  9     ecut=    77.00 Ry     beta= 0.20
     Davidson diagonalization with overlap
     c_bands:  5 eigenvalues not converged
     c_bands:  1 eigenvalues not converged
     ethr =  9.60E-06,  avg # of iterations = 14.5

     negative rho (up, down):  7.687E-04 0.000E+00

     total cpu time spent up to now is    14763.4 secs

     total energy              =  -35654.92256454 Ry
     estimated scf accuracy    <       0.09424918 Ry

     iteration # 10     ecut=    77.00 Ry     beta= 0.20
     Davidson diagonalization with overlap
     c_bands:  5 eigenvalues not converged
     c_bands:  4 eigenvalues not converged
     c_bands:  4 eigenvalues not converged
     ethr =  5.40E-06,  avg # of iterations = 22.5

     negative rho (up, down):  7.797E-04 0.000E+00

     total cpu time spent up to now is    15377.5 secs

     total energy              =  -35654.93564597 Ry
     estimated scf accuracy    <       0.01093980 Ry

     iteration # 11     ecut=    77.00 Ry     beta= 0.20
     Davidson diagonalization with overlap
     c_bands:  1 eigenvalues not converged
     c_bands:  5 eigenvalues not converged
     c_bands:  6 eigenvalues not converged
     c_bands:  1 eigenvalues not converged
     ethr =  6.27E-07,  avg # of iterations =100.0

     negative rho (up, down):  7.935E-04 0.000E+00

     total cpu time spent up to now is    17914.0 secs

     total energy              =  -35654.94429610 Ry
     estimated scf accuracy    <       0.01259194 Ry

     iteration # 12     ecut=    77.00 Ry     beta= 0.20
     Davidson diagonalization with overlap
     c_bands:  2 eigenvalues not converged
     c_bands:  3 eigenvalues not converged
     c_bands:  4 eigenvalues not converged
     ethr =  6.27E-07,  avg # of iterations = 15.5

     negative rho (up, down):  8.240E-04 0.000E+00

     total cpu time spent up to now is    18379.6 secs

     total energy              =  -35654.94294025 Ry
     estimated scf accuracy    <       0.00658660 Ry

     iteration # 13     ecut=    77.00 Ry     beta= 0.20
     Davidson diagonalization with overlap
     c_bands:  3 eigenvalues not converged
     c_bands:  1 eigenvalues not converged
     c_bands:  1 eigenvalues not converged
     ethr =  3.77E-07,  avg # of iterations = 17.2

     negative rho (up, down):  8.415E-04 0.000E+00

     total cpu time spent up to now is    18859.6 secs

     total energy              =  -35654.94257505 Ry
     estimated scf accuracy    <       0.00220201 Ry

     iteration # 14     ecut=    77.00 Ry     beta= 0.20
     Davidson diagonalization with overlap
     c_bands:  1 eigenvalues not converged
     ethr =  1.26E-07,  avg # of iterations = 13.0

     negative rho (up, down):  8.485E-04 0.000E+00

     total cpu time spent up to now is    19524.5 secs

     total energy              =  -35654.94368817 Ry
     estimated scf accuracy    <       0.00105011 Ry

     iteration # 15     ecut=    77.00 Ry     beta= 0.20
     Davidson diagonalization with overlap
     ethr =  6.01E-08,  avg # of iterations = 11.8

     negative rho (up, down):  8.730E-04 0.000E+00

     total cpu time spent up to now is    20078.6 secs

     total energy              =  -35654.94372061 Ry
     estimated scf accuracy    <       0.00050084 Ry

     iteration # 16     ecut=    77.00 Ry     beta= 0.20
     Davidson diagonalization with overlap
     ethr =  2.87E-08,  avg # of iterations = 15.2

     negative rho (up, down):  8.825E-04 0.000E+00

     total cpu time spent up to now is    20843.4 secs

     total energy              =  -35654.94403291 Ry
     estimated scf accuracy    <       0.00021204 Ry

     iteration # 17     ecut=    77.00 Ry     beta= 0.20
     Davidson diagonalization with overlap
     ethr =  1.21E-08,  avg # of iterations =  8.8

     negative rho (up, down):  8.912E-04 0.000E+00

     total cpu time spent up to now is    21319.7 secs

     total energy              =  -35654.94404060 Ry
     estimated scf accuracy    <       0.00006578 Ry

     iteration # 18     ecut=    77.00 Ry     beta= 0.20
     Davidson diagonalization with overlap
     ethr =  3.77E-09,  avg # of iterations = 15.5

     negative rho (up, down):  8.950E-04 0.000E+00

     total cpu time spent up to now is    22326.4 secs

     total energy              =  -35654.94411976 Ry
     estimated scf accuracy    <       0.00004630 Ry

     iteration # 19     ecut=    77.00 Ry     beta= 0.20
     Davidson diagonalization with overlap
     ethr =  2.65E-09,  avg # of iterations =  1.8

     negative rho (up, down):  9.013E-04 0.000E+00

     total cpu time spent up to now is    22728.7 secs

     total energy              =  -35654.94410968 Ry
     estimated scf accuracy    <       0.00002449 Ry

     iteration # 20     ecut=    77.00 Ry     beta= 0.20
     Davidson diagonalization with overlap
     ethr =  1.40E-09,  avg # of iterations = 14.8

     negative rho (up, down):  9.069E-04 0.000E+00

     total cpu time spent up to now is    23505.1 secs

     total energy              =  -35654.94412201 Ry
     estimated scf accuracy    <       0.00000666 Ry

     iteration # 21     ecut=    77.00 Ry     beta= 0.20
     Davidson diagonalization with overlap
     c_bands:  1 eigenvalues not converged
     c_bands:  1 eigenvalues not converged
     ethr =  3.81E-10,  avg # of iterations = 17.5

     negative rho (up, down):  9.092E-04 0.000E+00

     total cpu time spent up to now is    24468.9 secs

     total energy              =  -35654.94412702 Ry
     estimated scf accuracy    <       0.00000283 Ry

     iteration # 22     ecut=    77.00 Ry     beta= 0.20
     Davidson diagonalization with overlap
     ethr =  1.62E-10,  avg # of iterations = 14.5

     negative rho (up, down):  9.121E-04 0.000E+00

     total cpu time spent up to now is    25259.8 secs

     End of self-consistent calculation

          k = 0.0000 0.0000 0.0000 (386245 PWs)   bands (ev):

  -103.0022-102.9254 -88.3234 -71.3340 -71.3248 -71.3164 -71.2994 -71.2880
   -71.2738 -71.2701 -71.2622 -71.2596 -71.2447 -71.2171 -71.2103 -71.1960
   -71.1927 -66.6303 -66.6301 -66.6300 -66.6286 -66.6122 -66.6106 -66.6092
   -66.6090 -66.6089 -66.6088 -66.6087 -66.6087 -66.6087 -66.6087 -66.6086
   -66.6086 -66.6085 -66.6084 -66.6073 -66.6073 -66.6073 -66.6073 -66.6073
   -66.6073 -66.6057 -66.6007 -66.5942 -66.5881 -66.5880 -66.5877 -66.5875
   -66.5875 -66.5874 -66.5873 -66.5873 -66.5873 -66.5873 -66.5873 -66.5872
   -66.5872 -66.5872 -66.5872 -66.5872 -66.5871 -66.5870 -66.5869 -66.5859
   -66.5859 -66.5859 -66.5859 -66.5859 -66.5859 -66.5859 -66.5859 -66.5858
   -66.5830 -66.5785 -66.5734 -66.5707 -66.5671 -66.5603 -66.5566 -66.5493
   -66.5097 -57.2942 -57.2898 -57.2118 -57.1562 -57.1202 -57.0153 -54.2065
   -54.1633 -53.9517 -40.9576 -40.9575 -40.9574 -40.9574 -40.9573 -40.9573
   -40.9567 -40.9567 -40.9567 -40.9448 -40.9429 -40.9370 -40.8824 -40.8823
   -40.8822 -40.8822 -40.8821 -40.8820 -40.8820 -40.8820 -40.8820 -40.8820
   -40.8820 -40.8819 -40.8813 -40.8813 -40.8813 -40.8813 -40.8813 -40.8813
   -40.8737 -40.8678 -40.8630 -40.8533 -40.8492 -40.8459 -40.8195 -40.8001
   -40.7897 -40.7896 -40.7889 -40.7824 -40.7576 -40.7561 -40.7560 -40.7559
   -40.7559 -40.7557 -40.7557 -40.7557 -40.7557 -40.7557 -40.7557 -40.7556
   -40.7556 -40.7550 -40.7549 -40.7549 -40.7549 -40.7548 -40.7548 -40.7548
   -40.7501 -40.7483 -40.7482 -40.7481 -40.7480 -40.7479 -40.7479 -40.7479
   -40.7479 -40.7478 -40.7478 -40.7478 -40.7477 -40.7476 -40.7471 -40.7471
   -40.7471 -40.7471 -40.7471 -40.7471 -40.7444 -40.7425 -40.7389 -40.7357
   -40.7273 -40.7224 -40.7211 -40.7209 -40.7209 -40.7208 -40.7207 -40.7207
   -40.7207 -40.7207 -40.7207 -40.7206 -40.7206 -40.7206 -40.7198 -40.7198
   -40.7198 -40.7198 -40.7197 -40.7197 -40.7188 -40.7173 -40.7153 -40.7139
   -40.7084 -40.7070 -40.7065 -40.7063 -40.7062 -40.7062 -40.7062 -40.7061
   -40.7061 -40.7059 -40.7059 -40.7059 -40.7059 -40.7059 -40.7059 -40.7058
   -40.7058 -40.7058 -40.7058 -40.7057 -40.7056 -40.7051 -40.7051 -40.7051
   -40.7051 -40.7051 -40.7051 -40.7050 -40.7050 -40.7050 -40.7034 -40.6986
   -40.6951 -40.6906 -40.6871 -40.6812 -40.6730 -40.6537 -40.6426 -40.6425
   -40.6423 -40.6423 -40.6423 -40.6423 -40.6414 -40.6414 -40.6414 -40.6277
   -40.6205 -40.6150 -40.5957 -40.5956 -40.5955 -40.5953 -40.5952 -40.5952
   -40.5952 -40.5952 -40.5952 -40.5952 -40.5951 -40.5950 -40.5942 -40.5942
   -40.5942 -40.5942 -40.5942 -40.5942 -40.5796 -40.5746 -40.5727 -40.5671
   -40.5609 -40.5525 -40.5477 -40.5477 -40.5476 -40.5476 -40.5465 -40.5465
   -40.5208 -40.5091 -20.2961 -20.1105 -20.0107 -19.8995 -19.7016 -19.5185
   -19.3701 -19.2802 -19.2749 -19.2580 -19.2435 -19.2426 -19.2393 -19.2265
   -19.2236 -19.2037 -19.1575 -19.1558 -19.1500 -19.1385 -19.1358 -19.1205
   -19.0523 -19.0511 -19.0477 -19.0436 -19.0422 -19.0371 -18.9344 -18.8416
   -18.8116 -18.6821 -18.6407 -18.6120 -18.5754 -18.5486 -18.5192 -18.4908
   -18.4723 -18.4460 -18.4320 -18.4316 -18.4268 -18.4050 -18.3688 -18.3303
   -18.3054 -18.3028 -18.2945 -18.2817 -18.2596 -18.2465 -18.2198 -18.2099
   -18.1914 -18.1885 -18.1832 -18.1812 -18.1723 -18.1703 -18.1324 -18.1288
   -18.1263 -18.1255 -18.1250 -18.1247 -18.1132 -18.1006 -18.0943 -18.0904
   -18.0891 -18.0875 -18.0826 -18.0820 -18.0814 -18.0766 -18.0598 -18.0579
   -18.0560 -18.0543 -18.0439 -18.0395 -18.0391 -18.0304 -18.0241 -18.0168
   -18.0137 -18.0110 -18.0090 -17.9981 -17.9964 -17.9951 -17.9666 -17.9611
   -17.9581 -17.9526 -17.9419 -17.9317 -17.9285 -17.9275 -17.9251 -17.9036
   -17.9013 -17.8983 -17.8928 -17.8871 -17.8838 -17.8781 -17.8744 -17.8705
   -17.8668 -17.8659 -17.8632 -17.8472 -17.8469 -17.8462 -17.8388 -17.8360
   -17.8350 -17.8309 -17.8278 -17.8254 -17.8037 -17.8033 -17.8027 -17.8016
   -17.8003 -17.7994 -12.3107 -12.1896 -12.0547 -11.9679 -11.8780 -11.8113
   -11.8060 -11.7971 -11.7311 -11.6922 -11.6803 -11.6638 -11.6274 -11.5708
   -11.5612 -11.5593 -11.4886 -11.4537 -11.4144 -11.3257 -11.2919 -11.2625
   -11.2468 -11.2451 -11.2399 -11.2258 -11.2142 -11.1860 -11.1476 -11.1395
   -11.1381 -11.1366 -11.1331 -11.1298 -11.1111 -11.1025 -11.0886 -11.0807
   -11.0766 -11.0727 -11.0661 -11.0548 -11.0537 -11.0388 -11.0366 -11.0301
   -11.0184 -11.0052 -10.9767 -10.9734 -10.9695 -10.9534 -10.9492 -10.9464
   -10.9300 -10.9160 -10.9076 -10.8993 -10.8951 -10.8894 -10.8793 -10.8760
   -10.8613 -10.8520 -10.8482 -10.8465 -10.8419 -10.8383 -10.8351 -10.8339
   -10.8296 -10.8294 -10.8236 -10.8161 -10.8145 -10.8115 -10.7910 -10.7886
   -10.7859 -10.7843 -10.7833 -10.7806 -10.7776 -10.7744 -10.7668 -10.7446
   -10.7442 -10.7437 -10.7434 -10.7426 -10.7413 -10.7029 -10.6758 -10.6690
   -10.6560 -10.6398 -10.6249 -10.6053 -10.5961 -10.5907 -10.5762 -10.5680
   -10.4987 -10.4395 -10.2355 -10.1867 -10.1520 -10.1243 -10.0476  -9.9859
    -9.9392  -9.9351  -9.8807  -9.8498  -9.8454  -9.8274  -9.8158  -9.8134
    -9.7919  -9.7837  -9.7822  -9.7797  -9.7789  -9.7779  -9.7721  -9.7678
    -9.7595  -9.7575  -9.7568  -9.7552  -9.7528  -9.7392  -9.7222  -9.7028
    -9.6973  -9.6837  -9.6534  -9.6453  -9.6425  -9.6353  -9.6329  -9.6284
    -9.6273  -9.6250  -9.6236  -9.6224  -9.6191  -9.6187  -9.5877  -9.5827
    -9.5641  -9.5521  -9.5479  -9.5476  -9.5475  -9.5471  -9.5469  -9.5467
    -9.5399  -9.5393  -9.5205  -9.5168  -9.5138  -9.5032  -9.4860  -9.4612
    -9.4393  -9.4082  -9.3898  -9.3773  -9.3764  -9.3705  -9.3612  -9.3551
    -9.3499  -9.3440  -9.3355  -9.3284  -9.3199  -9.3066  -9.2776  -9.2642
    -9.2599  -9.2514  -9.2498  -9.2292  -9.2133  -9.1983  -9.1939  -9.1900
    -9.1891  -9.1872  -9.1831  -9.1751  -9.1655  -9.1472  -9.1284  -9.1217
    -9.1176  -9.0848  -9.0637  -9.0427  -9.0111  -9.0008  -8.9883  -8.9857
    -8.9848  -8.9648  -8.9548  -8.9541  -8.9451  -8.9318  -8.9235  -8.9233
    -8.9230  -8.9168  -8.9105  -8.9069  -8.9032  -8.8927  -8.8315  -8.8282
    -8.8278  -8.8267  -8.8263  -8.8257  -8.8107  -8.7946  -8.7761  -8.7704
    -8.7564  -8.7448  -8.7388  -8.7199  -8.6833  -8.6780  -8.6720  -8.6657
    -8.6631  -8.6532  -8.6078  -8.6005  -8.5995  -8.5973  -8.5969  -8.5962
    -8.5683  -8.5547  -8.5330  -8.4688  -8.4301  -8.3722  -8.3721  -8.3675
    -8.3674  -8.3610  -8.3608  -8.3533  -8.3439  -8.3255  -8.3124  -8.2825
    -8.2817  -8.2814  -8.2808  -8.2804  -8.2796  -8.2588  -8.2555  -8.2550
    -8.2539  -8.2533  -8.2524  -8.2340  -8.2271  -8.2267  -8.2262  -8.2260
    -8.2257  -8.2203  -8.1592  -8.1332  -8.0717  -8.0028  -7.9190  -7.8693
    -7.8665  -7.8583  -7.8254  -7.8114  -7.7764  -7.7583  -7.7534  -7.7226
    -7.7141  -7.6853  -7.6627  -7.6584  -7.6521  -7.6431  -7.6321  -7.6214
    -7.6148  -7.6111  -7.6053  -7.5896  -7.5820  -7.5702  -7.5687  -7.5601
    -7.5434  -7.5409  -7.5399  -7.5398  -7.5395  -7.5371  -7.5335  -7.5184
    -7.5142  -7.5139  -7.5130  -7.5114  -7.5107  -7.5069  -7.4965  -7.4897
    -7.4880  -7.4878  -7.4877  -7.4874  -7.4859  -7.4734  -7.4602  -7.4529
    -7.4448  -7.4392  -7.4266  -7.4253  -7.4194  -7.4018  -7.3907  -7.3690
    -7.3683  -7.3663  -7.3467  -7.3335  -7.3268  -7.3222  -7.3083  -7.3071
    -7.3036  -7.3008  -7.2999  -7.2910  -7.2628  -7.2564  -7.2559  -7.2386
    -7.2381  -7.2353  -7.2198  -7.2194  -7.1924  -7.1865  -7.1523  -7.1352
    -7.1289  -7.1170  -7.0919  -7.0569  -7.0151  -6.9801  -6.9592  -6.8958
    -6.8882  -6.8738  -6.8708  -6.8293  -6.7952  -6.7894  -6.7855  -6.7825
    -6.7489  -6.7314  -6.7280  -6.7046  -6.7037  -6.6943  -6.6760  -6.6709
    -6.6577  -6.6306  -6.6285  -6.6259  -6.6228  -6.6002  -6.5861  -6.5770
    -6.5748  -6.5714  -6.5623  -6.5537  -6.5346  -6.5307  -6.5214  -6.5208
    -6.5194  -6.5171  -6.5151  -6.5133  -6.5084  -6.5034  -6.5032  -6.5030
    -6.5029  -6.5027  -6.5024  -6.5001  -6.4925  -6.4601  -6.4525  -6.4473
    -6.4290  -6.4237  -6.4150  -6.4138  -6.4133  -6.3837  -6.3456  -6.3409
    -6.3378  -6.3370  -6.3364  -6.3342  -6.3250  -6.3143  -6.3017  -6.2992
    -6.2978  -6.2965  -6.2942  -6.2894  -6.2714  -6.2614  -6.2608  -6.2594
    -6.2582  -6.2569  -6.2517  -6.2344  -6.2091  -6.1898  -6.1062  -6.0250
    -5.9172  -5.8096  -5.6733  -5.6277  -5.5270  -5.4593  -5.3626  -5.2858
    -5.1542  -4.3222  -4.2136  -3.8897  -3.8662  -3.8599  -3.8501  -3.8453
    -3.8377  -3.8355  -3.8320  -3.8296  -3.8288  -3.8099  -3.8078  -3.7529
    -3.7257  -3.7144  -3.7013  -3.6953  -3.6934  -3.6899  -3.6822  -3.6775
    -3.6739  -3.5903  -3.5858  -3.5520  -3.5359  -3.5229  -3.5182  -3.5146
    -3.5033  -3.5000  -3.4863  -3.4797  -3.4772  -3.4742  -3.4731  -3.4669
    -3.4651  -3.4613  -3.4511  -3.4488  -3.4477  -3.4467  -3.4441  -3.4356
    -3.4332  -3.4320  -3.4301  -3.4250  -3.4184  -3.4135  -3.4128  -3.4088
    -3.4060  -3.4022  -3.3977  -3.3940  -3.3900  -3.3682  -3.3649  -3.3632
    -3.3616  -3.3583  -3.3567  -3.3512  -3.3463  -3.3391  -3.3238  -3.3162
    -3.3144  -3.3053  -3.3000  -3.2930  -3.2917  -3.2891  -3.2776  -3.2652
    -3.2585  -3.2233  -3.2218  -3.2166  -3.1962  -3.1194  -3.1007  -3.0910
    -3.0848  -3.0753  -3.0648  -3.0637  -3.0602  -3.0538  -3.0501  -3.0453
    -3.0178  -3.0163  -3.0046  -2.9944  -2.9881  -2.9807  -2.9802  -2.9794
    -2.9719  -2.9709  -2.9680  -2.9679  -2.9675  -2.9621  -2.9591  -2.9577
    -2.9536  -2.9487  -2.9417  -2.9399  -2.9391  -2.9380  -2.9373  -2.9358
    -2.9353  -2.9283  -2.9267  -2.9180  -2.9090  -2.9012  -2.9005  -2.8939
    -2.8822  -2.8749  -2.8692  -2.8544  -2.8125  -2.8120  -2.8120  -2.8119
    -2.8119  -2.8118  -2.8118  -2.8091  -2.8078  -2.7966  -2.7946  -2.7898
    -2.7803  -2.7572  -2.7502  -2.7474  -2.7358  -2.7232  -2.7230  -2.6779
    -2.6738  -2.6513  -2.6459  -2.6442  -2.6390  -2.6327  -2.6262  -2.6232
    -2.6215  -2.6157  -2.5939  -2.5602  -2.5572  -2.5502  -2.5438  -2.5114
    -2.4696  -2.4654  -2.4627  -2.4486  -2.4455  -2.4412  -2.4287  -2.4033

          k = 0.0000-0.5773 0.0000 (386352 PWs)   bands (ev):

  -103.0022-102.9254 -88.3234 -71.3340 -71.3248 -71.3164 -71.2994 -71.2880
   -71.2738 -71.2701 -71.2622 -71.2596 -71.2447 -71.2171 -71.2103 -71.1960
   -71.1927 -66.6295 -66.6240 -66.6238 -66.6237 -66.6237 -66.6224 -66.6224
   -66.6141 -66.6133 -66.6132 -66.6131 -66.6131 -66.6117 -66.6117 -66.6116
   -66.6035 -66.6011 -66.5982 -66.5982 -66.5981 -66.5980 -66.5980 -66.5980
   -66.5980 -66.5979 -66.5966 -66.5966 -66.5966 -66.5966 -66.5949 -66.5938
   -66.5936 -66.5936 -66.5935 -66.5922 -66.5922 -66.5876 -66.5873 -66.5873
   -66.5873 -66.5873 -66.5873 -66.5873 -66.5872 -66.5860 -66.5859 -66.5859
   -66.5859 -66.5859 -66.5833 -66.5830 -66.5829 -66.5828 -66.5828 -66.5815
   -66.5814 -66.5767 -66.5762 -66.5709 -66.5664 -66.5610 -66.5558 -66.5496
   -66.5097 -57.2942 -57.2898 -57.2118 -57.1562 -57.1202 -57.0154 -54.2065
   -54.1633 -53.9517 -40.9260 -40.9259 -40.9258 -40.9258 -40.9257 -40.9257
   -40.9257 -40.9257 -40.9251 -40.9251 -40.9250 -40.9250 -40.9231 -40.9205
   -40.9043 -40.8992 -40.8990 -40.8989 -40.8989 -40.8982 -40.8982 -40.8935
   -40.8922 -40.8871 -40.8870 -40.8869 -40.8868 -40.8862 -40.8862 -40.8813
   -40.8538 -40.8504 -40.8364 -40.8364 -40.8363 -40.8363 -40.8362 -40.8362
   -40.8362 -40.8361 -40.8354 -40.8354 -40.8354 -40.8354 -40.8193 -40.8183
   -40.8129 -40.8073 -40.8021 -40.7962 -40.7865 -40.7777 -40.7774 -40.7774
   -40.7774 -40.7767 -40.7767 -40.7681 -40.7680 -40.7679 -40.7679 -40.7670
   -40.7670 -40.7648 -40.7567 -40.7567 -40.7565 -40.7565 -40.7558 -40.7558
   -40.7525 -40.7437 -40.7428 -40.7386 -40.7308 -40.7301 -40.7272 -40.7272
   -40.7270 -40.7270 -40.7269 -40.7269 -40.7269 -40.7269 -40.7262 -40.7261
   -40.7261 -40.7261 -40.7261 -40.7185 -40.7183 -40.7182 -40.7182 -40.7174
   -40.7174 -40.7161 -40.7147 -40.7073 -40.7066 -40.7065 -40.7064 -40.7064
   -40.7063 -40.7061 -40.7060 -40.7060 -40.7059 -40.7059 -40.7059 -40.7058
   -40.7058 -40.7055 -40.7055 -40.7051 -40.7051 -40.7051 -40.7050 -40.6974
   -40.6973 -40.6972 -40.6972 -40.6964 -40.6964 -40.6960 -40.6911 -40.6884
   -40.6837 -40.6758 -40.6757 -40.6755 -40.6755 -40.6755 -40.6755 -40.6754
   -40.6754 -40.6745 -40.6745 -40.6745 -40.6745 -40.6650 -40.6583 -40.6544
   -40.6521 -40.6409 -40.6409 -40.6408 -40.6408 -40.6407 -40.6407 -40.6407
   -40.6407 -40.6398 -40.6397 -40.6397 -40.6397 -40.6396 -40.6288 -40.6287
   -40.6286 -40.6285 -40.6276 -40.6276 -40.6233 -40.6201 -40.6142 -40.6123
   -40.6095 -40.6093 -40.6093 -40.6092 -40.6083 -40.6083 -40.6067 -40.5924
   -40.5924 -40.5923 -40.5923 -40.5917 -40.5913 -40.5913 -40.5867 -40.5748
   -40.5625 -40.5618 -40.5617 -40.5616 -40.5616 -40.5606 -40.5605 -40.5528
   -40.5405 -40.5214 -20.2099 -19.9066 -19.8756 -19.8498 -19.7799 -19.7540
   -19.6695 -19.6566 -19.6141 -19.5431 -19.4381 -19.4352 -19.3486 -19.3432
   -19.2437 -19.2383 -19.1536 -19.0543 -18.8917 -18.8754 -18.7930 -18.7798
   -18.7297 -18.7289 -18.7259 -18.7252 -18.7115 -18.6989 -18.6660 -18.6624
   -18.6529 -18.6516 -18.6125 -18.6023 -18.5839 -18.5705 -18.5613 -18.5558
   -18.5539 -18.5358 -18.5303 -18.5039 -18.4925 -18.4853 -18.4751 -18.4662
   -18.4442 -18.4183 -18.4157 -18.4094 -18.3901 -18.3687 -18.3666 -18.3385
   -18.3300 -18.3070 -18.2866 -18.2754 -18.2559 -18.2460 -18.2271 -18.2000
   -18.1948 -18.1863 -18.1676 -18.1449 -18.1388 -18.1290 -18.1170 -18.1068
   -18.1039 -18.1031 -18.1015 -18.0829 -18.0804 -18.0782 -18.0742 -18.0705
   -18.0702 -18.0644 -18.0597 -18.0583 -18.0513 -18.0383 -18.0173 -18.0154
   -18.0125 -18.0088 -18.0066 -18.0047 -18.0029 -17.9976 -17.9947 -17.9874
   -17.9596 -17.9548 -17.9458 -17.9420 -17.9371 -17.9300 -17.9075 -17.8985
   -17.8967 -17.8847 -17.8824 -17.8634 -17.8533 -17.8494 -17.8463 -17.8456
   -17.8252 -17.8244 -17.8244 -17.8233 -17.8227 -17.8224 -17.8120 -17.8092
   -17.7931 -17.7884 -17.7676 -17.7637 -17.7482 -17.7432 -17.7327 -17.7294
   -17.7243 -17.7238 -12.2505 -12.1030 -11.9236 -11.7790 -11.7249 -11.6890
   -11.6384 -11.5995 -11.5595 -11.5142 -11.5095 -11.5060 -11.4977 -11.4894
   -11.4823 -11.4669 -11.4487 -11.4171 -11.4025 -11.3991 -11.3911 -11.3686
   -11.3611 -11.3498 -11.3273 -11.3107 -11.3058 -11.2939 -11.2833 -11.2767
   -11.2715 -11.2666 -11.2603 -11.2588 -11.2328 -11.2168 -11.2090 -11.2057
   -11.1959 -11.1850 -11.1779 -11.1747 -11.1697 -11.1550 -11.1529 -11.1480
   -11.1369 -11.1242 -11.1041 -11.0901 -11.0764 -11.0511 -11.0410 -11.0109
   -10.9931 -10.9773 -10.9533 -10.9374 -10.9284 -10.9219 -10.9143 -10.9069
   -10.8844 -10.8605 -10.8447 -10.8431 -10.8403 -10.8357 -10.8200 -10.8184
   -10.8173 -10.8154 -10.8133 -10.8123 -10.8099 -10.8028 -10.7992 -10.7975
   -10.7932 -10.7909 -10.7887 -10.7847 -10.7749 -10.7500 -10.7486 -10.7477
   -10.7471 -10.7053 -10.6705 -10.6329 -10.5592 -10.5438 -10.5353 -10.5259
   -10.4933 -10.4693 -10.4132 -10.3954 -10.3024 -10.2802 -10.2565 -10.2277
   -10.1906 -10.1475 -10.1339 -10.1270 -10.1226 -10.1110 -10.0890 -10.0844
   -10.0628 -10.0495 -10.0441 -10.0416 -10.0341 -10.0269 -10.0206 -10.0140
    -9.9750  -9.9552  -9.9409  -9.9340  -9.9311  -9.9176  -9.9115  -9.9012
    -9.8967  -9.8847  -9.8725  -9.8689  -9.8493  -9.8342  -9.8067  -9.7984
    -9.7894  -9.7812  -9.7656  -9.7537  -9.7473  -9.7251  -9.7113  -9.7059
    -9.6762  -9.6715  -9.6491  -9.6426  -9.6334  -9.6268  -9.6129  -9.5896
    -9.5812  -9.5731  -9.5708  -9.5563  -9.5500  -9.5322  -9.5063  -9.4979
    -9.4968  -9.4962  -9.4875  -9.4760  -9.4711  -9.4692  -9.4641  -9.4623
    -9.4448  -9.4374  -9.4100  -9.3956  -9.3909  -9.3751  -9.3448  -9.3408
    -9.2995  -9.2562  -9.2489  -9.2392  -9.2305  -9.2208  -9.2142  -9.2092
    -9.1807  -9.1717  -9.1595  -9.1446  -9.1364  -9.1184  -9.1131  -9.1104
    -9.0797  -9.0745  -9.0637  -9.0578  -9.0515  -9.0500  -9.0317  -9.0240
    -8.9976  -8.9849  -8.9769  -8.9652  -8.9576  -8.9529  -8.9480  -8.9348
    -8.9282  -8.9221  -8.9070  -8.8971  -8.8959  -8.8933  -8.8908  -8.8870
    -8.8803  -8.8768  -8.8730  -8.8726  -8.8652  -8.8617  -8.8556  -8.8466
    -8.8446  -8.8438  -8.8427  -8.8345  -8.8050  -8.7989  -8.7987  -8.7956
    -8.7905  -8.7888  -8.7720  -8.7688  -8.7616  -8.7589  -8.7448  -8.7391
    -8.7377  -8.7344  -8.7239  -8.7199  -8.6911  -8.6653  -8.6588  -8.6378
    -8.5815  -8.5229  -8.5103  -8.5060  -8.4827  -8.4492  -8.4417  -8.4047
    -8.3663  -8.3553  -8.3383  -8.2981  -8.2576  -8.2458  -8.2171  -8.1816
    -8.1323  -8.1322  -8.1238  -8.1234  -8.1122  -8.1119  -8.0934  -8.0807
    -8.0727  -8.0404  -7.9909  -7.9846  -7.9747  -7.9724  -7.9498  -7.9189
    -7.8807  -7.8577  -7.8496  -7.8458  -7.8393  -7.8325  -7.8270  -7.8204
    -7.8183  -7.8110  -7.8088  -7.8043  -7.7994  -7.7986  -7.7939  -7.7894
    -7.7865  -7.7855  -7.7765  -7.7748  -7.7733  -7.7704  -7.7704  -7.7690
    -7.7680  -7.7649  -7.7626  -7.7623  -7.7459  -7.7413  -7.7377  -7.7356
    -7.7293  -7.7117  -7.7031  -7.7019  -7.7008  -7.7006  -7.6923  -7.6726
    -7.6712  -7.6703  -7.6696  -7.6671  -7.6560  -7.6531  -7.6233  -7.6150
    -7.6130  -7.6113  -7.6095  -7.6062  -7.5991  -7.5954  -7.5904  -7.5894
    -7.5699  -7.5691  -7.5681  -7.5660  -7.5627  -7.5523  -7.5091  -7.4762
    -7.4752  -7.4671  -7.4610  -7.4497  -7.4457  -7.4318  -7.3931  -7.3277
    -7.2950  -7.2566  -7.1848  -7.1758  -7.1715  -7.1712  -7.1585  -7.1386
    -7.1260  -7.1208  -7.1125  -7.1005  -7.0886  -7.0769  -7.0498  -7.0441
    -7.0320  -7.0239  -7.0216  -7.0081  -6.9882  -6.9811  -6.9718  -6.9414
    -6.9232  -6.9197  -6.9110  -6.9019  -6.8904  -6.8775  -6.8651  -6.8627
    -6.8521  -6.8501  -6.8269  -6.8076  -6.7781  -6.7647  -6.7433  -6.7206
    -6.6970  -6.6882  -6.6579  -6.6450  -6.6317  -6.6264  -6.6205  -6.6108
    -6.6101  -6.6082  -6.6071  -6.5975  -6.5933  -6.5922  -6.5913  -6.5904
    -6.5838  -6.5835  -6.5834  -6.5831  -6.5761  -6.5324  -6.5190  -6.4892
    -6.4749  -6.4455  -6.4261  -6.3918  -6.3641  -6.3409  -6.3281  -6.3241
    -6.3206  -6.3158  -6.3106  -6.2891  -6.2829  -6.2822  -6.2784  -6.2773
    -6.2733  -6.2652  -6.2624  -6.2578  -6.2487  -6.2331  -6.2132  -6.2096
    -6.2075  -6.2035  -6.1735  -6.1473  -6.0857  -6.0367  -5.9973  -5.9941
    -5.9518  -5.9383  -5.9138  -5.8864  -5.8601  -5.8476  -5.8191  -5.7948
    -5.7618  -5.6766  -5.6412  -5.6317  -5.5977  -5.5726  -5.4935  -5.4287
    -5.2998  -4.3240  -4.2370  -4.1100  -4.0968  -4.0687  -4.0565  -3.9515
    -3.9409  -3.9300  -3.9223  -3.8725  -3.8600  -3.8460  -3.8437  -3.8328
    -3.8293  -3.8168  -3.8147  -3.8028  -3.8025  -3.7798  -3.7536  -3.7179
    -3.6912  -3.6650  -3.6386  -3.6322  -3.6099  -3.6076  -3.6018  -3.5885
    -3.5683  -3.5593  -3.5562  -3.5488  -3.5335  -3.5266  -3.5185  -3.5132
    -3.5109  -3.4934  -3.4908  -3.4879  -3.4808  -3.4793  -3.4729  -3.4687
    -3.4610  -3.4547  -3.4522  -3.4322  -3.4317  -3.4274  -3.4157  -3.4066
    -3.3947  -3.3594  -3.3574  -3.3540  -3.3497  -3.3492  -3.3439  -3.3414
    -3.3359  -3.3090  -3.3032  -3.2984  -3.2880  -3.2859  -3.2832  -3.2826
    -3.2806  -3.2749  -3.2684  -3.2547  -3.2496  -3.2438  -3.2408  -3.2347
    -3.2261  -3.2197  -3.2166  -3.2140  -3.2102  -3.1995  -3.1930  -3.1866
    -3.1824  -3.1765  -3.1685  -3.1651  -3.1648  -3.1645  -3.1591  -3.1328
    -3.1104  -3.1011  -3.0889  -3.0843  -3.0770  -3.0683  -3.0621  -3.0401
    -3.0335  -3.0271  -3.0262  -3.0246  -3.0244  -3.0210  -3.0190  -3.0162
    -3.0111  -3.0088  -3.0025  -2.9988  -2.9967  -2.9943  -2.9900  -2.9860
    -2.9800  -2.9770  -2.9731  -2.9708  -2.9643  -2.9535  -2.9502  -2.9486
    -2.9437  -2.9375  -2.9356  -2.9300  -2.9174  -2.9083  -2.9035  -2.8979
    -2.8936  -2.8857  -2.8804  -2.8732  -2.8505  -2.8104  -2.8070  -2.7969
    -2.7898  -2.7655  -2.7509  -2.7231  -2.7169  -2.6632  -2.6392  -2.6191
    -2.6033  -2.6017  -2.5843  -2.5792  -2.5631  -2.5509  -2.5428  -2.5347
    -2.5322  -2.5282  -2.5275  -2.5098  -2.4989  -2.4698  -2.4429  -2.4206
    -2.4119  -2.3999  -2.3964  -2.3901  -2.3866  -2.3848  -2.3506  -2.3473

          k =-0.5000-0.2887 0.0000 (386352 PWs)   bands (ev):

  -103.0022-102.9254 -88.3234 -71.3340 -71.3248 -71.3164 -71.2994 -71.2880
   -71.2738 -71.2701 -71.2622 -71.2596 -71.2447 -71.2171 -71.2103 -71.1960
   -71.1927 -66.6294 -66.6240 -66.6237 -66.6237 -66.6237 -66.6224 -66.6224
   -66.6152 -66.6133 -66.6132 -66.6131 -66.6131 -66.6117 -66.6117 -66.6110
   -66.6024 -66.6016 -66.5986 -66.5983 -66.5980 -66.5980 -66.5980 -66.5980
   -66.5978 -66.5978 -66.5966 -66.5966 -66.5966 -66.5966 -66.5946 -66.5938
   -66.5935 -66.5935 -66.5935 -66.5922 -66.5922 -66.5880 -66.5874 -66.5873
   -66.5873 -66.5873 -66.5873 -66.5871 -66.5871 -66.5870 -66.5859 -66.5859
   -66.5859 -66.5859 -66.5832 -66.5830 -66.5829 -66.5828 -66.5828 -66.5815
   -66.5814 -66.5783 -66.5739 -66.5707 -66.5673 -66.5608 -66.5558 -66.5496
   -66.5097 -57.2942 -57.2898 -57.2118 -57.1562 -57.1202 -57.0153 -54.2065
   -54.1633 -53.9517 -40.9262 -40.9259 -40.9258 -40.9257 -40.9257 -40.9257
   -40.9257 -40.9257 -40.9251 -40.9251 -40.9250 -40.9250 -40.9198 -40.9101
   -40.9073 -40.9017 -40.8997 -40.8992 -40.8990 -40.8989 -40.8989 -40.8982
   -40.8982 -40.8871 -40.8870 -40.8869 -40.8868 -40.8862 -40.8862 -40.8807
   -40.8668 -40.8364 -40.8364 -40.8363 -40.8363 -40.8362 -40.8362 -40.8361
   -40.8361 -40.8354 -40.8354 -40.8354 -40.8354 -40.8333 -40.8262 -40.8188
   -40.8085 -40.8037 -40.7984 -40.7943 -40.7828 -40.7776 -40.7775 -40.7774
   -40.7774 -40.7767 -40.7767 -40.7681 -40.7680 -40.7679 -40.7679 -40.7670
   -40.7670 -40.7643 -40.7585 -40.7567 -40.7567 -40.7565 -40.7565 -40.7558
   -40.7558 -40.7514 -40.7381 -40.7353 -40.7314 -40.7297 -40.7273 -40.7273
   -40.7269 -40.7269 -40.7269 -40.7269 -40.7268 -40.7268 -40.7261 -40.7261
   -40.7261 -40.7261 -40.7233 -40.7207 -40.7184 -40.7183 -40.7182 -40.7182
   -40.7174 -40.7174 -40.7143 -40.7085 -40.7066 -40.7065 -40.7064 -40.7064
   -40.7064 -40.7062 -40.7059 -40.7059 -40.7059 -40.7059 -40.7058 -40.7058
   -40.7055 -40.7055 -40.7051 -40.7051 -40.7051 -40.7051 -40.7050 -40.6974
   -40.6973 -40.6972 -40.6972 -40.6964 -40.6964 -40.6954 -40.6927 -40.6892
   -40.6810 -40.6761 -40.6756 -40.6755 -40.6755 -40.6755 -40.6754 -40.6754
   -40.6753 -40.6745 -40.6745 -40.6745 -40.6745 -40.6663 -40.6612 -40.6550
   -40.6539 -40.6433 -40.6410 -40.6409 -40.6408 -40.6408 -40.6407 -40.6407
   -40.6407 -40.6407 -40.6398 -40.6397 -40.6397 -40.6397 -40.6288 -40.6286
   -40.6286 -40.6286 -40.6276 -40.6276 -40.6251 -40.6213 -40.6134 -40.6097
   -40.6093 -40.6092 -40.6091 -40.6087 -40.6083 -40.6083 -40.6014 -40.5968
   -40.5925 -40.5923 -40.5923 -40.5923 -40.5913 -40.5912 -40.5867 -40.5722
   -40.5619 -40.5616 -40.5616 -40.5616 -40.5615 -40.5606 -40.5606 -40.5468
   -40.5354 -40.5312 -20.2020 -19.9289 -19.8761 -19.8613 -19.7813 -19.7618
   -19.6698 -19.6587 -19.5487 -19.5328 -19.4368 -19.4335 -19.3481 -19.3408
   -19.2492 -19.2372 -19.1995 -19.0853 -18.9147 -18.8312 -18.7969 -18.7369
   -18.7344 -18.7283 -18.7262 -18.7176 -18.7142 -18.6888 -18.6774 -18.6607
   -18.6559 -18.6411 -18.6240 -18.6190 -18.6021 -18.5670 -18.5624 -18.5578
   -18.5478 -18.5349 -18.5310 -18.5147 -18.5024 -18.4833 -18.4772 -18.4636
   -18.4227 -18.4170 -18.4115 -18.4079 -18.3854 -18.3616 -18.3584 -18.3461
   -18.3350 -18.3062 -18.2699 -18.2659 -18.2570 -18.2398 -18.2353 -18.2106
   -18.1926 -18.1876 -18.1745 -18.1547 -18.1316 -18.1263 -18.1159 -18.1086
   -18.1040 -18.1033 -18.1008 -18.0936 -18.0788 -18.0776 -18.0753 -18.0738
   -18.0694 -18.0635 -18.0604 -18.0546 -18.0506 -18.0483 -18.0177 -18.0150
   -18.0136 -18.0113 -18.0077 -18.0031 -18.0021 -18.0008 -17.9956 -17.9880
   -17.9621 -17.9536 -17.9463 -17.9420 -17.9405 -17.9376 -17.9026 -17.9012
   -17.8942 -17.8889 -17.8763 -17.8588 -17.8520 -17.8497 -17.8440 -17.8404
   -17.8250 -17.8246 -17.8238 -17.8232 -17.8229 -17.8212 -17.8108 -17.8089
   -17.7920 -17.7880 -17.7674 -17.7636 -17.7484 -17.7437 -17.7329 -17.7303
   -17.7244 -17.7240 -12.2283 -12.1084 -11.9228 -11.7526 -11.7220 -11.7040
   -11.6767 -11.6430 -11.5788 -11.5195 -11.5090 -11.5037 -11.5018 -11.5000
   -11.4748 -11.4562 -11.4279 -11.4159 -11.3985 -11.3927 -11.3908 -11.3750
   -11.3522 -11.3439 -11.3308 -11.3134 -11.2965 -11.2867 -11.2791 -11.2777
   -11.2690 -11.2649 -11.2599 -11.2545 -11.2185 -11.2113 -11.2091 -11.1993
   -11.1948 -11.1857 -11.1768 -11.1727 -11.1678 -11.1534 -11.1519 -11.1450
   -11.1399 -11.1245 -11.1079 -11.1027 -11.0840 -11.0638 -11.0559 -11.0311
   -10.9812 -10.9751 -10.9699 -10.9424 -10.9273 -10.9266 -10.9231 -10.9132
   -10.8882 -10.8595 -10.8502 -10.8398 -10.8308 -10.8286 -10.8249 -10.8217
   -10.8167 -10.8163 -10.8161 -10.8139 -10.8097 -10.8011 -10.7983 -10.7973
   -10.7925 -10.7906 -10.7886 -10.7868 -10.7568 -10.7495 -10.7485 -10.7480
   -10.7418 -10.7230 -10.6863 -10.5811 -10.5558 -10.5394 -10.5365 -10.5176
   -10.4811 -10.4412 -10.4274 -10.3788 -10.3020 -10.2722 -10.2479 -10.2327
   -10.1727 -10.1468 -10.1378 -10.1247 -10.1168 -10.1102 -10.0922 -10.0856
   -10.0581 -10.0444 -10.0426 -10.0416 -10.0304 -10.0263 -10.0213 -10.0123
    -9.9895  -9.9618  -9.9450  -9.9397  -9.9378  -9.9066  -9.9034  -9.8959
    -9.8945  -9.8859  -9.8683  -9.8508  -9.8408  -9.8305  -9.8096  -9.8025
    -9.7968  -9.7856  -9.7739  -9.7683  -9.7285  -9.7140  -9.7015  -9.6869
    -9.6794  -9.6697  -9.6656  -9.6599  -9.6379  -9.6244  -9.6105  -9.6104
    -9.5892  -9.5728  -9.5705  -9.5520  -9.5467  -9.5435  -9.5306  -9.4982
    -9.4943  -9.4929  -9.4854  -9.4822  -9.4713  -9.4674  -9.4661  -9.4618
    -9.4522  -9.4469  -9.4349  -9.4178  -9.4062  -9.3750  -9.3566  -9.3004
    -9.2849  -9.2640  -9.2601  -9.2475  -9.2306  -9.2235  -9.2126  -9.1957
    -9.1849  -9.1763  -9.1663  -9.1360  -9.1318  -9.1294  -9.1127  -9.1011
    -9.0972  -9.0790  -9.0612  -9.0554  -9.0509  -9.0474  -9.0163  -9.0078
    -9.0029  -8.9944  -8.9808  -8.9716  -8.9559  -8.9539  -8.9488  -8.9431
    -8.9100  -8.9037  -8.8986  -8.8969  -8.8960  -8.8929  -8.8892  -8.8852
    -8.8803  -8.8749  -8.8734  -8.8725  -8.8710  -8.8653  -8.8612  -8.8569
    -8.8496  -8.8449  -8.8444  -8.8237  -8.8098  -8.8010  -8.7982  -8.7978
    -8.7922  -8.7895  -8.7842  -8.7743  -8.7677  -8.7673  -8.7479  -8.7376
    -8.7374  -8.7351  -8.7188  -8.7112  -8.6689  -8.6626  -8.6559  -8.6255
    -8.5917  -8.5169  -8.5086  -8.5057  -8.4685  -8.4562  -8.4486  -8.4451
    -8.4050  -8.3631  -8.3575  -8.3002  -8.2513  -8.2384  -8.1765  -8.1564
    -8.1323  -8.1322  -8.1235  -8.1232  -8.1120  -8.1118  -8.0918  -8.0705
    -8.0575  -8.0232  -7.9836  -7.9780  -7.9766  -7.9721  -7.9454  -7.9072
    -7.8805  -7.8693  -7.8548  -7.8466  -7.8418  -7.8363  -7.8285  -7.8238
    -7.8219  -7.8114  -7.8103  -7.8041  -7.8022  -7.8013  -7.7931  -7.7893
    -7.7868  -7.7853  -7.7828  -7.7743  -7.7732  -7.7716  -7.7692  -7.7683
    -7.7679  -7.7630  -7.7628  -7.7507  -7.7468  -7.7376  -7.7360  -7.7348
    -7.7281  -7.7067  -7.7029  -7.7013  -7.7009  -7.6978  -7.6737  -7.6722
    -7.6704  -7.6700  -7.6663  -7.6601  -7.6557  -7.6537  -7.6367  -7.6210
    -7.6163  -7.6137  -7.6131  -7.6114  -7.6077  -7.5907  -7.5904  -7.5879
    -7.5762  -7.5692  -7.5688  -7.5631  -7.5594  -7.5522  -7.5313  -7.4924
    -7.4687  -7.4651  -7.4635  -7.4511  -7.4354  -7.4118  -7.3701  -7.3056
    -7.2704  -7.2133  -7.2036  -7.1792  -7.1777  -7.1724  -7.1716  -7.1419
    -7.1327  -7.1249  -7.1151  -7.1076  -7.0934  -7.0858  -7.0712  -7.0473
    -7.0325  -7.0277  -7.0235  -7.0133  -6.9847  -6.9811  -6.9783  -6.9558
    -6.9347  -6.9211  -6.9187  -6.8924  -6.8883  -6.8868  -6.8650  -6.8641
    -6.8592  -6.8390  -6.8114  -6.8007  -6.7807  -6.7662  -6.7529  -6.7437
    -6.7080  -6.7006  -6.6863  -6.6612  -6.6309  -6.6248  -6.6163  -6.6109
    -6.6094  -6.6090  -6.6048  -6.5956  -6.5924  -6.5919  -6.5900  -6.5874
    -6.5835  -6.5835  -6.5831  -6.5827  -6.5712  -6.5626  -6.5249  -6.4942
    -6.4755  -6.4277  -6.4206  -6.3665  -6.3441  -6.3279  -6.3253  -6.3207
    -6.3176  -6.3107  -6.3015  -6.2854  -6.2821  -6.2800  -6.2770  -6.2766
    -6.2657  -6.2618  -6.2582  -6.2568  -6.2471  -6.2222  -6.2115  -6.2094
    -6.2076  -6.1997  -6.1717  -6.1149  -6.0833  -6.0201  -5.9965  -5.9867
    -5.9600  -5.9297  -5.9179  -5.8890  -5.8614  -5.8513  -5.8361  -5.8100
    -5.7652  -5.7053  -5.6639  -5.6299  -5.6044  -5.5641  -5.4986  -5.4117
    -5.3082  -4.2957  -4.2347  -4.1152  -4.1004  -4.0874  -4.0489  -3.9562
    -3.9468  -3.9373  -3.9134  -3.9123  -3.8504  -3.8456  -3.8368  -3.8320
    -3.8232  -3.8180  -3.8151  -3.8041  -3.8030  -3.7921  -3.7333  -3.7188
    -3.7051  -3.6982  -3.6215  -3.6167  -3.6069  -3.6050  -3.6006  -3.5846
    -3.5584  -3.5568  -3.5543  -3.5409  -3.5301  -3.5223  -3.5218  -3.5181
    -3.5089  -3.4977  -3.4909  -3.4866  -3.4806  -3.4794  -3.4757  -3.4734
    -3.4526  -3.4512  -3.4448  -3.4390  -3.4284  -3.4215  -3.4109  -3.4059
    -3.3866  -3.3598  -3.3554  -3.3520  -3.3502  -3.3486  -3.3430  -3.3385
    -3.3271  -3.3133  -3.3084  -3.3001  -3.2948  -3.2862  -3.2846  -3.2813
    -3.2782  -3.2780  -3.2742  -3.2584  -3.2569  -3.2455  -3.2413  -3.2385
    -3.2344  -3.2187  -3.2151  -3.2129  -3.2121  -3.1989  -3.1951  -3.1874
    -3.1852  -3.1820  -3.1709  -3.1649  -3.1649  -3.1591  -3.1385  -3.1280
    -3.1139  -3.1088  -3.0967  -3.0803  -3.0752  -3.0687  -3.0637  -3.0423
    -3.0297  -3.0275  -3.0271  -3.0244  -3.0241  -3.0210  -3.0181  -3.0170
    -3.0128  -3.0101  -3.0021  -2.9965  -2.9926  -2.9903  -2.9863  -2.9825
    -2.9791  -2.9780  -2.9688  -2.9604  -2.9570  -2.9526  -2.9510  -2.9494
    -2.9470  -2.9380  -2.9337  -2.9276  -2.9129  -2.9101  -2.9054  -2.8967
    -2.8918  -2.8879  -2.8830  -2.8738  -2.8622  -2.8134  -2.8036  -2.8009
    -2.7951  -2.7792  -2.7388  -2.7268  -2.7128  -2.6872  -2.6457  -2.6136
    -2.6056  -2.6003  -2.5776  -2.5751  -2.5637  -2.5484  -2.5431  -2.5325
    -2.5311  -2.5293  -2.5202  -2.5129  -2.4874  -2.4558  -2.4466  -2.4311
    -2.4093  -2.4007  -2.3978  -2.3914  -2.3857  -2.3811  -2.3485  -2.3471

          k =-0.5000-0.8660 0.0000 (386352 PWs)   bands (ev):

  -103.0022-102.9254 -88.3234 -71.3340 -71.3248 -71.3164 -71.2994 -71.2880
   -71.2738 -71.2701 -71.2622 -71.2596 -71.2447 -71.2171 -71.2103 -71.1960
   -71.1927 -66.6297 -66.6240 -66.6238 -66.6237 -66.6237 -66.6224 -66.6224
   -66.6135 -66.6133 -66.6132 -66.6131 -66.6131 -66.6117 -66.6117 -66.6109
   -66.6048 -66.6015 -66.5983 -66.5981 -66.5981 -66.5980 -66.5980 -66.5980
   -66.5980 -66.5979 -66.5966 -66.5966 -66.5966 -66.5966 -66.5953 -66.5938
   -66.5936 -66.5935 -66.5935 -66.5922 -66.5921 -66.5875 -66.5875 -66.5875
   -66.5873 -66.5873 -66.5873 -66.5872 -66.5871 -66.5859 -66.5859 -66.5859
   -66.5859 -66.5854 -66.5830 -66.5829 -66.5828 -66.5828 -66.5824 -66.5815
   -66.5814 -66.5766 -66.5760 -66.5715 -66.5670 -66.5603 -66.5564 -66.5493
   -66.5097 -57.2942 -57.2898 -57.2118 -57.1562 -57.1202 -57.0154 -54.2065
   -54.1633 -53.9517 -40.9271 -40.9260 -40.9259 -40.9259 -40.9258 -40.9258
   -40.9257 -40.9257 -40.9257 -40.9257 -40.9251 -40.9251 -40.9250 -40.9250
   -40.9006 -40.8992 -40.8990 -40.8989 -40.8989 -40.8982 -40.8982 -40.8871
   -40.8870 -40.8869 -40.8868 -40.8862 -40.8862 -40.8857 -40.8846 -40.8751
   -40.8605 -40.8555 -40.8364 -40.8364 -40.8363 -40.8363 -40.8362 -40.8362
   -40.8362 -40.8362 -40.8354 -40.8354 -40.8354 -40.8354 -40.8217 -40.8192
   -40.8151 -40.8079 -40.8068 -40.7984 -40.7858 -40.7777 -40.7775 -40.7774
   -40.7773 -40.7767 -40.7766 -40.7681 -40.7680 -40.7679 -40.7679 -40.7670
   -40.7670 -40.7618 -40.7567 -40.7567 -40.7565 -40.7565 -40.7558 -40.7558
   -40.7539 -40.7476 -40.7422 -40.7361 -40.7303 -40.7272 -40.7271 -40.7270
   -40.7270 -40.7269 -40.7269 -40.7269 -40.7269 -40.7262 -40.7261 -40.7261
   -40.7261 -40.7261 -40.7226 -40.7187 -40.7185 -40.7182 -40.7182 -40.7182
   -40.7174 -40.7174 -40.7145 -40.7122 -40.7066 -40.7065 -40.7064 -40.7064
   -40.7062 -40.7062 -40.7061 -40.7059 -40.7059 -40.7059 -40.7058 -40.7058
   -40.7055 -40.7055 -40.7051 -40.7051 -40.7050 -40.7050 -40.7041 -40.6974
   -40.6973 -40.6972 -40.6972 -40.6964 -40.6964 -40.6954 -40.6906 -40.6845
   -40.6820 -40.6759 -40.6757 -40.6756 -40.6755 -40.6755 -40.6754 -40.6754
   -40.6753 -40.6745 -40.6745 -40.6745 -40.6745 -40.6660 -40.6608 -40.6540
   -40.6451 -40.6410 -40.6409 -40.6408 -40.6408 -40.6407 -40.6407 -40.6407
   -40.6407 -40.6398 -40.6397 -40.6397 -40.6397 -40.6397 -40.6288 -40.6287
   -40.6286 -40.6285 -40.6276 -40.6276 -40.6274 -40.6160 -40.6121 -40.6104
   -40.6099 -40.6096 -40.6093 -40.6092 -40.6092 -40.6083 -40.6082 -40.5924
   -40.5924 -40.5923 -40.5923 -40.5913 -40.5913 -40.5911 -40.5877 -40.5768
   -40.5657 -40.5619 -40.5618 -40.5617 -40.5616 -40.5616 -40.5606 -40.5605
   -40.5405 -40.5143 -20.2065 -19.9152 -19.8758 -19.8558 -19.7809 -19.7585
   -19.6711 -19.6583 -19.5935 -19.5235 -19.4381 -19.4321 -19.3485 -19.3386
   -19.2482 -19.2362 -19.2172 -19.0193 -18.8742 -18.8647 -18.8163 -18.7925
   -18.7298 -18.7283 -18.7260 -18.7251 -18.7142 -18.6977 -18.6636 -18.6611
   -18.6552 -18.6530 -18.6106 -18.5948 -18.5812 -18.5670 -18.5618 -18.5561
   -18.5534 -18.5389 -18.5274 -18.4978 -18.4901 -18.4857 -18.4752 -18.4606
   -18.4433 -18.4179 -18.4166 -18.4099 -18.3938 -18.3766 -18.3648 -18.3379
   -18.3322 -18.3099 -18.2898 -18.2779 -18.2559 -18.2448 -18.2255 -18.2084
   -18.1948 -18.1830 -18.1681 -18.1471 -18.1384 -18.1272 -18.1109 -18.1078
   -18.1040 -18.1037 -18.0964 -18.0832 -18.0818 -18.0790 -18.0761 -18.0706
   -18.0697 -18.0652 -18.0593 -18.0572 -18.0502 -18.0416 -18.0171 -18.0147
   -18.0121 -18.0090 -18.0062 -18.0046 -18.0032 -17.9985 -17.9943 -17.9883
   -17.9577 -17.9518 -17.9470 -17.9418 -17.9365 -17.9311 -17.9098 -17.8966
   -17.8940 -17.8858 -17.8834 -17.8638 -17.8515 -17.8486 -17.8480 -17.8466
   -17.8248 -17.8241 -17.8240 -17.8234 -17.8232 -17.8227 -17.8120 -17.8087
   -17.7935 -17.7875 -17.7684 -17.7631 -17.7493 -17.7427 -17.7332 -17.7292
   -17.7244 -17.7238 -12.2410 -12.0978 -11.9572 -11.7372 -11.7138 -11.6814
   -11.6678 -11.6138 -11.5466 -11.5374 -11.5142 -11.5048 -11.5024 -11.4890
   -11.4787 -11.4696 -11.4430 -11.4197 -11.4000 -11.3979 -11.3877 -11.3694
   -11.3623 -11.3518 -11.3333 -11.3143 -11.3022 -11.2902 -11.2850 -11.2783
   -11.2708 -11.2641 -11.2628 -11.2597 -11.2376 -11.2149 -11.2093 -11.2056
   -11.1958 -11.1809 -11.1771 -11.1748 -11.1692 -11.1541 -11.1506 -11.1488
   -11.1401 -11.1143 -11.0934 -11.0846 -11.0713 -11.0544 -11.0374 -11.0237
   -10.9837 -10.9719 -10.9601 -10.9467 -10.9411 -10.9255 -10.9131 -10.8930
   -10.8879 -10.8812 -10.8466 -10.8442 -10.8416 -10.8376 -10.8297 -10.8182
   -10.8159 -10.8156 -10.8151 -10.8142 -10.8093 -10.8034 -10.7994 -10.7974
   -10.7964 -10.7897 -10.7884 -10.7860 -10.7827 -10.7493 -10.7484 -10.7478
   -10.7472 -10.7008 -10.6738 -10.6069 -10.5515 -10.5403 -10.5344 -10.5251
   -10.4820 -10.4642 -10.3976 -10.3813 -10.2966 -10.2740 -10.2497 -10.2101
   -10.1997 -10.1611 -10.1332 -10.1291 -10.1212 -10.1149 -10.0857 -10.0755
   -10.0663 -10.0532 -10.0433 -10.0407 -10.0299 -10.0279 -10.0205 -10.0109
    -9.9784  -9.9597  -9.9488  -9.9293  -9.9237  -9.9202  -9.9109  -9.9005
    -9.8976  -9.8879  -9.8825  -9.8672  -9.8495  -9.8369  -9.8062  -9.8004
[...]
     atom  172 type  2   force =     0.00000084    0.00000058    0.00161527
     atom  173 type  2   force =     0.00000072    0.00000010   -0.00236000
     atom  174 type  2   force =    -0.00000060   -0.00000463   -0.00000075
     atom  175 type  1   force =     0.00001588   -0.00000575   -0.00003749
     atom  176 type  1   force =    -0.00017991    0.00040588   -0.00002652
     atom  177 type  2   force =    -0.00004121    0.00036103   -0.00030059
     atom  178 type  2   force =    -0.00000770   -0.00008162   -0.00003445
     atom  179 type  2   force =     0.00003275   -0.00003058   -0.00001325
     atom  180 type  2   force =    -0.00013644    0.00031962   -0.00011330
     atom  181 type  1   force =     0.00000235   -0.00000050    0.00068810
     atom  182 type  1   force =    -0.00001009   -0.00001221    0.00000128
     atom  183 type  2   force =    -0.00000116   -0.00000088    0.00000436
     atom  184 type  2   force =     0.00000078    0.00000067    0.00161530
     atom  185 type  2   force =     0.00000059    0.00000018   -0.00236002
     atom  186 type  2   force =     0.00000045   -0.00000216    0.00000435
     atom  187 type  1   force =     0.00002129    0.00001313   -0.00005029
     atom  188 type  1   force =    -0.00012086    0.00018907   -0.00004218
     atom  189 type  2   force =    -0.00008100   -0.00034617   -0.00042166
     atom  190 type  2   force =    -0.00002736   -0.00002310   -0.00005436
     atom  191 type  2   force =     0.00002955    0.00000940   -0.00005298
     atom  192 type  2   force =    -0.00016655    0.00026985    0.00001554
     atom  193 type  3   force =    -0.00067533    0.00032043   -0.00040825
     atom  194 type  4   force =    -0.00070353    0.00023348   -0.00006693
     atom  195 type  3   force =    -0.00002873    0.00002203    0.00040558

     Total force =     0.003481     Total SCF correction =     0.000502
     SCF correction compared to forces is large: reduce conv_thr to get better values
     Energy error            =      2.6E-05 Ry
     Gradient error          =      9.4E-04 Ry/Bohr

     bfgs converged in  42 scf cycles and  41 bfgs steps
     (criteria: energy <  1.0E-04 Ry, force <  1.0E-03 Ry/Bohr)

     End of BFGS Geometry Optimization

     Final energy             =  -35654.9458558247 Ry

     File ./outdir/pwscf.bfgs deleted, as requested
Begin final coordinates

ATOMIC_POSITIONS (angstrom)
Mo               0.0000119917        1.8193638619       -9.1672481230    0   0   0
Mo               1.5756136568        0.9097075315       -3.0554901653    0   0   0
S                0.0000188998        1.8193822938       -4.6232556019    0   0   0
S                1.5756321638        0.9096773839       -7.6014065489    0   0   0
S                1.5756326175        0.9096785128      -10.7330757790    0   0   0
S                0.0000189190        1.8193860094       -1.4877129945    0   0   0
Mo              -0.0001437386        1.8185336379        3.0577167294
Mo               1.5743536908        0.8927780303        9.1430332844
S               -0.0075588140        1.7786331917        7.5601911717
S                1.5761079365        0.9081499783        4.6236382962
S                1.5753747551        0.9092437023        1.4891273239
S                0.0025758583        1.8029473105       10.7121471622
Mo              -1.5756053507        4.5484193819       -9.1672481230    0   0   0
Mo               0.0000378379        3.6387394919       -3.0554952701    0   0   0
S               -1.5755913433        4.5484363582       -4.6232494962    0   0   0
S                0.0000148214        3.6387329039       -7.6014065489    0   0   0
S                0.0000152751        3.6387340328      -10.7330757790    0   0   0
S               -1.5755906502        4.5484413613       -1.4877305502    0   0   0
Mo              -1.5754843087        4.5476432087        3.0580739922
Mo               0.0229997877        3.5984941235        9.1111073673
S               -1.5986348614        4.5440985029        7.6109716370
S                0.0003873191        3.6381312920        4.6261445692
S                0.0000520201        3.6380527974        1.4901720728
S               -1.4315518055        4.6157283233       10.7033411011
Mo              -3.1512226931        7.2774749019       -9.1672481230    0   0   0
Mo              -1.5755910988        6.3678216792       -3.0555115988    0   0   0
S               -3.1512162438        7.2774954350       -4.6232578178    0   0   0
S               -1.5756025210        6.3677884239       -7.6014065489    0   0   0
S               -1.5756020673        6.3677895528      -10.7330757790    0   0   0
S               -3.1512127704        7.2774877076       -1.4877200710    0   0   0
Mo              -3.1513194666        7.2763066237        3.0572722445
Mo              -1.5846360672        6.3956295348        9.1517902965
S               -3.1679757924        7.2684135419        7.5775729158
S               -1.5750893877        6.3673368317        4.6253848653
S               -1.5755670773        6.3666885210        1.4897359420
S               -3.1593119974        7.2771562472       10.7264828406
Mo              -4.7268400355       10.0065304219       -9.1672481230    0   0   0
Mo              -3.1512405618        9.0968403586       -3.0554816746    0   0   0
S               -4.7268341792       10.0065523623       -4.6232463762    0   0   0
S               -3.1512198634        9.0968439439       -7.6014065489    0   0   0
S               -3.1512194097        9.0968450728      -10.7330757790    0   0   0
S               -4.7268370797       10.0065537885       -1.4877176751    0   0   0
Mo              -4.7270260381       10.0053359010        3.0561982099
Mo              -3.1551644282        9.0872754258        9.1496141786
S               -4.7339465511        9.9868252427        7.5816019505
S               -3.1514236565        9.0959093205        4.6238475001
S               -3.1510155801        9.0956194788        1.4889338273
S               -4.7245395802        9.9994958939       10.7188657945
Mo               3.1512517547        1.8193638619       -9.1672481230    0   0   0
Mo               4.7269020221        0.9097289540       -3.0554823951    0   0   0
S                3.1512612351        1.8193882564       -4.6232320683    0   0   0
S                4.7268719268        0.9096773839       -7.6014065489    0   0   0
S                4.7268723805        0.9096785128      -10.7330757790    0   0   0
S                3.1512592485        1.8193890201       -1.4877261251    0   0   0
Mo               3.1515628577        1.8185469514        3.0567670542
Mo               4.7267676180        0.8965489785        9.1480572025
S                3.1558375441        1.8047295581        7.5749399811
S                4.7276657704        0.9089117824        4.6241357286
S                4.7269038817        0.9086915486        1.4890635953
S                3.1563892318        1.7847863240       10.7172414191
Mo               1.5756344123        4.5484193819       -9.1672481230    0   0   0
Mo               3.1512756394        3.6387769522       -3.0554814834    0   0   0
S                1.5756504879        4.5484423799       -4.6232390542    0   0   0
S                3.1512545844        3.6387329039       -7.6014065489    0   0   0
S                3.1512550381        3.6387340328      -10.7330757790    0   0   0
S                1.5756466253        4.5484431864       -1.4877251801    0   0   0
Mo               1.5758613223        4.5477743758        3.0575215826
Mo               3.1767590840        3.6127260606        9.1572382487
S                1.6036638613        4.5693842724        7.6108831554
S                3.1518909454        3.6378032277        4.6249964435
S                3.1512890919        3.6382088771        1.4894911130
S                1.5867321360        4.3684628842       10.7790321518
Mo               0.0000170699        7.2774749019       -9.1672481230    0   0   0
Mo               1.5756764447        6.3678236689       -3.0554877708    0   0   0
S                0.0000381981        7.2774979204       -4.6232454413    0   0   0
S                1.5756372420        6.3677884239       -7.6014065489    0   0   0
S                1.5756376957        6.3677895528      -10.7330757790    0   0   0
S                0.0000328088        7.2774946042       -1.4877307940    0   0   0
Mo               0.0003366499        7.2765685673        3.0570014061
Mo               1.5758539173        6.3536779213        9.2104338973
S                0.0333472499        7.2703982954        7.6202410056
S                1.5761810647        6.3674382389        4.6245282420
S                1.5751856099        6.3664853655        1.4887431481
S               -0.1025034285        7.3675320273       10.7761343952
Mo              -1.5756002725       10.0065304219       -9.1672481230    0   0   0
Mo               0.0000873425        9.0968676911       -3.0554912329    0   0   0
S               -1.5755883952       10.0065504530       -4.6232240150    0   0   0
S                0.0000198996        9.0968439439       -7.6014065489    0   0   0
S                0.0000203533        9.0968450728      -10.7330757790    0   0   0
S               -1.5755859047       10.0065492576       -1.4877362381    0   0   0
Mo              -1.5753682073       10.0055042691        3.0568194276
Mo              -0.0006451240        9.1153030011        9.1531343319
S               -1.5783090970        9.9991248552        7.5751953189
S                0.0004882168        9.0959618174        4.6249093823
S                0.0001596991        9.0958532465        1.4892034902
S               -1.5901857491       10.0087856533       10.7203499735
Mo               6.3024915177        1.8193638619       -9.1672481230    0   0   0
Mo               7.8781001445        0.9096521684       -3.0554919963    0   0   0
S                6.3025008696        1.8193826232       -4.6232480596    0   0   0
S                7.8781116898        0.9096773839       -7.6014065489    0   0   0
S                7.8781121435        0.9096785128      -10.7330757790    0   0   0
S                6.3025042007        1.8193849068       -1.4877147524    0   0   0
Mo               6.3028477461        1.8186149554        3.0565344953
Mo               7.8731867308        0.8914171595        9.1735845764
S                6.3115747319        1.8163403452        7.5969913203
S                7.8782272283        0.9090303165        4.6247087270
S                7.8784344021        0.9090540653        1.4887905155
S                6.2958347809        1.8001142673       10.7349335907
Mo               4.7268741753        4.5484193819       -9.1672481230    0   0   0
Mo               6.3024679138        3.6387501714       -3.0554895197    0   0   0
S                4.7268748770        4.5484386753       -4.6232519432    0   0   0
S                6.3024943474        3.6387329039       -7.6014065489    0   0   0
S                6.3024948011        3.6387340328      -10.7330757790    0   0   0
S                4.7268770533        4.5484432419       -1.4877137856    0   0   0
Mo               4.7270966975        4.5476588671        3.0571499096
Mo               6.2952592186        3.6256564572        9.1830977144
S                4.7423636701        4.5439114794        7.6007493436
S                6.3028262002        3.6376340732        4.6247943152
S                6.3026829984        3.6382010601        1.4890323028
S                4.7168414147        4.5268524151       10.7490915027
Mo               3.1512568329        7.2774749019       -9.1672481230    0   0   0
Mo               4.7268384135        6.3678043337       -3.0554959052    0   0   0
S                3.1512606125        7.2774972547       -4.6232589675    0   0   0
S                4.7268770050        6.3677884239       -7.6014065489    0   0   0
S                4.7268774587        6.3677895528      -10.7330757790    0   0   0
S                3.1512629079        7.2774963749       -1.4877081835    0   0   0
Mo               3.1509616638        7.2763995885        3.0559006995
Mo               4.7364592347        6.3501778911        9.1909881550
S                3.1371026949        7.2561751160        7.6526999141
S                4.7258480318        6.3671320489        4.6247945575
S                4.7269886541        6.3667003483        1.4888427047
S                3.2417588728        7.3198989682       10.8298319281
Mo               1.5756394905       10.0065304219       -9.1672481230    0   0   0
Mo               3.1512330605        9.0968514907       -3.0554878870    0   0   0
S                1.5756499830       10.0065443759       -4.6232632674    0   0   0
S                3.1512596626        9.0968439439       -7.6014065489    0   0   0
S                3.1512601163        9.0968450728      -10.7330757790    0   0   0
S                1.5756503041       10.0065459699       -1.4877044377    0   0   0
Mo               1.5757646746       10.0057753038        3.0568792928
Mo               3.1534948332        9.0960018276        9.1863637819
S                1.5910665497       10.0025738755        7.5936282764
S                3.1508384857        9.0949077891        4.6244508800
S                3.1511139991        9.0961886651        1.4886839952
S                1.5655049827        9.9951749997       10.7420015695
Mo               9.4537312807        1.8193638619       -9.1672481230    0   0   0
Mo              11.0293863460        0.9096952246       -3.0554894007    0   0   0
S                9.4537395970        1.8193770750       -4.6232328036    0   0   0
S               11.0293514528        0.9096773839       -7.6014065489    0   0   0
S               11.0293519066        0.9096785128      -10.7330757790    0   0   0
S                9.4537393632        1.8193794783       -1.4877366147    0   0   0
Mo               9.4535492753        1.8186914186        3.0568351552
Mo              11.0373676864        0.8842760151        9.1646609067
S                9.4517521867        1.8249107695        7.6294764327
S               11.0282033719        0.9084239649        4.6246699133
S               11.0294598694        0.9088545909        1.4896236130
S                9.4595060294        1.7142764698       10.7930317998
Mo               7.8781139383        4.5484193819       -9.1672481230    0   0   0
Mo               9.4537539161        3.6387607911       -3.0554933032    0   0   0
S                7.8781175448        4.5484378232       -4.6232366318    0   0   0
S                9.4537341104        3.6387329039       -7.6014065489    0   0   0
S                9.4537345641        3.6387340328      -10.7330757790    0   0   0
S                7.8781194018        4.5484411585       -1.4877377057    0   0   0
Mo               7.8781764346        4.5474695236        3.0570160659
Mo               9.4535618752        3.6300909826        9.1962686740
S                7.8890886214        4.5236327230        7.6342318246
S                9.4534561903        3.6376707217        4.6253416463
S                9.4541615217        3.6383497169        1.4896351060
S                7.8055204262        4.5819799076       10.8090961611
Mo               6.3024965959        7.2774749019       -9.1672481230    0   0   0
Mo               7.8781361655        6.3678242352       -3.0555014130    0   0   0
S                6.3024973331        7.2774953556       -4.6232392528    0   0   0
S                7.8781167680        6.3677884239       -7.6014065489    0   0   0
S                7.8781172217        6.3677895528      -10.7330757790    0   0   0
S                6.3024989866        7.2774929744       -1.4877349119    0   0   0
Mo               6.3021198345        7.2762732135        3.0571352193
Mo               7.8742421053        6.3622977979        9.1739234342
S                6.2946683497        7.2548761282        7.6017572982
S                7.8776468830        6.3662634718        4.6249829434
S                7.8779854976        6.3669506701        1.4893950685
S                6.3137862837        7.2772836234       10.7460248202
Mo               4.7268792535       10.0065304219       -9.1672481230    0   0   0
Mo               6.3025111524        9.0968738021       -3.0554915260    0   0   0
S                4.7268840634       10.0065452125       -4.6232380477    0   0   0
S                6.3024994256        9.0968439439       -7.6014065489    0   0   0
S                6.3024998793        9.0968450728      -10.7330757790    0   0   0
S                4.7268847312       10.0065459141       -1.4877283294    0   0   0
Mo               4.7264977122       10.0052621085        3.0570398211
Mo               6.3015162585        9.0812218678        9.1612768258
S                4.7187410771        9.9849415032        7.5962147572
S                6.3023102400        9.0955677553        4.6244900085
S                6.3020195176        9.0956086880        1.4891214099
S                4.7450330736        9.9954421348       10.7423001506
Pt               1.5112350970        6.2715521960       12.0036819139
Pd              -0.2774856815        4.2236144990       12.6322452086
Pt               9.6377799541        3.7054376480       12.0324490077
End final coordinates



     Writing all to output data dir ./outdir/pwscf.save/ :
     XML data file, charge density, pseudopotentials, collected wavefunctions
 
     init_run     :    175.92s CPU    179.30s WALL (       1 calls)
     electrons    : 135578.69s CPU 137262.55s WALL (      14 calls)
     update_pot   :     25.89s CPU     26.65s WALL (      13 calls)
     forces       :   1857.96s CPU   1890.63s WALL (      14 calls)
     force_dftd3  :      9.62s CPU     10.07s WALL (      14 calls)

     Called by init_run:
     wfcinit      :    151.55s CPU    153.27s WALL (       1 calls)
     potinit      :      1.66s CPU      1.82s WALL (       1 calls)
     hinit0       :     13.07s CPU     13.26s WALL (       1 calls)

     Called by electrons:
     c_bands      : 120895.90s CPU 122043.12s WALL (     203 calls)
     sum_band     :  13084.98s CPU  13374.19s WALL (     203 calls)
     v_of_rho     :     73.03s CPU     82.25s WALL (     205 calls)
     newd         :   1297.97s CPU   1538.35s WALL (     205 calls)
     PAW_pot      :    255.01s CPU    257.11s WALL (     218 calls)
     mix_rho      :     20.52s CPU     23.74s WALL (     203 calls)
     energy_dftd3 :      5.65s CPU      5.70s WALL (      14 calls)

     Called by c_bands:
     init_us_2    :    432.68s CPU    434.85s WALL (    1736 calls)
     init_us_2:cp :    432.66s CPU    434.83s WALL (    1736 calls)
     cegterg      : 119010.39s CPU 120141.42s WALL (     848 calls)

     Called by *egterg:
     cdiaghg      :   6944.89s CPU   7199.49s WALL (   10532 calls)
     h_psi        :  59519.76s CPU  59887.90s WALL (   10655 calls)
     s_psi        :  13528.83s CPU  13615.22s WALL (   10655 calls)
     g_psi        :    109.80s CPU    110.31s WALL (    9803 calls)

     Called by h_psi:
     h_psi:calbec :  13653.98s CPU  13700.61s WALL (   10655 calls)
     vloc_psi     :  32070.66s CPU  32225.11s WALL (   10655 calls)
     add_vuspsi   :  13549.29s CPU  13636.65s WALL (   10655 calls)

     General routines
     calbec       :  19067.44s CPU  19132.79s WALL (   11743 calls)
     fft          :     80.28s CPU     88.46s WALL (    2816 calls)
     ffts         :      3.62s CPU      3.89s WALL (     408 calls)
     fftw         :  24103.06s CPU  24217.61s WALL ( 6287332 calls)
     interpolate  :      6.41s CPU      7.01s WALL (     205 calls)
 
     Parallel routines
 
     PWSCF        :   1d14h23m CPU   1d14h53m WALL

 
   This run was terminated on:  22:28:20  23Apr2024            

=------------------------------------------------------------------------------=
   JOB DONE.
=------------------------------------------------------------------------------=
