
     Program PWSCF v.7.3 starts on  9Mar2024 at 11: 6:23 

     This program is part of the open-source Quantum ESPRESSO suite
     for quantum simulation of materials; please cite
         "P. Giannozzi et al., J. Phys.:Condens. Matter 21 395502 (2009);
         "P. Giannozzi et al., J. Phys.:Condens. Matter 29 465901 (2017);
         "P. Giannozzi et al., J. Chem. Phys. 152 154105 (2020);
          URL http://www.quantum-espresso.org", 
     in publications or presentations arising from this work. More details at
     http://www.quantum-espresso.org/quote

     Parallel version (MPI & OpenMP), running on      36 processor cores
     Number of MPI processes:                36
     Threads/MPI process:                     1

     MPI processes distributed on     1 nodes
     554035 MiB available memory on the printing compute node when the environment starts
 
     Waiting for input...
     Reading input from standard input
Warning: card &CELL ignored
Warning: card / ignored

     Current dimensions of program PWSCF are:
     Max number of different atomic species (ntypx) = 10
     Max number of k-points (npk) =  40000
     Max angular momentum in pseudopotentials (lmaxx) =  4
     file Mo.pbe-spn-kjpaw_psl.1.0.0.UPF: wavefunction(s)  4S 4D renormalized
     file S.pbe-n-kjpaw_psl.1.0.0.UPF: wavefunction(s)  3S 3P renormalized
     file Pt.pbe-spfn-kjpaw_psl.1.0.0.UPF: wavefunction(s)  5P 4F renormalized
     file Pd.pbe-spn-kjpaw_psl.1.0.0.UPF: wavefunction(s)  4S 5S 4D renormalized
 
     R & G space division:  proc/nbgrp/npool/nimage =      36
     Subspace diagonalization in iterative solution of the eigenvalue problem:
     one sub-group per band group will be used
     scalapack distributed-memory algorithm (size of sub-group:  6*  6 procs)

 
     Parallelization info
     --------------------
     sticks:   dense  smooth     PW     G-vecs:    dense   smooth      PW
     Min         586     335     89               165416    71459    9765
     Max         587     337     90               165425    71461    9778
     Sum       21109   12085   3205              5955087  2572543  351657
 
     Using Slab Decomposition
 


     bravais-lattice index     =            0
     lattice parameter (alat)  =      23.8395  a.u.
     unit-cell volume          =   28182.8498 (a.u.)^3
     number of atoms/cell      =          146
     number of atomic types    =            4
     number of electrons       =      1298.00
     number of Kohn-Sham states=          779
     kinetic-energy cutoff     =      77.0000  Ry
     charge density cutoff     =     539.0000  Ry
     scf convergence threshold =      1.0E-06
     mixing beta               =       0.2000
     number of iterations used =            8  plain     mixing
     energy convergence thresh.=      1.0E-04
     force convergence thresh. =      1.0E-03
     Exchange-correlation= SLA  PW   PBX  PBC
                           (   1   4   3   4   0   0   0)
     nstep                     =         1000


     Effective Screening Medium Method
     =================================
     Boundary Conditions: Vacuum-Slab-Vacuum
     total charge in unit cell        =   0.0000
     grid points for fit at edges     =        4 
 

     celldm(1)=  23.839504  celldm(2)=   0.000000  celldm(3)=   0.000000
     celldm(4)=   0.000000  celldm(5)=   0.000000  celldm(6)=   0.000000

     crystal axes: (cart. coord. in units of alat)
               a(1) = (   1.000000   0.000000   0.000000 )  
               a(2) = (  -0.500001   0.866026   0.000000 )  
               a(3) = (   0.000000   0.000000   2.401941 )  

     reciprocal axes: (cart. coord. in units 2 pi/alat)
               b(1) = (  1.000000  0.577351  0.000000 )  
               b(2) = (  0.000000  1.154700  0.000000 )  
               b(3) = (  0.000000  0.000000  0.416330 )  


     PseudoPot. # 1 for Mo read from file:
     ./pseudo/Mo.pbe-spn-kjpaw_psl.1.0.0.UPF
     MD5 check sum: 317bf72632116215fd98f72de1686f13
     Pseudo is Projector augmented-wave + core cor, Zval = 14.0
     Generated using 'atomic' code by A. Dal Corso  v.7.2
     Shape of augmentation charge: PSQ
     Using radial grid of 1229 points,  6 beta functions with: 
                l(1) =   0
                l(2) =   0
                l(3) =   1
                l(4) =   1
                l(5) =   2
                l(6) =   2
     Q(r) pseudized with 0 coefficients 


     PseudoPot. # 2 for S  read from file:
     ./pseudo/S.pbe-n-kjpaw_psl.1.0.0.UPF
     MD5 check sum: 8b7b5302570d38d5e87fed6a1065abda
     Pseudo is Projector augmented-wave + core cor, Zval =  6.0
     Generated using 'atomic' code by A. Dal Corso  v.7.2
     Shape of augmentation charge: PSQ
     Using radial grid of 1151 points,  6 beta functions with: 
                l(1) =   0
                l(2) =   0
                l(3) =   1
                l(4) =   1
                l(5) =   2
                l(6) =   2
     Q(r) pseudized with 0 coefficients 


     PseudoPot. # 3 for Pt read from file:
     ./pseudo/Pt.pbe-spfn-kjpaw_psl.1.0.0.UPF
     MD5 check sum: 620096ebf4e6ebacc94de60fd67efcb5
     Pseudo is Projector augmented-wave + core cor, Zval = 32.0
     Generated using 'atomic' code by A. Dal Corso  v.7.2
     Shape of augmentation charge: PSQ
     Using radial grid of 1277 points,  8 beta functions with: 
                l(1) =   0
                l(2) =   0
                l(3) =   1
                l(4) =   1
                l(5) =   2
                l(6) =   2
                l(7) =   3
                l(8) =   3
     Q(r) pseudized with 0 coefficients 


     PseudoPot. # 4 for Pd read from file:
     ./pseudo/Pd.pbe-spn-kjpaw_psl.1.0.0.UPF
     MD5 check sum: a60571a671f2502b8a6a4569d20a6edb
     Pseudo is Projector augmented-wave + core cor, Zval = 18.0
     Generated using 'atomic' code by A. Dal Corso  v.7.2
     Shape of augmentation charge: PSQ
     Using radial grid of 1235 points,  6 beta functions with: 
                l(1) =   0
                l(2) =   0
                l(3) =   1
                l(4) =   1
                l(5) =   2
                l(6) =   2
     Q(r) pseudized with 0 coefficients 


     atomic species   valence    mass     pseudopotential
     Mo               14.00    95.95000     Mo( 1.00)
     S                 6.00    32.06000     S ( 1.00)
     Pt               32.00   195.08400     Pt( 1.00)
     Pd               18.00   106.42000     Pd( 1.00)

     No symmetry found



   Cartesian axes

     site n.     atom                  positions (alat units)
         1        Mo     tau(   1) = (   0.1245066   0.2151403   0.4829270  )
         2        Mo     tau(   2) = (   0.1250004   0.0721694  -0.4825273  )
         3        Mo     tau(   3) = (   0.0000143   0.1443586  -0.0000404  )
         4        S      tau(   4) = (   0.0000004   0.0000006  -0.6064556  )
         5        S      tau(   5) = (   0.1249859   0.0722111  -0.1241825  )
         6        S      tau(   6) = (   0.0002990   0.1445714   0.3572522  )
         7        S      tau(   7) = (   0.0000004   0.0000005  -0.3584711  )
         8        S      tau(   8) = (   0.1250243   0.0721377   0.1241202  )
         9        S      tau(   9) = (  -0.0011552   0.1430195   0.6061730  )
        10        Mo     tau(  10) = (  -0.0014303   0.4332690   0.4829269  )
        11        Mo     tau(  11) = (   0.0000001   0.2886759  -0.4825273  )
        12        Mo     tau(  12) = (  -0.1249759   0.3608474  -0.0000404  )
        13        S      tau(  13) = (  -0.1249999   0.2165071  -0.6064556  )
        14        S      tau(  14) = (   0.0000250   0.2886908  -0.1241273  )
        15        S      tau(  15) = (  -0.1246483   0.3609863   0.3572522  )
        16        S      tau(  16) = (  -0.1249998   0.2165070  -0.3584711  )
        17        S      tau(  17) = (   0.0000923   0.2887297   0.1242244  )
        18        S      tau(  18) = (  -0.1267194   0.3605027   0.6061730  )
        19        Mo     tau(  19) = (  -0.1251617   0.6496109   0.4820319  )
        20        Mo     tau(  20) = (  -0.1250002   0.5051824  -0.4825273  )
        21        Mo     tau(  21) = (  -0.2500022   0.5773395  -0.0001503  )
        22        S      tau(  22) = (  -0.2500002   0.4330136  -0.6064556  )
        23        S      tau(  23) = (  -0.1249718   0.5051500  -0.1241823  )
        24        S      tau(  24) = (  -0.2500018   0.5776353   0.3574746  )
        25        S      tau(  25) = (  -0.2500001   0.4330135  -0.3584711  )
        26        S      tau(  26) = (  -0.1250162   0.5052198   0.1241203  )
        27        S      tau(  27) = (  -0.2500018   0.5771316   0.6060170  )
        28        Mo     tau(  28) = (   0.2499988  -0.0001852   0.4820322  )
        29        Mo     tau(  29) = (  -0.2500004   0.7216889  -0.4825273  )
        30        Mo     tau(  30) = (  -0.3750121   0.7938628  -0.0001504  )
        31        S      tau(  31) = (  -0.3750004   0.6495201  -0.6064556  )
        32        S      tau(  32) = (  -0.2500022   0.7216884  -0.1242395  )
        33        S      tau(  33) = (  -0.3747547   0.7937137   0.3574746  )
        34        S      tau(  34) = (  -0.3750004   0.6495200  -0.3584711  )
        35        S      tau(  35) = (  -0.2500023   0.7216883   0.1240244  )
        36        S      tau(  36) = (  -0.3751912   0.7939655   0.6060169  )
        37        Mo     tau(  37) = (   0.3754907   0.2151405   0.4829271  )
        38        Mo     tau(  38) = (   0.3750004   0.0721694  -0.4825273  )
        39        Mo     tau(  39) = (   0.2499984   0.1443573  -0.0000731  )
        40        S      tau(  40) = (   0.2500004   0.0000006  -0.6064556  )
        41        S      tau(  41) = (   0.3750112   0.0722112  -0.1241824  )
        42        S      tau(  42) = (   0.2499987   0.1444686   0.3583292  )
        43        S      tau(  43) = (   0.2500004   0.0000005  -0.3584711  )
        44        S      tau(  44) = (   0.3749727   0.0721378   0.1241202  )
        45        S      tau(  45) = (   0.2499989   0.1436262   0.6067914  )
        46        Mo     tau(  46) = (   0.2499982   0.4330120   0.4873213  )
        47        Mo     tau(  47) = (   0.2500001   0.2886759  -0.4825273  )
        48        Mo     tau(  48) = (   0.1250313   0.3608632  -0.0000369  )
        49        S      tau(  49) = (   0.1250001   0.2165071  -0.6064556  )
        50        S      tau(  50) = (   0.2499984   0.2886902  -0.1241509  )
        51        S      tau(  51) = (   0.1269276   0.3619573   0.3622727  )
        52        S      tau(  52) = (   0.1250002   0.2165070  -0.3584711  )
        53        S      tau(  53) = (   0.2499983   0.2886817   0.1242427  )
        54        S      tau(  54) = (   0.1143670   0.3547054   0.6129634  )
        55        Mo     tau(  55) = (   0.1240620   0.6506275   0.4829270  )
        56        Mo     tau(  56) = (   0.1249998   0.5051824  -0.4825273  )
        57        Mo     tau(  57) = (   0.0000150   0.5773409  -0.0000731  )
        58        S      tau(  58) = (  -0.0000002   0.4330136  -0.6064556  )
        59        S      tau(  59) = (   0.1250108   0.5051746  -0.1241509  )
        60        S      tau(  60) = (   0.0001121   0.5772840   0.3583290  )
        61        S      tau(  61) = (  -0.0000001   0.4330135  -0.3584711  )
        62        S      tau(  62) = (   0.1250034   0.5051788   0.1242428  )
        63        S      tau(  63) = (  -0.0006172   0.5777056   0.6067911  )
        64        Mo     tau(  64) = (   0.5000733   0.0000423   0.4811256  )
        65        Mo     tau(  65) = (  -0.0000004   0.7216889  -0.4825273  )
        66        Mo     tau(  66) = (  -0.1249927   0.7938628  -0.0001503  )
        67        S      tau(  67) = (  -0.1250004   0.6495201  -0.6064556  )
        68        S      tau(  68) = (   0.0000406   0.7216783  -0.1241824  )
        69        S      tau(  69) = (  -0.1252496   0.7937135   0.3574746  )
        70        S      tau(  70) = (  -0.1250004   0.6495200  -0.3584711  )
        71        S      tau(  71) = (  -0.0000422   0.7216817   0.1241204  )
        72        S      tau(  72) = (  -0.1248129   0.7939655   0.6060170  )
        73        Mo     tau(  73) = (   0.6251034   0.2164454   0.4813717  )
        74        Mo     tau(  74) = (   0.6250004   0.0721694  -0.4825273  )
        75        Mo     tau(  75) = (   0.4999826   0.1443587  -0.0000403  )
        76        S      tau(  76) = (   0.5000004   0.0000006  -0.6064556  )
        77        S      tau(  77) = (   0.6249765   0.0721563  -0.1241436  )
        78        S      tau(  78) = (   0.4996985   0.1445712   0.3572516  )
        79        S      tau(  79) = (   0.5000004   0.0000005  -0.3584711  )
        80        S      tau(  80) = (   0.6250052   0.0721729   0.1241442  )
        81        S      tau(  81) = (   0.5011529   0.1430194   0.6061729  )
        82        Mo     tau(  82) = (   0.5014272   0.4332689   0.4829269  )
        83        Mo     tau(  83) = (   0.5000001   0.2886759  -0.4825273  )
        84        Mo     tau(  84) = (   0.3749652   0.3608633  -0.0000370  )
        85        S      tau(  85) = (   0.3750001   0.2165071  -0.6064556  )
        86        S      tau(  86) = (   0.4999715   0.2886908  -0.1241272  )
        87        S      tau(  87) = (   0.3730698   0.3619571   0.3622724  )
        88        S      tau(  88) = (   0.3750002   0.2165070  -0.3584711  )
        89        S      tau(  89) = (   0.4999043   0.2887298   0.1242243  )
        90        S      tau(  90) = (   0.3856284   0.3547066   0.6129638  )
        91        Mo     tau(  91) = (   0.3759345   0.6506277   0.4829270  )
        92        Mo     tau(  92) = (   0.3749998   0.5051824  -0.4825273  )
        93        Mo     tau(  93) = (   0.2499980   0.5773127  -0.0000370  )
        94        S      tau(  94) = (   0.2499998   0.4330136  -0.6064556  )
        95        S      tau(  95) = (   0.3749852   0.5051745  -0.1241508  )
        96        S      tau(  96) = (   0.2499983   0.5751230   0.3622722  )
        97        S      tau(  97) = (   0.2499999   0.4330135  -0.3584711  )
        98        S      tau(  98) = (   0.3749925   0.5051788   0.1242430  )
        99        S      tau(  99) = (   0.2499985   0.5896211   0.6129642  )
       100        Mo     tau( 100) = (   0.7499990   0.0001203   0.4813716  )
       101        Mo     tau( 101) = (   0.2499996   0.7216889  -0.4825273  )
       102        Mo     tau( 102) = (   0.1250080   0.7938333  -0.0000403  )
       103        S      tau( 103) = (   0.1249996   0.6495201  -0.6064556  )
       104        S      tau( 104) = (   0.2499977   0.7216576  -0.1241273  )
       105        S      tau( 105) = (   0.1250507   0.7934796   0.3572514  )
       106        S      tau( 106) = (   0.1249996   0.6495200  -0.3584711  )
       107        S      tau( 107) = (   0.2499978   0.7215798   0.1242243  )
       108        S      tau( 108) = (   0.1244341   0.7955149   0.6061727  )
       109        Mo     tau( 109) = (  -0.1251058   0.2164455   0.4813720  )
       110        Mo     tau( 110) = (   0.8750004   0.0721694  -0.4825273  )
       111        Mo     tau( 111) = (   0.7499984   0.1443377  -0.0000951  )
       112        S      tau( 112) = (   0.7500004   0.0000006  -0.6064556  )
       113        S      tau( 113) = (   0.8750204   0.0721563  -0.1241436  )
       114        S      tau( 114) = (   0.7499989   0.1443372   0.3571897  )
       115        S      tau( 115) = (   0.7500004   0.0000005  -0.3584711  )
       116        S      tau( 116) = (   0.8749917   0.0721728   0.1241442  )
       117        S      tau( 117) = (   0.7499986   0.1443371   0.6056765  )
       118        Mo     tau( 118) = (  -0.2500015   0.4329261   0.4811261  )
       119        Mo     tau( 119) = (   0.7500001   0.2886759  -0.4825273  )
       120        Mo     tau( 120) = (   0.6249722   0.3608476  -0.0000403  )
       121        S      tau( 121) = (   0.6250001   0.2165071  -0.6064556  )
       122        S      tau( 122) = (   0.7499981   0.2887008  -0.1241435  )
       123        S      tau( 123) = (   0.6246456   0.3609863   0.3572519  )
       124        S      tau( 124) = (   0.6250002   0.2165070  -0.3584711  )
       125        S      tau( 125) = (   0.7499982   0.2886677   0.1241441  )
       126        S      tau( 126) = (   0.6267164   0.3605023   0.6061731  )
       127        Mo     tau( 127) = (  -0.3748420   0.6496111   0.4820319  )
       128        Mo     tau( 128) = (   0.6249998   0.5051824  -0.4825273  )
       129        Mo     tau( 129) = (   0.4999808   0.5773409  -0.0000733  )
       130        S      tau( 130) = (   0.4999998   0.4330136  -0.6064556  )
       131        S      tau( 131) = (   0.6249676   0.5051499  -0.1241823  )
       132        S      tau( 132) = (   0.4998845   0.5772841   0.3583289  )
       133        S      tau( 133) = (   0.4999999   0.4330135  -0.3584711  )
       134        S      tau( 134) = (   0.6250119   0.5052197   0.1241202  )
       135        S      tau( 135) = (   0.5006138   0.5777054   0.6067911  )
       136        Mo     tau( 136) = (  -0.0000756   0.0000425   0.4811258  )
       137        Mo     tau( 137) = (   0.4999996   0.7216889  -0.4825273  )
       138        Mo     tau( 138) = (   0.3749875   0.7938333  -0.0000404  )
       139        S      tau( 139) = (   0.3749996   0.6495201  -0.6064556  )
       140        S      tau( 140) = (   0.4999549   0.7216781  -0.1241825  )
       141        S      tau( 141) = (   0.3749453   0.7934797   0.3572516  )
       142        S      tau( 142) = (   0.3749996   0.6495200  -0.3584711  )
       143        S      tau( 143) = (   0.5000375   0.7216816   0.1241203  )
       144        S      tau( 144) = (   0.3755618   0.7955149   0.6061729  )
       145        Pt     tau( 145) = (   0.2499972   0.4330095   0.7045710  )
       146        Pd     tau( 146) = (   0.1240555   0.6506374   0.7329975  )

     --------------------------------------------
     DFT-D3 Dispersion Correction (3-body terms):
     --------------------------------------------
       Reference C6 values for interpolation: 

         atom   Coordination number   C6
         S          0.000           268.01
         S          0.995           261.99
         S          1.990           251.62
         Mo         0.000          1691.79
         Mo         1.942          1004.01
         Mo        11.056           674.22
         Pd         0.000          1217.01
         Pd         1.863           573.90
         Pd         5.710           531.75
         Pt         0.000           782.29
         Pt         1.919           692.72
         Pt         6.667           673.75

       Values used:

         atom   Coordination number  R0_AB[au]  C6      C8
         Mo        10.173            3.547    674.22  77634.20
         Mo        10.189            3.547    674.22  77634.20
         Mo        10.200            3.547    674.22  77634.20
         S          3.753            3.128    251.62  12327.25
         S          3.858            3.128    251.62  12327.25
         S          3.845            3.128    251.62  12327.25
         S          3.859            3.128    251.62  12327.25
         S          3.860            3.128    251.62  12327.25
         S          3.821            3.128    251.62  12327.25
         Mo        10.180            3.547    674.22  77634.20
         Mo        10.189            3.547    674.22  77634.20
         Mo        10.200            3.547    674.22  77634.20
         S          3.753            3.128    251.62  12327.25
         S          3.859            3.128    251.62  12327.25
         S          3.845            3.128    251.62  12327.25
         S          3.858            3.128    251.62  12327.25
         S          3.855            3.128    251.62  12327.25
         S          3.822            3.128    251.62  12327.25
         Mo        10.224            3.547    674.22  77634.20
         Mo        10.189            3.547    674.22  77634.20
         Mo        10.200            3.547    674.22  77634.20
         S          3.753            3.128    251.62  12327.25
         S          3.858            3.128    251.62  12327.25
         S          3.861            3.128    251.62  12327.25
         S          3.859            3.128    251.62  12327.25
         S          3.860            3.128    251.62  12327.25
         S          3.763            3.128    251.62  12327.25
         Mo        10.217            3.547    674.22  77634.20
         Mo        10.189            3.547    674.22  77634.20
         Mo        10.200            3.547    674.22  77634.20
         S          3.753            3.128    251.62  12327.25
         S          3.858            3.128    251.62  12327.25
         S          3.861            3.128    251.62  12327.25
         S          3.859            3.128    251.62  12327.25
         S          3.863            3.128    251.62  12327.25
         S          3.762            3.128    251.62  12327.25
         Mo        10.173            3.547    674.22  77634.20
         Mo        10.189            3.547    674.22  77634.20
         Mo        10.202            3.547    674.22  77634.20
         S          3.753            3.128    251.62  12327.25
         S          3.858            3.128    251.62  12327.25
         S          3.858            3.128    251.62  12327.25
         S          3.859            3.128    251.62  12327.25
         S          3.860            3.128    251.62  12327.25
         S          3.752            3.128    251.62  12327.25
         Mo        10.896            3.547    674.22  77634.20
         Mo        10.189            3.547    674.22  77634.20
         Mo        10.203            3.547    674.22  77634.20
         S          3.753            3.128    251.62  12327.25
         S          3.859            3.128    251.62  12327.25
         S          3.865            3.128    251.62  12327.25
         S          3.859            3.128    251.62  12327.25
         S          3.851            3.128    251.62  12327.25
         S          4.661            3.128    251.62  12327.25
         Mo        10.595            3.547    674.22  77634.20
         Mo        10.189            3.547    674.22  77634.20
         Mo        10.201            3.547    674.22  77634.20
         S          3.753            3.128    251.62  12327.25
         S          3.859            3.128    251.62  12327.25
         S          3.859            3.128    251.62  12327.25
         S          3.859            3.128    251.62  12327.25
         S          3.851            3.128    251.62  12327.25
         S          4.677            3.128    251.62  12327.25
         Mo        10.237            3.547    674.22  77634.20
         Mo        10.189            3.547    674.22  77634.20
         Mo        10.200            3.547    674.22  77634.20
         S          3.753            3.128    251.62  12327.25
         S          3.858            3.128    251.62  12327.25
         S          3.861            3.128    251.62  12327.25
         S          3.859            3.128    251.62  12327.25
         S          3.860            3.128    251.62  12327.25
         S          3.771            3.128    251.62  12327.25
         Mo        10.216            3.547    674.22  77634.20
         Mo        10.189            3.547    674.22  77634.20
         Mo        10.200            3.547    674.22  77634.20
         S          3.753            3.128    251.62  12327.25
         S          3.858            3.128    251.62  12327.25
         S          3.845            3.128    251.62  12327.25
         S          3.859            3.128    251.62  12327.25
         S          3.860            3.128    251.62  12327.25
         S          3.822            3.128    251.62  12327.25
         Mo        10.173            3.547    674.22  77634.20
         Mo        10.189            3.547    674.22  77634.20
         Mo        10.203            3.547    674.22  77634.20
         S          3.753            3.128    251.62  12327.25
         S          3.859            3.128    251.62  12327.25
         S          3.864            3.128    251.62  12327.25
         S          3.859            3.128    251.62  12327.25
         S          3.855            3.128    251.62  12327.25
         S          4.654            3.128    251.62  12327.25
         Mo        10.179            3.547    674.22  77634.20
         Mo        10.189            3.547    674.22  77634.20
         Mo        10.203            3.547    674.22  77634.20
         S          3.753            3.128    251.62  12327.25
         S          3.859            3.128    251.62  12327.25
         S          3.865            3.128    251.62  12327.25
         S          3.859            3.128    251.62  12327.25
         S          3.851            3.128    251.62  12327.25
         S          5.616            3.128    251.62  12327.25
         Mo        10.222            3.547    674.22  77634.20
         Mo        10.189            3.547    674.22  77634.20
         Mo        10.200            3.547    674.22  77634.20
         S          3.753            3.128    251.62  12327.25
         S          3.859            3.128    251.62  12327.25
         S          3.846            3.128    251.62  12327.25
         S          3.859            3.128    251.62  12327.25
         S          3.855            3.128    251.62  12327.25
         S          4.741            3.128    251.62  12327.25
         Mo        10.215            3.547    674.22  77634.20
         Mo        10.189            3.547    674.22  77634.20
         Mo        10.200            3.547    674.22  77634.20
         S          3.753            3.128    251.62  12327.25
         S          3.858            3.128    251.62  12327.25
         S          3.853            3.128    251.62  12327.25
         S          3.858            3.128    251.62  12327.25
         S          3.860            3.128    251.62  12327.25
         S          3.786            3.128    251.62  12327.25
         Mo        10.230            3.547    674.22  77634.20
         Mo        10.189            3.547    674.22  77634.20
         Mo        10.200            3.547    674.22  77634.20
         S          3.753            3.128    251.62  12327.25
         S          3.858            3.128    251.62  12327.25
         S          3.845            3.128    251.62  12327.25
         S          3.858            3.128    251.62  12327.25
         S          3.860            3.128    251.62  12327.25
         S          3.821            3.128    251.62  12327.25
         Mo        10.217            3.547    674.22  77634.20
         Mo        10.189            3.547    674.22  77634.20
         Mo        10.202            3.547    674.22  77634.20
         S          3.753            3.128    251.62  12327.25
         S          3.858            3.128    251.62  12327.25
         S          3.858            3.128    251.62  12327.25
         S          3.859            3.128    251.62  12327.25
         S          3.860            3.128    251.62  12327.25
         S          3.752            3.128    251.62  12327.25
         Mo        10.230            3.547    674.22  77634.20
         Mo        10.189            3.547    674.22  77634.20
         Mo        10.200            3.547    674.22  77634.20
         S          3.753            3.128    251.62  12327.25
         S          3.858            3.128    251.62  12327.25
         S          3.846            3.128    251.62  12327.25
         S          3.859            3.128    251.62  12327.25
         S          3.860            3.128    251.62  12327.25
         S          3.829            3.128    251.62  12327.25
         Pt         4.240            3.168    690.40  71793.58
         Pd         3.530            3.168    573.89  52581.57

         Molecular C6 ( Ry / a.u.^6 ) =   7937368.58


     number of k points=     4  Gaussian smearing, width (Ry)=  0.0100
                       cart. coord. in units 2pi/alat
        k(    1) = (   0.0000000   0.0000000   0.0000000), wk =   0.5000000
        k(    2) = (   0.0000000  -0.5773499   0.0000000), wk =   0.5000000
        k(    3) = (  -0.5000000  -0.2886755   0.0000000), wk =   0.5000000
        k(    4) = (  -0.5000000  -0.8660254   0.0000000), wk =   0.5000000

     Dense  grid:  5955087 G-vectors     FFT dimensions: ( 180, 180, 432)

     Smooth grid:  2572543 G-vectors     FFT dimensions: ( 135, 135, 320)

     Estimated max dynamical RAM per process >       3.07 GB

     Estimated total dynamical RAM >     110.53 GB

     Initial potential from superposition of free atoms

     starting charge    1297.9541, renormalised to    1298.0000

     negative rho (up, down):  9.221E-04 0.000E+00
     Starting wfcs are  891 randomized atomic wfcs
     Checking if some PAW data can be deallocated... 

     total cpu time spent up to now is       99.9 secs

     Self-consistent Calculation

     iteration #  1     ecut=    77.00 Ry     beta= 0.20
     Davidson diagonalization with overlap
     ethr =  1.00E-02,  avg # of iterations =  2.0

     Threshold (ethr) on eigenvalues was too large:
     Diagonalizing with lowered threshold

     Davidson diagonalization with overlap
     c_bands:  1 eigenvalues not converged
     ethr =  1.77E-04,  avg # of iterations = 14.2

     negative rho (up, down):  2.947E-04 0.000E+00

     total cpu time spent up to now is     1150.0 secs

     total energy              =  -26031.72341034 Ry
     estimated scf accuracy    <       5.09779721 Ry

     iteration #  2     ecut=    77.00 Ry     beta= 0.20
     Davidson diagonalization with overlap
     ethr =  3.93E-04,  avg # of iterations =  2.0

     negative rho (up, down):  4.482E-05 0.000E+00

     total cpu time spent up to now is     1371.8 secs

     total energy              =  -26030.71134805 Ry
     estimated scf accuracy    <       2.62622805 Ry

     iteration #  3     ecut=    77.00 Ry     beta= 0.20
     Davidson diagonalization with overlap
     c_bands:  1 eigenvalues not converged
     ethr =  2.02E-04,  avg # of iterations = 20.0

     negative rho (up, down):  4.051E-05 0.000E+00

     total cpu time spent up to now is     1670.2 secs

     total energy              =  -26031.02826304 Ry
     estimated scf accuracy    <       1.66322650 Ry

     iteration #  4     ecut=    77.00 Ry     beta= 0.20
     Davidson diagonalization with overlap
     ethr =  1.28E-04,  avg # of iterations =  7.2

     negative rho (up, down):  2.917E-05 0.000E+00

     total cpu time spent up to now is     1917.6 secs

     total energy              =  -26031.12813336 Ry
     estimated scf accuracy    <       0.44652425 Ry

     iteration #  5     ecut=    77.00 Ry     beta= 0.20
     Davidson diagonalization with overlap
     c_bands:  1 eigenvalues not converged
     c_bands:  3 eigenvalues not converged
     c_bands:  1 eigenvalues not converged
     ethr =  3.44E-05,  avg # of iterations = 19.8

     negative rho (up, down):  4.282E-05 0.000E+00

     total cpu time spent up to now is     2820.9 secs

     total energy              =  -26031.74230999 Ry
     estimated scf accuracy    <       0.43132205 Ry

     iteration #  6     ecut=    77.00 Ry     beta= 0.20
     Davidson diagonalization with overlap
     ethr =  3.32E-05,  avg # of iterations =  2.0

     negative rho (up, down):  7.569E-05 0.000E+00

     total cpu time spent up to now is     3042.3 secs

     total energy              =  -26031.70694756 Ry
     estimated scf accuracy    <       0.24172597 Ry

     iteration #  7     ecut=    77.00 Ry     beta= 0.20
     Davidson diagonalization with overlap
     c_bands:  1 eigenvalues not converged
     c_bands:  1 eigenvalues not converged
     ethr =  1.86E-05,  avg # of iterations = 23.5

     negative rho (up, down):  2.931E-04 0.000E+00

     total cpu time spent up to now is     3369.8 secs

     total energy              =  -26031.68458782 Ry
     estimated scf accuracy    <       0.12076288 Ry

     iteration #  8     ecut=    77.00 Ry     beta= 0.20
     Davidson diagonalization with overlap
     c_bands:  2 eigenvalues not converged
     c_bands:  4 eigenvalues not converged
     ethr =  9.30E-06,  avg # of iterations = 35.0

     negative rho (up, down):  3.258E-04 0.000E+00

     total cpu time spent up to now is     4093.1 secs

     total energy              =  -26031.76828588 Ry
     estimated scf accuracy    <       0.26379424 Ry

     iteration #  9     ecut=    77.00 Ry     beta= 0.20
     Davidson diagonalization with overlap
     ethr =  9.30E-06,  avg # of iterations = 11.8

     negative rho (up, down):  2.896E-04 0.000E+00

     total cpu time spent up to now is     4340.7 secs

     total energy              =  -26031.75637965 Ry
     estimated scf accuracy    <       0.05272274 Ry

     iteration # 10     ecut=    77.00 Ry     beta= 0.20
     Davidson diagonalization with overlap
     c_bands:  2 eigenvalues not converged
     c_bands:  2 eigenvalues not converged
     c_bands:  2 eigenvalues not converged
     c_bands:  1 eigenvalues not converged
     ethr =  4.06E-06,  avg # of iterations = 30.0

     negative rho (up, down):  3.429E-04 0.000E+00

     total cpu time spent up to now is     4868.6 secs

     total energy              =  -26031.78960246 Ry
     estimated scf accuracy    <       0.01105393 Ry

     iteration # 11     ecut=    77.00 Ry     beta= 0.20
     Davidson diagonalization with overlap
     c_bands:  2 eigenvalues not converged
     c_bands:  2 eigenvalues not converged
     c_bands:  5 eigenvalues not converged
     ethr =  8.52E-07,  avg # of iterations = 34.0

     negative rho (up, down):  4.054E-04 0.000E+00

     total cpu time spent up to now is     5605.1 secs

     total energy              =  -26031.79748889 Ry
     estimated scf accuracy    <       0.01488284 Ry

     iteration # 12     ecut=    77.00 Ry     beta= 0.20
     Davidson diagonalization with overlap
     c_bands:  1 eigenvalues not converged
     c_bands:  5 eigenvalues not converged
     ethr =  8.52E-07,  avg # of iterations = 13.0

     negative rho (up, down):  5.638E-04 0.000E+00

     total cpu time spent up to now is     5854.7 secs

     total energy              =  -26031.79436328 Ry
     estimated scf accuracy    <       0.00684603 Ry

     iteration # 13     ecut=    77.00 Ry     beta= 0.20
     Davidson diagonalization with overlap
     c_bands:  1 eigenvalues not converged
     ethr =  5.27E-07,  avg # of iterations = 11.8

     negative rho (up, down):  8.738E-04 0.000E+00

     total cpu time spent up to now is     6125.3 secs

     total energy              =  -26031.79559401 Ry
     estimated scf accuracy    <       0.00090232 Ry

     iteration # 14     ecut=    77.00 Ry     beta= 0.20
     Davidson diagonalization with overlap
     ethr =  6.95E-08,  avg # of iterations = 21.5

     negative rho (up, down):  8.015E-04 0.000E+00

     total cpu time spent up to now is     7626.7 secs

     total energy              =  -26031.80247929 Ry
     estimated scf accuracy    <       0.01705136 Ry

     iteration # 15     ecut=    77.00 Ry     beta= 0.20
     Davidson diagonalization with overlap
     ethr =  6.95E-08,  avg # of iterations =  8.0

     negative rho (up, down):  8.142E-04 0.000E+00

     total cpu time spent up to now is     7863.8 secs

     total energy              =  -26031.80533207 Ry
     estimated scf accuracy    <       0.01486311 Ry

     iteration # 16     ecut=    77.00 Ry     beta= 0.20
     Davidson diagonalization with overlap
     ethr =  6.95E-08,  avg # of iterations =  4.2

     negative rho (up, down):  8.099E-04 0.000E+00

     total cpu time spent up to now is     8093.3 secs

     total energy              =  -26031.79613184 Ry
     estimated scf accuracy    <       0.01944563 Ry

     iteration # 17     ecut=    77.00 Ry     beta= 0.20
     Davidson diagonalization with overlap
     ethr =  6.95E-08,  avg # of iterations =  9.0

     negative rho (up, down):  8.673E-04 0.000E+00

     total cpu time spent up to now is     8578.1 secs

     total energy              =  -26031.79736223 Ry
     estimated scf accuracy    <       0.00208777 Ry

     iteration # 18     ecut=    77.00 Ry     beta= 0.20
     Davidson diagonalization with overlap
     ethr =  6.95E-08,  avg # of iterations =  5.0

     negative rho (up, down):  8.815E-04 0.000E+00

     total cpu time spent up to now is     8818.0 secs

     total energy              =  -26031.79718651 Ry
     estimated scf accuracy    <       0.00107319 Ry

     iteration # 19     ecut=    77.00 Ry     beta= 0.20
     Davidson diagonalization with overlap
     ethr =  6.95E-08,  avg # of iterations =  8.2

     negative rho (up, down):  8.930E-04 0.000E+00

     total cpu time spent up to now is     9097.7 secs

     total energy              =  -26031.79746325 Ry
     estimated scf accuracy    <       0.00028042 Ry

     iteration # 20     ecut=    77.00 Ry     beta= 0.20
     Davidson diagonalization with overlap
     c_bands:  1 eigenvalues not converged
     ethr =  2.16E-08,  avg # of iterations = 14.2

     negative rho (up, down):  8.867E-04 0.000E+00

     total cpu time spent up to now is     9602.2 secs

     total energy              =  -26031.79788619 Ry
     estimated scf accuracy    <       0.00001506 Ry

     iteration # 21     ecut=    77.00 Ry     beta= 0.20
     Davidson diagonalization with overlap
     c_bands:  3 eigenvalues not converged
     ethr =  1.16E-09,  avg # of iterations = 20.0

     negative rho (up, down):  8.928E-04 0.000E+00

     total cpu time spent up to now is    10776.3 secs

     total energy              =  -26031.79795225 Ry
     estimated scf accuracy    <       0.00008607 Ry

     iteration # 22     ecut=    77.00 Ry     beta= 0.20
     Davidson diagonalization with overlap
     ethr =  1.16E-09,  avg # of iterations =  1.0

     negative rho (up, down):  9.046E-04 0.000E+00

     total cpu time spent up to now is    10977.9 secs

     total energy              =  -26031.79790616 Ry
     estimated scf accuracy    <       0.00007124 Ry

     iteration # 23     ecut=    77.00 Ry     beta= 0.20
     Davidson diagonalization with overlap
     ethr =  1.16E-09,  avg # of iterations = 12.5

     negative rho (up, down):  9.102E-04 0.000E+00

     total cpu time spent up to now is    11465.4 secs

     total energy              =  -26031.79792305 Ry
     estimated scf accuracy    <       0.00000375 Ry

     iteration # 24     ecut=    77.00 Ry     beta= 0.20
     Davidson diagonalization with overlap
     c_bands:  1 eigenvalues not converged
     ethr =  2.89E-10,  avg # of iterations = 21.5

     negative rho (up, down):  9.173E-04 0.000E+00

     total cpu time spent up to now is    11864.2 secs

     total energy              =  -26031.79792027 Ry
     estimated scf accuracy    <       0.00000297 Ry

     iteration # 25     ecut=    77.00 Ry     beta= 0.20
     Davidson diagonalization with overlap
     ethr =  2.29E-10,  avg # of iterations =  8.2

     negative rho (up, down):  9.171E-04 0.000E+00

     total cpu time spent up to now is    12187.1 secs

     total energy              =  -26031.79792184 Ry
     estimated scf accuracy    <       0.00000123 Ry

     iteration # 26     ecut=    77.00 Ry     beta= 0.20
     Davidson diagonalization with overlap
     ethr =  9.50E-11,  avg # of iterations = 11.0

     negative rho (up, down):  9.207E-04 0.000E+00

     total cpu time spent up to now is    12564.9 secs

     total energy              =  -26031.79792104 Ry
     estimated scf accuracy    <       0.00000196 Ry

     iteration # 27     ecut=    77.00 Ry     beta= 0.20
     Davidson diagonalization with overlap
     ethr =  9.50E-11,  avg # of iterations =  1.0

     negative rho (up, down):  9.237E-04 0.000E+00

     total cpu time spent up to now is    12766.6 secs

     total energy              =  -26031.79791984 Ry
     estimated scf accuracy    <       0.00000144 Ry

     iteration # 28     ecut=    77.00 Ry     beta= 0.20
     Davidson diagonalization with overlap
     ethr =  9.50E-11,  avg # of iterations =  1.0

     negative rho (up, down):  9.252E-04 0.000E+00

     total cpu time spent up to now is    12968.7 secs

     total energy              =  -26031.79791869 Ry
     estimated scf accuracy    <       0.00000123 Ry

     iteration # 29     ecut=    77.00 Ry     beta= 0.20
     Davidson diagonalization with overlap
     ethr =  9.50E-11,  avg # of iterations =  2.0

     negative rho (up, down):  9.277E-04 0.000E+00

     total cpu time spent up to now is    13190.2 secs

     End of self-consistent calculation

          k = 0.0000 0.0000 0.0000 (321495 PWs)   bands (ev):

  -102.9852 -88.2938 -71.3068 -71.2943 -71.2847 -71.2725 -71.2651 -71.2587
   -71.2511 -66.6952 -66.6741 -66.6741 -66.6741 -66.6741 -66.6741 -66.6741
   -66.6530 -66.6529 -66.6529 -66.6529 -66.6529 -66.6529 -66.6529 -66.6529
   -66.6529 -66.6292 -66.6085 -66.6083 -66.6082 -66.6081 -66.6079 -66.6079
   -66.5875 -66.5872 -66.5872 -66.5870 -66.5869 -66.5868 -66.5867 -66.5867
   -66.5865 -66.5610 -66.5496 -66.5421 -66.5400 -66.5353 -66.5275 -66.5269
   -66.5195 -66.5169 -66.5107 -66.5036 -66.4971 -66.4937 -66.4893 -66.4824
   -66.4758 -57.2304 -57.2176 -57.1808 -54.1557 -54.1029 -54.0289 -41.0216
   -41.0216 -41.0216 -40.9545 -40.9544 -40.9544 -40.9468 -40.9468 -40.9468
   -40.9468 -40.9468 -40.9468 -40.8799 -40.8798 -40.8797 -40.8796 -40.8796
   -40.8795 -40.8793 -40.8779 -40.8721 -40.8553 -40.8212 -40.8212 -40.8212
   -40.8212 -40.8212 -40.8212 -40.8139 -40.8139 -40.8139 -40.8139 -40.8139
   -40.8139 -40.8078 -40.8055 -40.8004 -40.7965 -40.7898 -40.7864 -40.7864
   -40.7864 -40.7864 -40.7864 -40.7864 -40.7818 -40.7803 -40.7722 -40.7722
   -40.7722 -40.7722 -40.7722 -40.7722 -40.7721 -40.7721 -40.7721 -40.7545
   -40.7543 -40.7543 -40.7542 -40.7541 -40.7541 -40.7487 -40.7485 -40.7484
   -40.7484 -40.7482 -40.7482 -40.7430 -40.7197 -40.7196 -40.7195 -40.7194
   -40.7194 -40.7193 -40.7181 -40.7086 -40.7086 -40.7086 -40.7073 -40.7070
   -40.7069 -40.7068 -40.7067 -40.7067 -40.7066 -40.7066 -40.7063 -40.6913
   -40.6855 -40.6841 -40.6827 -40.6818 -40.6797 -40.6787 -40.6727 -40.6684
   -40.6661 -40.6618 -40.6618 -40.6618 -40.6618 -40.6618 -40.6618 -40.6531
   -40.6517 -40.6506 -40.6469 -40.6460 -40.6418 -40.6417 -40.6417 -40.6403
   -40.6384 -40.6377 -40.6371 -40.6310 -40.6307 -40.6259 -40.6240 -40.6193
   -40.6182 -40.6174 -40.6145 -40.6145 -40.5953 -40.5950 -40.5949 -40.5949
   -40.5948 -40.5948 -40.5637 -40.5614 -40.5583 -40.5477 -40.5477 -40.5142
   -40.5129 -40.5077 -40.5068 -40.5022 -40.4992 -40.4540 -40.4488 -20.1406
   -20.0729 -19.9317 -19.4814 -19.2922 -19.2744 -19.2616 -19.2607 -19.2598
   -19.2526 -19.2369 -19.2226 -19.1651 -19.1546 -19.1465 -19.1072 -19.0926
   -19.0886 -19.0560 -19.0391 -19.0210 -18.8856 -18.7464 -18.6699 -18.5549
   -18.5501 -18.5088 -18.4792 -18.4682 -18.4630 -18.4383 -18.4141 -18.3897
   -18.3570 -18.3460 -18.3102 -18.2809 -18.2681 -18.2234 -18.2222 -18.2089
   -18.1712 -18.1602 -18.1562 -18.1548 -18.1548 -18.1543 -18.1543 -18.1535
   -18.1514 -18.1143 -18.1143 -18.1143 -18.0891 -18.0818 -18.0765 -18.0736
   -18.0701 -18.0672 -18.0618 -18.0424 -18.0421 -18.0388 -18.0210 -17.9955
   -17.9874 -17.9809 -17.9766 -17.9747 -17.9594 -17.9558 -17.9547 -17.9444
   -17.9343 -17.9306 -17.9291 -17.9278 -17.9254 -17.9012 -17.8956 -17.8917
   -17.8758 -17.8709 -17.8621 -17.8604 -17.8560 -17.8530 -17.8316 -17.8277
   -17.8210 -17.7987 -17.7888 -17.7838 -17.7777 -17.7756 -17.7681 -12.0788
   -11.9736 -11.8525 -11.7933 -11.7686 -11.7671 -11.7584 -11.6880 -11.6838
   -11.6754 -11.6439 -11.3830 -11.3634 -11.3334 -11.2481 -11.2206 -11.2187
   -11.2161 -11.2080 -11.2009 -11.1909 -11.1487 -11.1434 -11.1422 -11.1405
   -11.1385 -11.1335 -11.1193 -11.0675 -11.0509 -11.0211 -11.0132 -11.0035
   -10.9958 -10.9867 -10.9822 -10.9553 -10.9428 -10.9363 -10.9340 -10.9282
   -10.9242 -10.9000 -10.8989 -10.8752 -10.8653 -10.8550 -10.8488 -10.8460
   -10.8456 -10.8440 -10.8430 -10.8398 -10.8220 -10.8170 -10.8166 -10.8139
   -10.8004 -10.7971 -10.7953 -10.7929 -10.7920 -10.7797 -10.7705 -10.7414
   -10.7379 -10.7226 -10.7062 -10.6987 -10.6681 -10.6498 -10.6390 -10.6206
   -10.6137 -10.6095 -10.4733 -10.3876 -10.1137 -10.0883 -10.0626 -10.0615
   -10.0519  -9.9167  -9.9139  -9.8883  -9.8445  -9.8328  -9.7994  -9.7955
    -9.7926  -9.7872  -9.7756  -9.7583  -9.7462  -9.7273  -9.7138  -9.7087
    -9.7029  -9.6946  -9.6801  -9.6621  -9.6455  -9.6441  -9.6357  -9.6336
    -9.6272  -9.6220  -9.6052  -9.5912  -9.5893  -9.5887  -9.5876  -9.5856
    -9.5847  -9.5829  -9.5675  -9.5524  -9.5389  -9.5357  -9.5265  -9.4810
    -9.4712  -9.4545  -9.4510  -9.4473  -9.4429  -9.4163  -9.3793  -9.3747
    -9.3543  -9.3515  -9.3441  -9.3292  -9.3171  -9.3020  -9.2748  -9.2619
    -9.2417  -9.2351  -9.2184  -9.2083  -9.2068  -9.2034  -9.1898  -9.1359
    -9.1222  -9.0964  -9.0735  -9.0439  -9.0361  -9.0332  -9.0331  -9.0329
    -9.0274  -9.0253  -9.0008  -8.9737  -8.9575  -8.9555  -8.9533  -8.9364
    -8.9051  -8.8891  -8.8736  -8.8620  -8.8320  -8.8261  -8.8172  -8.8150
    -8.8131  -8.8085  -8.8053  -8.7976  -8.7921  -8.7715  -8.7642  -8.7550
    -8.7457  -8.7384  -8.7316  -8.7264  -8.7109  -8.7066  -8.6148  -8.4986
    -8.4797  -8.4443  -8.4443  -8.3716  -8.3716  -8.3509  -8.3358  -8.3322
    -8.3321  -8.3321  -8.3321  -8.3320  -8.3295  -8.2958  -8.2916  -8.2834
    -8.2639  -8.2611  -8.2544  -8.2540  -8.2529  -8.2507  -8.2259  -8.2023
    -8.1420  -8.0980  -8.0337  -7.9575  -7.9489  -7.9292  -7.9055  -7.7417
    -7.7093  -7.6943  -7.6726  -7.6322  -7.5982  -7.5970  -7.5968  -7.5966
    -7.5965  -7.5961  -7.5794  -7.5717  -7.5511  -7.5507  -7.5503  -7.5500
    -7.5497  -7.5494  -7.5336  -7.5264  -7.5238  -7.5201  -7.5165  -7.5140
    -7.5125  -7.5049  -7.4944  -7.4852  -7.4811  -7.4782  -7.4766  -7.4746
    -7.4690  -7.4632  -7.4582  -7.4525  -7.4362  -7.4344  -7.4329  -7.4318
    -7.4301  -7.4196  -7.3970  -7.3843  -7.3154  -7.3154  -7.3019  -7.2910
    -7.2663  -7.2598  -7.2470  -7.2427  -7.2368  -7.2058  -7.1941  -7.1559
    -7.0710  -7.0411  -7.0057  -6.9818  -6.9423  -6.9176  -6.8969  -6.8921
    -6.8522  -6.8440  -6.8203  -6.8108  -6.8069  -6.7887  -6.7182  -6.6817
    -6.6791  -6.6720  -6.6607  -6.6440  -6.6313  -6.6296  -6.6255  -6.6144
    -6.5819  -6.5572  -6.5408  -6.5357  -6.5334  -6.5271  -6.5249  -6.5219
    -6.5145  -6.4970  -6.4893  -6.4779  -6.4730  -6.4573  -6.4531  -6.4388
    -6.4337  -6.4299  -6.4257  -6.3869  -6.3683  -6.3634  -6.3633  -6.3633
    -6.3633  -6.3633  -6.3633  -6.3377  -6.3083  -6.2963  -6.2881  -6.2867
    -6.2849  -6.2841  -6.2827  -6.2747  -6.2548  -6.2304  -6.1991  -6.1887
    -6.1120  -5.9789  -5.8417  -5.7405  -5.5335  -5.4817  -5.4014  -5.3710
    -5.1394  -4.1601  -3.9086  -3.8488  -3.8478  -3.8444  -3.8411  -3.8222
    -3.8193  -3.8153  -3.8143  -3.8126  -3.8102  -3.7894  -3.7269  -3.6227
    -3.6180  -3.6037  -3.5980  -3.5941  -3.5881  -3.5830  -3.5800  -3.5784
    -3.5741  -3.5041  -3.5040  -3.5040  -3.4897  -3.4869  -3.4859  -3.4858
    -3.4840  -3.4836  -3.4460  -3.4370  -3.4367  -3.4367  -3.4249  -3.4108
    -3.4072  -3.3917  -3.3894  -3.3866  -3.3815  -3.3799  -3.3769  -3.3699
    -3.3685  -3.3535  -3.3522  -3.3482  -3.3407  -3.3177  -3.3049  -3.2863
    -3.2800  -3.2739  -3.2690  -3.2472  -3.2425  -3.2376  -3.2208  -3.1969
    -3.0389  -3.0386  -3.0385  -3.0324  -3.0324  -3.0248  -2.9786  -2.9689
    -2.9668  -2.9664  -2.9663  -2.9663  -2.9660  -2.9657  -2.9640  -2.9552
    -2.9469  -2.9451  -2.9420  -2.9388  -2.9148  -2.9116  -2.9039  -2.9016
    -2.8992  -2.8961  -2.8926  -2.8919  -2.8813  -2.8797  -2.8795  -2.8618
    -2.8587  -2.8279  -2.8270  -2.8165  -2.8110  -2.8071  -2.7967  -2.7749
    -2.7745  -2.7623  -2.7611  -2.7593  -2.7569  -2.7464  -2.7459  -2.7052
    -2.7049  -2.7025  -2.6783  -2.6589  -2.6455  -2.6399  -2.6359  -2.6221
    -2.6112  -2.5859  -2.5614  -2.5500  -2.5450  -2.5407  -2.5153  -2.4962
    -2.4867  -2.4795  -2.4636

          k = 0.0000-0.5773 0.0000 (321564 PWs)   bands (ev):

  -102.9852 -88.2938 -71.3068 -71.2943 -71.2847 -71.2725 -71.2651 -71.2587
   -71.2511 -66.6891 -66.6890 -66.6785 -66.6785 -66.6635 -66.6635 -66.6635
   -66.6635 -66.6592 -66.6591 -66.6529 -66.6529 -66.6529 -66.6529 -66.6485
   -66.6485 -66.6231 -66.6230 -66.6126 -66.6124 -66.5977 -66.5976 -66.5976
   -66.5973 -66.5932 -66.5931 -66.5871 -66.5870 -66.5869 -66.5869 -66.5826
   -66.5825 -66.5584 -66.5544 -66.5415 -66.5376 -66.5344 -66.5312 -66.5249
   -66.5198 -66.5159 -66.5110 -66.5037 -66.4972 -66.4938 -66.4892 -66.4826
   -66.4757 -57.2304 -57.2176 -57.1808 -54.1557 -54.1029 -54.0290 -40.9902
   -40.9902 -40.9902 -40.9902 -40.9636 -40.9635 -40.9516 -40.9516 -40.9232
   -40.9231 -40.9230 -40.9230 -40.9012 -40.9012 -40.9012 -40.9012 -40.8965
   -40.8964 -40.8846 -40.8844 -40.8581 -40.8495 -40.8445 -40.8432 -40.8432
   -40.8342 -40.8342 -40.8341 -40.8341 -40.8333 -40.8333 -40.8270 -40.8254
   -40.8225 -40.8225 -40.8208 -40.8006 -40.7931 -40.7931 -40.7931 -40.7931
   -40.7844 -40.7844 -40.7844 -40.7778 -40.7776 -40.7723 -40.7723 -40.7722
   -40.7722 -40.7722 -40.7722 -40.7664 -40.7663 -40.7635 -40.7635 -40.7571
   -40.7569 -40.7537 -40.7509 -40.7458 -40.7415 -40.7415 -40.7415 -40.7415
   -40.7411 -40.7322 -40.7277 -40.7277 -40.7277 -40.7274 -40.7190 -40.7189
   -40.7158 -40.7070 -40.7070 -40.7070 -40.7070 -40.7069 -40.7068 -40.7067
   -40.7066 -40.7054 -40.7053 -40.7046 -40.6982 -40.6981 -40.6949 -40.6949
   -40.6879 -40.6820 -40.6795 -40.6776 -40.6757 -40.6757 -40.6748 -40.6746
   -40.6745 -40.6745 -40.6662 -40.6622 -40.6589 -40.6589 -40.6564 -40.6540
   -40.6476 -40.6419 -40.6403 -40.6402 -40.6402 -40.6401 -40.6401 -40.6360
   -40.6319 -40.6284 -40.6284 -40.6281 -40.6281 -40.6265 -40.6245 -40.6201
   -40.6173 -40.6090 -40.6088 -40.5981 -40.5979 -40.5925 -40.5921 -40.5919
   -40.5879 -40.5625 -40.5617 -40.5615 -40.5570 -40.5516 -40.5484 -40.5421
   -40.5309 -40.5303 -40.5191 -40.5020 -40.4860 -40.4806 -40.4581 -19.9540
   -19.8925 -19.8706 -19.7935 -19.7132 -19.6731 -19.4631 -19.4605 -19.4054
   -19.3839 -19.2809 -19.2642 -19.0214 -18.8404 -18.8039 -18.7560 -18.7480
   -18.7475 -18.7438 -18.7383 -18.7036 -18.6733 -18.6456 -18.6269 -18.6154
   -18.6085 -18.5827 -18.5592 -18.5557 -18.5486 -18.5004 -18.4997 -18.4743
   -18.4653 -18.4449 -18.4190 -18.4063 -18.3978 -18.3831 -18.3255 -18.3146
   -18.3016 -18.2584 -18.2475 -18.2294 -18.2263 -18.1939 -18.1751 -18.1564
   -18.1356 -18.1349 -18.1347 -18.1347 -18.1338 -18.1128 -18.1087 -18.0801
   -18.0760 -18.0642 -18.0588 -18.0579 -18.0517 -18.0459 -18.0395 -18.0100
   -18.0040 -17.9985 -17.9846 -17.9820 -17.9776 -17.9547 -17.9493 -17.9455
   -17.9399 -17.9328 -17.9234 -17.8905 -17.8862 -17.8769 -17.8714 -17.8714
   -17.8676 -17.8263 -17.8214 -17.8120 -17.8115 -17.8079 -17.7963 -17.7950
   -17.7892 -17.7715 -17.7564 -17.7512 -17.7459 -17.6949 -17.6862 -11.9496
   -11.7991 -11.6909 -11.6607 -11.6505 -11.4941 -11.4903 -11.4811 -11.4790
   -11.4718 -11.4626 -11.4570 -11.4489 -11.4078 -11.3864 -11.3818 -11.3772
   -11.3560 -11.3516 -11.3292 -11.3140 -11.2911 -11.2891 -11.2643 -11.2643
   -11.2590 -11.2517 -11.2186 -11.2183 -11.1998 -11.1648 -11.1645 -11.1604
   -11.1588 -11.1134 -11.0627 -11.0329 -11.0243 -10.9936 -10.9761 -10.9716
   -10.9551 -10.9306 -10.9250 -10.9138 -10.9075 -10.8930 -10.8793 -10.8693
   -10.8644 -10.8397 -10.8390 -10.8372 -10.8368 -10.8317 -10.8242 -10.8202
   -10.8113 -10.7963 -10.7742 -10.7705 -10.7697 -10.7616 -10.7150 -10.6377
   -10.5918 -10.5833 -10.5449 -10.5052 -10.4964 -10.4248 -10.3817 -10.3179
   -10.2889 -10.1997 -10.1632 -10.1337 -10.1251 -10.1179 -10.1088 -10.0557
   -10.0435 -10.0244 -10.0201  -9.9706  -9.9551  -9.9466  -9.9445  -9.9394
    -9.9343  -9.9162  -9.9096  -9.9068  -9.9004  -9.8861  -9.8823  -9.8221
    -9.8094  -9.7851  -9.7688  -9.7623  -9.7593  -9.7408  -9.7250  -9.7210
    -9.7165  -9.7084  -9.7045  -9.6817  -9.6652  -9.6635  -9.6489  -9.6375
    -9.6208  -9.6153  -9.6139  -9.5684  -9.5478  -9.5422  -9.5388  -9.5315
    -9.5181  -9.4899  -9.4790  -9.4762  -9.4518  -9.3909  -9.3651  -9.3322
    -9.3097  -9.2761  -9.2181  -9.2102  -9.1968  -9.1801  -9.1617  -9.1516
    -9.1458  -9.1401  -9.1337  -9.1181  -9.0995  -9.0897  -9.0599  -9.0513
    -9.0370  -9.0351  -9.0265  -9.0067  -9.0012  -8.9952  -8.9862  -8.9709
    -8.9643  -8.9544  -8.9431  -8.9399  -8.9389  -8.9367  -8.9325  -8.9054
    -8.9032  -8.8785  -8.8661  -8.8648  -8.8614  -8.8554  -8.8483  -8.8464
    -8.8459  -8.8406  -8.8322  -8.8248  -8.8176  -8.8044  -8.8023  -8.7763
    -8.7703  -8.7658  -8.7507  -8.7319  -8.7121  -8.6538  -8.5779  -8.5359
    -8.5193  -8.5181  -8.4427  -8.4361  -8.4311  -8.4014  -8.3241  -8.3126
    -8.2007  -8.2006  -8.1955  -8.1548  -8.1387  -8.1288  -8.1276  -8.0961
    -8.0832  -8.0060  -7.9665  -7.9404  -7.9385  -7.9083  -7.8738  -7.8709
    -7.8649  -7.8632  -7.8548  -7.8540  -7.8539  -7.8537  -7.8470  -7.8455
    -7.8177  -7.8080  -7.8076  -7.8055  -7.8036  -7.7886  -7.7836  -7.7796
    -7.7680  -7.7643  -7.7558  -7.7547  -7.7388  -7.7369  -7.7327  -7.7291
    -7.7239  -7.7135  -7.7028  -7.7006  -7.6912  -7.6785  -7.6688  -7.6687
    -7.6639  -7.6570  -7.6477  -7.6367  -7.6290  -7.6105  -7.6060  -7.6018
    -7.5995  -7.5897  -7.5583  -7.5540  -7.5405  -7.5211  -7.5196  -7.4673
    -7.4559  -7.3840  -7.3453  -7.2912  -7.2667  -7.2463  -7.2421  -7.2271
    -7.2049  -7.1536  -7.1378  -7.1269  -7.1153  -7.0818  -7.0605  -7.0351
    -7.0189  -7.0163  -7.0073  -6.9929  -6.9628  -6.9577  -6.9514  -6.9164
    -6.9091  -6.9026  -6.8964  -6.8699  -6.8437  -6.8384  -6.8177  -6.7736
    -6.7345  -6.7043  -6.6989  -6.6814  -6.6697  -6.6656  -6.6656  -6.6654
    -6.6650  -6.6330  -6.6035  -6.5986  -6.5971  -6.5945  -6.5916  -6.5700
    -6.5619  -6.5490  -6.5243  -6.4954  -6.4606  -6.4459  -6.4407  -6.4162
    -6.3354  -6.3343  -6.3338  -6.3334  -6.3139  -6.2698  -6.2673  -6.2594
    -6.2519  -6.2503  -6.2477  -6.2386  -6.2148  -6.2091  -6.1904  -6.1777
    -6.1494  -6.0004  -5.9856  -5.9855  -5.9658  -5.9166  -5.9074  -5.8992
    -5.8543  -5.7571  -5.6660  -5.6499  -5.5867  -5.5483  -5.4827  -5.3845
    -5.3272  -4.1949  -4.0391  -4.0279  -4.0243  -3.9964  -3.9010  -3.9010
    -3.8920  -3.8631  -3.8363  -3.8360  -3.8311  -3.7870  -3.7838  -3.7684
    -3.7599  -3.7313  -3.6851  -3.6307  -3.6087  -3.6037  -3.6018  -3.5997
    -3.5873  -3.5865  -3.5864  -3.5586  -3.5530  -3.5258  -3.5108  -3.5089
    -3.5035  -3.4863  -3.4808  -3.4766  -3.4754  -3.4705  -3.4686  -3.4252
    -3.4131  -3.4037  -3.3779  -3.3666  -3.3638  -3.3547  -3.3537  -3.3450
    -3.3254  -3.3223  -3.3159  -3.3136  -3.3100  -3.2849  -3.2778  -3.2773
    -3.2769  -3.2755  -3.2574  -3.2438  -3.2394  -3.2319  -3.2205  -3.2148
    -3.2119  -3.2049  -3.2000  -3.1912  -3.1844  -3.1744  -3.1415  -3.1256
    -3.1155  -3.1056  -3.0931  -3.0747  -3.0721  -3.0430  -3.0366  -3.0321
    -3.0286  -3.0148  -3.0144  -3.0140  -3.0135  -2.9841  -2.9745  -2.9668
    -2.9645  -2.9514  -2.9458  -2.9357  -2.9265  -2.9231  -2.9207  -2.9144
    -2.9049  -2.8965  -2.8879  -2.8772  -2.8731  -2.8640  -2.8411  -2.8350
    -2.8314  -2.8128  -2.8072  -2.8053  -2.7931  -2.7408  -2.7351  -2.7139
    -2.7085  -2.6622  -2.6537  -2.6516  -2.6453  -2.6351  -2.6287  -2.5725
    -2.5645  -2.5236  -2.5152  -2.5028  -2.4976  -2.4870  -2.4561  -2.3706
    -2.3595  -2.3152  -2.3001

          k =-0.5000-0.2887 0.0000 (321564 PWs)   bands (ev):

  -102.9852 -88.2938 -71.3068 -71.2943 -71.2847 -71.2725 -71.2651 -71.2587
   -71.2511 -66.6891 -66.6890 -66.6785 -66.6785 -66.6635 -66.6635 -66.6635
   -66.6635 -66.6591 -66.6591 -66.6529 -66.6529 -66.6529 -66.6529 -66.6485
   -66.6485 -66.6232 -66.6229 -66.6126 -66.6124 -66.5977 -66.5977 -66.5976
   -66.5973 -66.5933 -66.5930 -66.5872 -66.5870 -66.5869 -66.5867 -66.5826
   -66.5825 -66.5596 -66.5516 -66.5431 -66.5393 -66.5354 -66.5274 -66.5252
   -66.5200 -66.5161 -66.5115 -66.5034 -66.4972 -66.4940 -66.4891 -66.4825
   -66.4757 -57.2304 -57.2176 -57.1808 -54.1557 -54.1029 -54.0290 -40.9902
   -40.9902 -40.9902 -40.9902 -40.9635 -40.9635 -40.9516 -40.9516 -40.9233
   -40.9230 -40.9230 -40.9229 -40.9012 -40.9012 -40.9012 -40.9012 -40.8965
   -40.8963 -40.8846 -40.8844 -40.8635 -40.8473 -40.8432 -40.8432 -40.8385
   -40.8342 -40.8342 -40.8341 -40.8341 -40.8333 -40.8333 -40.8283 -40.8225
   -40.8225 -40.8222 -40.8171 -40.8044 -40.7931 -40.7931 -40.7931 -40.7931
   -40.7893 -40.7844 -40.7844 -40.7778 -40.7776 -40.7723 -40.7723 -40.7722
   -40.7722 -40.7722 -40.7722 -40.7664 -40.7663 -40.7635 -40.7635 -40.7570
   -40.7570 -40.7535 -40.7528 -40.7508 -40.7417 -40.7415 -40.7415 -40.7415
   -40.7415 -40.7289 -40.7277 -40.7277 -40.7276 -40.7274 -40.7191 -40.7189
   -40.7161 -40.7070 -40.7070 -40.7070 -40.7070 -40.7070 -40.7067 -40.7067
   -40.7066 -40.7054 -40.7053 -40.7033 -40.6982 -40.6981 -40.6949 -40.6949
   -40.6895 -40.6809 -40.6789 -40.6757 -40.6757 -40.6747 -40.6747 -40.6746
   -40.6745 -40.6744 -40.6659 -40.6600 -40.6590 -40.6589 -40.6588 -40.6508
   -40.6488 -40.6428 -40.6402 -40.6402 -40.6402 -40.6401 -40.6401 -40.6367
   -40.6319 -40.6284 -40.6284 -40.6282 -40.6280 -40.6254 -40.6234 -40.6196
   -40.6176 -40.6090 -40.6088 -40.6024 -40.5972 -40.5921 -40.5920 -40.5920
   -40.5826 -40.5628 -40.5617 -40.5615 -40.5557 -40.5537 -40.5506 -40.5429
   -40.5286 -40.5264 -40.5239 -40.5052 -40.4866 -40.4826 -40.4539 -19.9628
   -19.8911 -19.8715 -19.7807 -19.7127 -19.6588 -19.4741 -19.4604 -19.4235
   -19.3851 -19.2850 -19.2652 -19.0082 -18.8239 -18.8046 -18.7528 -18.7497
   -18.7472 -18.7436 -18.7350 -18.7094 -18.6760 -18.6504 -18.6243 -18.6202
   -18.6058 -18.5890 -18.5580 -18.5494 -18.5470 -18.5018 -18.4993 -18.4806
   -18.4613 -18.4344 -18.4206 -18.4078 -18.4018 -18.3738 -18.3440 -18.3095
   -18.2881 -18.2810 -18.2422 -18.2279 -18.2247 -18.2034 -18.1839 -18.1506
   -18.1350 -18.1349 -18.1348 -18.1347 -18.1296 -18.1195 -18.1090 -18.0961
   -18.0729 -18.0601 -18.0590 -18.0566 -18.0538 -18.0500 -18.0200 -18.0197
   -18.0016 -17.9959 -17.9864 -17.9789 -17.9777 -17.9558 -17.9481 -17.9442
   -17.9343 -17.9324 -17.9190 -17.8960 -17.8849 -17.8714 -17.8714 -17.8691
   -17.8669 -17.8285 -17.8223 -17.8118 -17.8116 -17.7966 -17.7953 -17.7916
   -17.7895 -17.7765 -17.7655 -17.7513 -17.7498 -17.6930 -17.6891 -11.9886
   -11.8123 -11.6858 -11.6541 -11.5956 -11.4829 -11.4824 -11.4799 -11.4793
   -11.4731 -11.4587 -11.4430 -11.4200 -11.4017 -11.3968 -11.3839 -11.3795
   -11.3495 -11.3271 -11.3173 -11.3078 -11.3019 -11.2903 -11.2844 -11.2643
   -11.2643 -11.2598 -11.2198 -11.2186 -11.2157 -11.1805 -11.1657 -11.1586
   -11.1585 -11.1280 -11.0989 -11.0156 -11.0069 -10.9975 -10.9804 -10.9748
   -10.9556 -10.9275 -10.9244 -10.9209 -10.9078 -10.8941 -10.8868 -10.8734
   -10.8572 -10.8441 -10.8394 -10.8378 -10.8371 -10.8356 -10.8327 -10.8161
   -10.8064 -10.7862 -10.7743 -10.7714 -10.7658 -10.7613 -10.7010 -10.6679
   -10.5996 -10.5948 -10.5832 -10.5017 -10.4955 -10.4075 -10.3741 -10.3141
   -10.2452 -10.1820 -10.1450 -10.1390 -10.1312 -10.1084 -10.1014 -10.0670
   -10.0530 -10.0415 -10.0155  -9.9857  -9.9619  -9.9492  -9.9440  -9.9385
    -9.9356  -9.9291  -9.9239  -9.9058  -9.8994  -9.8916  -9.8846  -9.8291
    -9.8036  -9.7978  -9.7916  -9.7652  -9.7553  -9.7440  -9.7278  -9.7206
    -9.7196  -9.7092  -9.7049  -9.6779  -9.6731  -9.6562  -9.6517  -9.6484
    -9.6243  -9.6184  -9.6087  -9.5944  -9.5531  -9.5388  -9.5376  -9.5280
    -9.5116  -9.4788  -9.4765  -9.4623  -9.4414  -9.3575  -9.3380  -9.3004
    -9.2822  -9.2708  -9.2184  -9.2078  -9.2030  -9.1784  -9.1542  -9.1458
    -9.1399  -9.1358  -9.1349  -9.1170  -9.0964  -9.0894  -9.0768  -9.0488
    -9.0455  -9.0334  -9.0283  -9.0238  -9.0064  -8.9956  -8.9762  -8.9724
    -8.9590  -8.9553  -8.9493  -8.9427  -8.9391  -8.9368  -8.9226  -8.9139
    -8.9032  -8.8891  -8.8787  -8.8666  -8.8653  -8.8609  -8.8538  -8.8474
    -8.8466  -8.8447  -8.8339  -8.8221  -8.8106  -8.7962  -8.7828  -8.7763
    -8.7701  -8.7578  -8.7480  -8.7323  -8.7170  -8.6398  -8.5579  -8.5543
    -8.5191  -8.5182  -8.4410  -8.4361  -8.4209  -8.3837  -8.3356  -8.2707
    -8.2379  -8.2356  -8.2007  -8.2007  -8.1300  -8.1289  -8.1277  -8.0897
    -8.0717  -8.0007  -7.9787  -7.9504  -7.9398  -7.9317  -7.8802  -7.8693
    -7.8662  -7.8638  -7.8560  -7.8540  -7.8539  -7.8532  -7.8522  -7.8364
    -7.8167  -7.8085  -7.8080  -7.8075  -7.8023  -7.7898  -7.7838  -7.7800
    -7.7670  -7.7664  -7.7612  -7.7539  -7.7401  -7.7371  -7.7311  -7.7262
    -7.7220  -7.7127  -7.7042  -7.6968  -7.6897  -7.6851  -7.6691  -7.6687
    -7.6657  -7.6648  -7.6559  -7.6394  -7.6314  -7.6139  -7.6036  -7.6000
    -7.5946  -7.5794  -7.5716  -7.5539  -7.5344  -7.5327  -7.4730  -7.4636
    -7.4489  -7.3865  -7.3449  -7.2827  -7.2657  -7.2471  -7.2406  -7.2292
    -7.1979  -7.1929  -7.1439  -7.1268  -7.1195  -7.0756  -7.0589  -7.0229
    -7.0165  -7.0159  -6.9953  -6.9880  -6.9733  -6.9542  -6.9508  -6.9444
    -6.9096  -6.8992  -6.8621  -6.8457  -6.8361  -6.8318  -6.8101  -6.7807
    -6.7386  -6.7073  -6.6890  -6.6669  -6.6657  -6.6656  -6.6656  -6.6616
    -6.6523  -6.6388  -6.6173  -6.6007  -6.5982  -6.5950  -6.5936  -6.5829
    -6.5592  -6.5490  -6.5316  -6.5127  -6.4680  -6.4542  -6.4407  -6.3508
    -6.3348  -6.3341  -6.3338  -6.3332  -6.3101  -6.2775  -6.2731  -6.2645
    -6.2572  -6.2531  -6.2506  -6.2457  -6.2342  -6.2027  -6.1973  -6.1665
    -6.1599  -6.1072  -5.9981  -5.9855  -5.9854  -5.9093  -5.9077  -5.8564
    -5.7929  -5.7686  -5.6708  -5.6630  -5.5566  -5.5355  -5.4736  -5.3868
    -5.3251  -4.1717  -4.0455  -4.0223  -4.0218  -3.9874  -3.9013  -3.9010
    -3.8999  -3.8672  -3.8382  -3.8360  -3.8334  -3.7820  -3.7713  -3.7669
    -3.7649  -3.7195  -3.6969  -3.6374  -3.6097  -3.6057  -3.6018  -3.6010
    -3.5868  -3.5865  -3.5841  -3.5637  -3.5456  -3.5219  -3.5126  -3.5074
    -3.5048  -3.4907  -3.4836  -3.4830  -3.4775  -3.4687  -3.4678  -3.4338
    -3.4265  -3.4124  -3.3920  -3.3742  -3.3610  -3.3562  -3.3535  -3.3534
    -3.3242  -3.3229  -3.3218  -3.3123  -3.2907  -3.2805  -3.2778  -3.2771
    -3.2768  -3.2732  -3.2571  -3.2485  -3.2371  -3.2304  -3.2281  -3.2121
    -3.2120  -3.2064  -3.2046  -3.1983  -3.1894  -3.1601  -3.1478  -3.1258
    -3.1159  -3.1086  -3.0893  -3.0747  -3.0718  -3.0395  -3.0349  -3.0320
    -3.0261  -3.0161  -3.0142  -3.0140  -3.0135  -2.9864  -2.9786  -2.9668
    -2.9641  -2.9530  -2.9486  -2.9397  -2.9289  -2.9198  -2.9180  -2.9154
    -2.9015  -2.8973  -2.8911  -2.8835  -2.8672  -2.8644  -2.8491  -2.8377
    -2.8154  -2.8041  -2.8037  -2.7985  -2.7886  -2.7444  -2.7335  -2.7140
    -2.7051  -2.6587  -2.6525  -2.6510  -2.6433  -2.6346  -2.6293  -2.5709
    -2.5647  -2.5193  -2.5122  -2.5041  -2.4900  -2.4882  -2.4512  -2.3677
    -2.3565  -2.3390  -2.2890

          k =-0.5000-0.8660 0.0000 (321564 PWs)   bands (ev):

  -102.9852 -88.2938 -71.3068 -71.2943 -71.2847 -71.2725 -71.2651 -71.2587
   -71.2511 -66.6891 -66.6890 -66.6785 -66.6785 -66.6635 -66.6635 -66.6635
   -66.6635 -66.6591 -66.6591 -66.6529 -66.6529 -66.6529 -66.6529 -66.6485
   -66.6485 -66.6232 -66.6229 -66.6126 -66.6124 -66.5977 -66.5977 -66.5976
   -66.5973 -66.5934 -66.5930 -66.5872 -66.5871 -66.5869 -66.5865 -66.5826
   -66.5825 -66.5579 -66.5552 -66.5420 -66.5367 -66.5346 -66.5298 -66.5263
   -66.5202 -66.5160 -66.5103 -66.5039 -66.4971 -66.4936 -66.4894 -66.4827
   -66.4756 -57.2304 -57.2176 -57.1808 -54.1557 -54.1029 -54.0290 -40.9902
   -40.9902 -40.9902 -40.9902 -40.9635 -40.9635 -40.9516 -40.9516 -40.9233
   -40.9232 -40.9230 -40.9228 -40.9012 -40.9012 -40.9012 -40.9012 -40.8966
   -40.8963 -40.8846 -40.8844 -40.8530 -40.8526 -40.8432 -40.8432 -40.8432
   -40.8342 -40.8342 -40.8341 -40.8340 -40.8333 -40.8333 -40.8301 -40.8260
   -40.8225 -40.8225 -40.8223 -40.8031 -40.7931 -40.7931 -40.7931 -40.7931
   -40.7844 -40.7844 -40.7817 -40.7778 -40.7776 -40.7723 -40.7723 -40.7722
   -40.7722 -40.7722 -40.7722 -40.7664 -40.7663 -40.7635 -40.7635 -40.7576
   -40.7571 -40.7569 -40.7488 -40.7424 -40.7415 -40.7415 -40.7415 -40.7415
   -40.7390 -40.7329 -40.7277 -40.7277 -40.7277 -40.7274 -40.7191 -40.7188
   -40.7125 -40.7091 -40.7070 -40.7070 -40.7070 -40.7070 -40.7070 -40.7069
   -40.7067 -40.7064 -40.7054 -40.7053 -40.6982 -40.6981 -40.6949 -40.6949
   -40.6891 -40.6817 -40.6775 -40.6757 -40.6757 -40.6749 -40.6748 -40.6746
   -40.6745 -40.6743 -40.6668 -40.6638 -40.6600 -40.6589 -40.6588 -40.6549
   -40.6449 -40.6424 -40.6402 -40.6402 -40.6401 -40.6400 -40.6381 -40.6364
   -40.6318 -40.6284 -40.6284 -40.6283 -40.6279 -40.6265 -40.6244 -40.6208
   -40.6169 -40.6091 -40.6087 -40.5977 -40.5962 -40.5929 -40.5921 -40.5920
   -40.5917 -40.5648 -40.5618 -40.5614 -40.5557 -40.5519 -40.5497 -40.5389
   -40.5336 -40.5306 -40.5157 -40.5039 -40.4825 -40.4801 -40.4604 -19.9575
   -19.8919 -19.8710 -19.7874 -19.7130 -19.6670 -19.4734 -19.4587 -19.4234
   -19.3744 -19.2851 -19.2590 -19.0086 -18.8346 -18.8047 -18.7557 -18.7482
   -18.7474 -18.7438 -18.7353 -18.7104 -18.6796 -18.6460 -18.6241 -18.6188
   -18.6134 -18.5812 -18.5597 -18.5568 -18.5452 -18.5021 -18.4992 -18.4820
   -18.4673 -18.4340 -18.4217 -18.4060 -18.3993 -18.3831 -18.3290 -18.3230
   -18.2764 -18.2617 -18.2414 -18.2340 -18.2236 -18.1912 -18.1765 -18.1644
   -18.1355 -18.1350 -18.1348 -18.1347 -18.1329 -18.1133 -18.1100 -18.0833
   -18.0758 -18.0647 -18.0599 -18.0571 -18.0527 -18.0466 -18.0365 -18.0108
   -18.0029 -17.9935 -17.9879 -17.9820 -17.9773 -17.9550 -17.9507 -17.9463
   -17.9386 -17.9325 -17.9225 -17.8915 -17.8881 -17.8759 -17.8714 -17.8714
   -17.8672 -17.8258 -17.8238 -17.8116 -17.8115 -17.8074 -17.7955 -17.7950
   -17.7875 -17.7704 -17.7566 -17.7511 -17.7472 -17.6957 -17.6857 -11.9666
   -11.7966 -11.6906 -11.6573 -11.6164 -11.5033 -11.4849 -11.4826 -11.4800
   -11.4754 -11.4590 -11.4517 -11.4404 -11.4020 -11.3926 -11.3816 -11.3770
   -11.3618 -11.3317 -11.3218 -11.3098 -11.2967 -11.2916 -11.2782 -11.2749
   -11.2643 -11.2643 -11.2186 -11.2183 -11.2064 -11.1703 -11.1662 -11.1599
   -11.1584 -11.1192 -11.0799 -11.0265 -11.0045 -10.9859 -10.9819 -10.9675
   -10.9569 -10.9286 -10.9233 -10.9164 -10.9062 -10.8927 -10.8878 -10.8810
   -10.8469 -10.8444 -10.8387 -10.8372 -10.8368 -10.8341 -10.8265 -10.8104
   -10.8011 -10.7972 -10.7803 -10.7713 -10.7681 -10.7608 -10.7465 -10.6230
   -10.6115 -10.5907 -10.5502 -10.5003 -10.4943 -10.3974 -10.3695 -10.2876
   -10.2655 -10.2251 -10.1915 -10.1366 -10.1307 -10.1198 -10.1139 -10.0593
   -10.0436 -10.0208 -10.0155  -9.9663  -9.9631  -9.9445  -9.9430  -9.9410
    -9.9333  -9.9227  -9.9116  -9.9031  -9.8996  -9.8901  -9.8666  -9.8193
    -9.7991  -9.7914  -9.7687  -9.7653  -9.7552  -9.7433  -9.7386  -9.7192
    -9.7181  -9.7074  -9.7037  -9.6838  -9.6672  -9.6613  -9.6461  -9.6318
    -9.6229  -9.6185  -9.6100  -9.5727  -9.5551  -9.5393  -9.5372  -9.5280
    -9.5214  -9.4793  -9.4777  -9.4746  -9.4375  -9.3874  -9.3417  -9.3261
    -9.3215  -9.2780  -9.2236  -9.2093  -9.2033  -9.1829  -9.1702  -9.1611
    -9.1482  -9.1355  -9.1321  -9.1187  -9.0997  -9.0861  -9.0635  -9.0515
    -9.0375  -9.0319  -9.0228  -9.0193  -9.0071  -8.9954  -8.9878  -8.9759
    -8.9655  -8.9579  -8.9522  -8.9398  -8.9394  -8.9359  -8.9258  -8.9086
    -8.8988  -8.8782  -8.8681  -8.8651  -8.8601  -8.8565  -8.8517  -8.8469
    -8.8464  -8.8386  -8.8299  -8.8260  -8.8150  -8.8096  -8.7898  -8.7743
    -8.7698  -8.7608  -8.7503  -8.7346  -8.7109  -8.6653  -8.5602  -8.5411
    -8.5193  -8.5178  -8.4427  -8.4392  -8.4328  -8.3814  -8.3607  -8.2934
    -8.2136  -8.2007  -8.2007  -8.1835  -8.1287  -8.1280  -8.1153  -8.0702
    -8.0481  -8.0278  -7.9833  -7.9435  -7.9389  -7.9233  -7.8780  -7.8702
    -7.8671  -7.8618  -7.8541  -7.8540  -7.8539  -7.8523  -7.8488  -7.8410
    -7.8188  -7.8084  -7.8079  -7.8069  -7.8050  -7.7848  -7.7837  -7.7742
    -7.7694  -7.7626  -7.7573  -7.7484  -7.7451  -7.7360  -7.7322  -7.7274
    -7.7237  -7.7165  -7.7025  -7.6930  -7.6917  -7.6792  -7.6687  -7.6687
    -7.6662  -7.6611  -7.6432  -7.6335  -7.6240  -7.6177  -7.6088  -7.5991
    -7.5898  -7.5880  -7.5690  -7.5599  -7.5238  -7.5219  -7.5001  -7.4705
    -7.4409  -7.3991  -7.3163  -7.2761  -7.2583  -7.2521  -7.2349  -7.2169
    -7.2143  -7.1751  -7.1462  -7.1368  -7.1249  -7.0785  -7.0617  -7.0427
    -7.0275  -7.0161  -7.0159  -7.0015  -6.9610  -6.9575  -6.9496  -6.9397
    -6.9115  -6.9063  -6.8790  -6.8687  -6.8411  -6.8318  -6.8210  -6.7963
    -6.7348  -6.7270  -6.6993  -6.6762  -6.6657  -6.6657  -6.6655  -6.6655
    -6.6462  -6.6272  -6.6122  -6.5992  -6.5966  -6.5954  -6.5942  -6.5720
    -6.5568  -6.5450  -6.4908  -6.4778  -6.4614  -6.4380  -6.4211  -6.4055
    -6.3593  -6.3342  -6.3339  -6.3331  -6.3327  -6.2768  -6.2700  -6.2574
    -6.2550  -6.2518  -6.2476  -6.2422  -6.2239  -6.2110  -6.2094  -6.1629
    -6.1498  -6.0203  -5.9855  -5.9855  -5.9329  -5.9199  -5.9045  -5.9017
    -5.8351  -5.7543  -5.6669  -5.6563  -5.5828  -5.5561  -5.4783  -5.3974
    -5.3239  -4.1883  -4.0419  -4.0286  -4.0204  -3.9944  -3.9010  -3.9010
    -3.8900  -3.8662  -3.8393  -3.8361  -3.8350  -3.7892  -3.7800  -3.7682
    -3.7575  -3.7311  -3.6914  -3.6364  -3.6107  -3.6051  -3.6029  -3.5995
    -3.5910  -3.5866  -3.5864  -3.5612  -3.5550  -3.5275  -3.5097  -3.5068
    -3.4981  -3.4883  -3.4826  -3.4792  -3.4725  -3.4693  -3.4669  -3.4259
    -3.4194  -3.4096  -3.3809  -3.3734  -3.3608  -3.3538  -3.3533  -3.3422
    -3.3250  -3.3215  -3.3199  -3.3123  -3.2922  -3.2816  -3.2777  -3.2774
    -3.2761  -3.2755  -3.2518  -3.2423  -3.2394  -3.2362  -3.2288  -3.2165
    -3.2095  -3.2059  -3.2002  -3.1984  -3.1884  -3.1606  -3.1365  -3.1249
    -3.1176  -3.1049  -3.0861  -3.0742  -3.0723  -3.0430  -3.0376  -3.0342
    -3.0314  -3.0149  -3.0142  -3.0139  -3.0135  -2.9827  -2.9727  -2.9663
    -2.9643  -2.9517  -2.9398  -2.9382  -2.9271  -2.9219  -2.9164  -2.9095
    -2.9017  -2.8959  -2.8874  -2.8797  -2.8710  -2.8600  -2.8483  -2.8378
    -2.8279  -2.8135  -2.8019  -2.8006  -2.7972  -2.7406  -2.7359  -2.7150
    -2.7026  -2.6691  -2.6518  -2.6513  -2.6435  -2.6326  -2.6325  -2.5724
    -2.5654  -2.5252  -2.5133  -2.5034  -2.4960  -2.4919  -2.4590  -2.3736
    -2.3493  -2.3224  -2.2994

     the Fermi energy is    -4.6743 ev

!    total energy              =  -26031.79791763 Ry
     total all-electron energy =   -512284.367545 Ry
     estimated scf accuracy    <       0.00000029 Ry
     smearing contrib. (-TS)   =      -0.00000002 Ry
     internal energy E=F+TS    =  -26031.79791761 Ry

     The total energy is F=E-TS. E is the sum of the following terms:
     one-electron contribution =  491626.04215572 Ry
     hartree contribution      = -245955.48586304 Ry
     xc contribution           =   -1534.65537517 Ry
     ewald contribution        = -253974.94201728 Ry
     DFT-D3 Dispersion         =      -4.02204585 Ry
     one-center paw contrib.   =  -16188.73477199 Ry

     convergence has been achieved in  29 iterations

     negative rho (up, down):  9.277E-04 0.000E+00

     Forces acting on atoms (cartesian axes, Ry/au):

     atom    1 type  1   force =     0.00024890   -0.00054147    0.00012564
     atom    2 type  1   force =     0.00000331    0.00000447    0.00189420
     atom    3 type  1   force =    -0.00003993    0.00000929   -0.00002339
     atom    4 type  2   force =    -0.00000085   -0.00000121   -0.00318454
     atom    5 type  2   force =    -0.00000246    0.00000163    0.00009145
     atom    6 type  2   force =    -0.00028627    0.00004870   -0.00007755
     atom    7 type  2   force =     0.00000189   -0.00000006    0.00140028
     atom    8 type  2   force =     0.00002572   -0.00000238   -0.00010215
     atom    9 type  2   force =    -0.00044646    0.00048159    0.00005943
     atom   10 type  1   force =    -0.00282418   -0.00314051   -0.00092468
     atom   11 type  1   force =     0.00000938    0.00000678    0.00189317
     atom   12 type  1   force =    -0.00001633   -0.00003537    0.00000803
     atom   13 type  2   force =    -0.00000216   -0.00000069   -0.00318846
     atom   14 type  2   force =    -0.00001460   -0.00001577    0.00011412
     atom   15 type  2   force =     0.00034755    0.00006074   -0.00010228
     atom   16 type  2   force =    -0.00000003   -0.00000295    0.00142207
     atom   17 type  2   force =    -0.00002120   -0.00002713   -0.00009698
     atom   18 type  2   force =    -0.00026245   -0.00049271    0.00000691
     atom   19 type  1   force =    -0.00226038   -0.00031660   -0.00224483
     atom   20 type  1   force =     0.00001059    0.00000429    0.00189606
     atom   21 type  1   force =    -0.00003098    0.00002436   -0.00001070
     atom   22 type  2   force =    -0.00000006   -0.00000187   -0.00318813
     atom   23 type  2   force =     0.00000224   -0.00000056    0.00010062
     atom   24 type  2   force =    -0.00004855    0.00021700    0.00006977
     atom   25 type  2   force =     0.00000064    0.00000253    0.00140229
     atom   26 type  2   force =     0.00001298    0.00001849   -0.00005259
     atom   27 type  2   force =     0.00003100    0.00010291    0.00033549
     atom   28 type  1   force =    -0.00046107    0.00050301    0.00040933
     atom   29 type  1   force =     0.00000346    0.00000477    0.00189948
     atom   30 type  1   force =     0.00001474   -0.00003358   -0.00002505
     atom   31 type  2   force =    -0.00000188    0.00000090   -0.00317678
     atom   32 type  2   force =    -0.00000009   -0.00000087    0.00003802
     atom   33 type  2   force =     0.00010557   -0.00011162   -0.00014741
     atom   34 type  2   force =    -0.00000446    0.00000039    0.00140006
     atom   35 type  2   force =    -0.00000822    0.00001408   -0.00013407
     atom   36 type  2   force =     0.00026765   -0.00032619   -0.00027108
     atom   37 type  1   force =     0.00016074   -0.00012256    0.00000737
     atom   38 type  1   force =    -0.00000093   -0.00000270    0.00189659
     atom   39 type  1   force =     0.00003997    0.00000759   -0.00002262
     atom   40 type  2   force =     0.00000003    0.00000195   -0.00317388
     atom   41 type  2   force =    -0.00000284   -0.00000065    0.00009355
     atom   42 type  2   force =     0.00006222    0.00038113   -0.00040545
     atom   43 type  2   force =    -0.00000151    0.00000440    0.00139895
     atom   44 type  2   force =    -0.00003442   -0.00000165   -0.00012380
     atom   45 type  2   force =     0.00011804    0.00062135    0.00006010
     atom   46 type  1   force =     0.00131183   -0.00147165   -0.00560762
     atom   47 type  1   force =    -0.00000203    0.00000246    0.00188894
     atom   48 type  1   force =    -0.00001388   -0.00004179    0.00002055
     atom   49 type  2   force =     0.00000003   -0.00000330   -0.00317646
     atom   50 type  2   force =    -0.00000394    0.00002694    0.00010176
     atom   51 type  2   force =    -0.00052468   -0.00113255   -0.00030365
     atom   52 type  2   force =     0.00000108    0.00000264    0.00139508
     atom   53 type  2   force =    -0.00000412   -0.00003032   -0.00013913
     atom   54 type  2   force =     0.00282944   -0.00045046   -0.00548958
     atom   55 type  1   force =     0.00118941    0.00095426   -0.02147054
     atom   56 type  1   force =     0.00000085   -0.00000581    0.00189360
     atom   57 type  1   force =     0.00001169    0.00001962   -0.00001242
     atom   58 type  2   force =    -0.00000228   -0.00000043   -0.00317956
     atom   59 type  2   force =     0.00002799   -0.00001130    0.00010376
     atom   60 type  2   force =    -0.00019592   -0.00069836    0.00259228
     atom   61 type  2   force =     0.00000465    0.00000025    0.00138942
     atom   62 type  2   force =    -0.00000957   -0.00000203   -0.00011608
     atom   63 type  2   force =    -0.01559516   -0.00698599    0.01226867
     atom   64 type  1   force =    -0.00114120    0.00237547   -0.00234895
     atom   65 type  1   force =    -0.00000513    0.00000608    0.00189400
     atom   66 type  1   force =    -0.00002789    0.00003106    0.00001802
     atom   67 type  2   force =     0.00000004    0.00000164   -0.00317358
     atom   68 type  2   force =     0.00000536   -0.00000477    0.00010191
     atom   69 type  2   force =    -0.00072944    0.00027294   -0.00090446
     atom   70 type  2   force =     0.00000701   -0.00000027    0.00139403
     atom   71 type  2   force =    -0.00002580   -0.00001409   -0.00006673
     atom   72 type  2   force =     0.00070857   -0.00066972   -0.00079749
     atom   73 type  1   force =    -0.00016944   -0.00060103   -0.00006924
     atom   74 type  1   force =     0.00000051   -0.00000649    0.00189551
     atom   75 type  1   force =    -0.00002640   -0.00001676    0.00001464
     atom   76 type  2   force =     0.00000125   -0.00000418   -0.00317165
     atom   77 type  2   force =     0.00004235    0.00002096    0.00013957
     atom   78 type  2   force =    -0.00013710   -0.00017155   -0.00004305
     atom   79 type  2   force =    -0.00000187   -0.00000322    0.00139014
     atom   80 type  2   force =    -0.00004635   -0.00003382   -0.00002639
     atom   81 type  2   force =     0.00019048    0.00023432    0.00083716
     atom   82 type  1   force =    -0.00071452    0.00015325    0.00029156
     atom   83 type  1   force =    -0.00000233    0.00000717    0.00188876
     atom   84 type  1   force =     0.00001122   -0.00004628    0.00000779
     atom   85 type  2   force =    -0.00000124    0.00000026   -0.00317745
     atom   86 type  2   force =     0.00001797   -0.00001087    0.00011354
     atom   87 type  2   force =    -0.00042434   -0.00019337    0.00047783
     atom   88 type  2   force =    -0.00000108    0.00000417    0.00139465
     atom   89 type  2   force =     0.00001805   -0.00001506   -0.00009309
     atom   90 type  2   force =    -0.00135853   -0.00076128    0.00135682
     atom   91 type  1   force =     0.00317954   -0.00129187    0.00211604
     atom   92 type  1   force =    -0.00000451    0.00000466    0.00188997
     atom   93 type  1   force =    -0.00002285    0.00004050   -0.00000957
     atom   94 type  2   force =     0.00000195   -0.00000071   -0.00317703
     atom   95 type  2   force =    -0.00002622   -0.00000655    0.00010888
     atom   96 type  2   force =    -0.00016854   -0.00006894    0.00255587
     atom   97 type  2   force =    -0.00000141    0.00000216    0.00139554
     atom   98 type  2   force =    -0.00000277    0.00000375   -0.00009325
     atom   99 type  2   force =     0.02059219   -0.01438922   -0.00222057
     atom  100 type  1   force =     0.00100629    0.00233217   -0.00066231
     atom  101 type  1   force =     0.00000906    0.00000016    0.00189360
     atom  102 type  1   force =     0.00000071   -0.00000171   -0.00000232
     atom  103 type  2   force =     0.00000070    0.00000396   -0.00318158
     atom  104 type  2   force =     0.00000085    0.00001778    0.00012328
     atom  105 type  2   force =    -0.00000386   -0.00036163    0.00275778
     atom  106 type  2   force =     0.00000515   -0.00000096    0.00140368
     atom  107 type  2   force =     0.00000922    0.00003832   -0.00010360
     atom  108 type  2   force =    -0.00218073    0.01864948    0.01392316
     atom  109 type  1   force =    -0.00014560   -0.00020829    0.00046253
     atom  110 type  1   force =    -0.00000186   -0.00001030    0.00189587
     atom  111 type  1   force =     0.00003745    0.00000460    0.00011363
     atom  112 type  2   force =     0.00000152   -0.00000175   -0.00317957
     atom  113 type  2   force =    -0.00003733    0.00002187    0.00012037
     atom  114 type  2   force =     0.00023897   -0.00022831   -0.00055777
     atom  115 type  2   force =     0.00000061   -0.00000009    0.00140856
     atom  116 type  2   force =     0.00005547   -0.00001651   -0.00007958
[...]
     atom   70 type  2   force =     0.00001013    0.00000007    0.00149879
     atom   71 type  2   force =     0.00000187   -0.00000125   -0.00000543
     atom   72 type  2   force =    -0.00003053   -0.00011532    0.00000066
     atom   73 type  1   force =    -0.00003333   -0.00001707    0.00014853
     atom   74 type  1   force =     0.00000205    0.00000192    0.00189714
     atom   75 type  1   force =     0.00000634   -0.00001046    0.00000635
     atom   76 type  2   force =     0.00000247    0.00000282   -0.00327955
     atom   77 type  2   force =    -0.00000058   -0.00000194    0.00001510
     atom   78 type  2   force =    -0.00012085    0.00014967    0.00018140
     atom   79 type  2   force =     0.00000696    0.00000279    0.00149465
     atom   80 type  2   force =    -0.00000064   -0.00000462    0.00001520
     atom   81 type  2   force =    -0.00004782    0.00014732    0.00025914
     atom   82 type  1   force =     0.00009367    0.00006740   -0.00025375
     atom   83 type  1   force =     0.00000085    0.00000295    0.00189664
     atom   84 type  1   force =     0.00000159    0.00001333    0.00002401
     atom   85 type  2   force =     0.00000271    0.00000258   -0.00327954
     atom   86 type  2   force =     0.00000678    0.00000500    0.00001830
     atom   87 type  2   force =    -0.00017516    0.00017627   -0.00004723
     atom   88 type  2   force =     0.00000091    0.00000932    0.00149016
     atom   89 type  2   force =    -0.00000359   -0.00000915    0.00000928
     atom   90 type  2   force =     0.00052618   -0.00014499   -0.00032516
     atom   91 type  1   force =    -0.00048438   -0.00032880    0.00014415
     atom   92 type  1   force =     0.00000028    0.00000192    0.00189217
     atom   93 type  1   force =     0.00000616    0.00000204    0.00000351
     atom   94 type  2   force =     0.00000275    0.00000281   -0.00327936
     atom   95 type  2   force =     0.00001888    0.00000701    0.00002457
     atom   96 type  2   force =     0.00022888    0.00038326   -0.00031578
     atom   97 type  2   force =     0.00000443    0.00000503    0.00149201
     atom   98 type  2   force =    -0.00001436    0.00000293    0.00002190
     atom   99 type  2   force =    -0.00000015   -0.00069531    0.00083740
     atom  100 type  1   force =     0.00002559    0.00000316   -0.00001608
     atom  101 type  1   force =     0.00000103    0.00000254    0.00189418
     atom  102 type  1   force =     0.00000606    0.00000147   -0.00000128
     atom  103 type  2   force =     0.00000270    0.00000290   -0.00327959
     atom  104 type  2   force =     0.00000486    0.00000568    0.00000809
     atom  105 type  2   force =    -0.00003370    0.00039202    0.00010280
     atom  106 type  2   force =     0.00000885    0.00000272    0.00149389
     atom  107 type  2   force =     0.00000431    0.00000190   -0.00000284
     atom  108 type  2   force =     0.00004207   -0.00007884    0.00061554
     atom  109 type  1   force =    -0.00004946    0.00000144   -0.00008138
     atom  110 type  1   force =     0.00000220    0.00000309    0.00190067
     atom  111 type  1   force =    -0.00001295    0.00000880   -0.00000628
     atom  112 type  2   force =     0.00000276    0.00000287   -0.00327963
     atom  113 type  2   force =    -0.00000581   -0.00000191   -0.00000391
     atom  114 type  2   force =    -0.00008774    0.00007339   -0.00008123
     atom  115 type  2   force =    -0.00000239    0.00000127    0.00150816
     atom  116 type  2   force =     0.00000453    0.00003425   -0.00003320
     atom  117 type  2   force =     0.00007662   -0.00012640    0.00004258
     atom  118 type  1   force =    -0.00005546   -0.00005763   -0.00004112
     atom  119 type  1   force =     0.00000325    0.00000230    0.00190013
     atom  120 type  1   force =     0.00000590   -0.00001484    0.00000452
     atom  121 type  2   force =     0.00000276    0.00000283   -0.00327929
     atom  122 type  2   force =    -0.00000931    0.00000488    0.00001537
     atom  123 type  2   force =    -0.00003874   -0.00016752    0.00002271
     atom  124 type  2   force =     0.00000166    0.00000185    0.00151412
     atom  125 type  2   force =     0.00001383   -0.00000291    0.00000380
     atom  126 type  2   force =    -0.00014830    0.00010790    0.00003238
     atom  127 type  1   force =     0.00009837    0.00007344   -0.00035061
     atom  128 type  1   force =     0.00000120    0.00000238    0.00190142
     atom  129 type  1   force =    -0.00000439    0.00000268    0.00002639
     atom  130 type  2   force =     0.00000285    0.00000282   -0.00327945
     atom  131 type  2   force =    -0.00000545    0.00000032    0.00002215
     atom  132 type  2   force =    -0.00000451    0.00008744   -0.00009154
     atom  133 type  2   force =    -0.00000672   -0.00000104    0.00150032
     atom  134 type  2   force =     0.00002526   -0.00001165   -0.00001828
     atom  135 type  2   force =    -0.00016154    0.00023717   -0.00042521
     atom  136 type  1   force =     0.00014330    0.00007146   -0.00019479
     atom  137 type  1   force =     0.00000095    0.00000305    0.00189812
     atom  138 type  1   force =     0.00000329    0.00000171    0.00000310
     atom  139 type  2   force =     0.00000290    0.00000300   -0.00327911
     atom  140 type  2   force =     0.00000574    0.00000161    0.00002244
     atom  141 type  2   force =     0.00033178    0.00004577   -0.00012145
     atom  142 type  2   force =    -0.00000604   -0.00000085    0.00149713
     atom  143 type  2   force =     0.00000573    0.00001331    0.00001616
     atom  144 type  2   force =     0.00015595   -0.00028417   -0.00036624
     atom  145 type  3   force =    -0.00022232   -0.00050200    0.00035093
     atom  146 type  4   force =    -0.00028198    0.00017333    0.00003888

     Total force =     0.002626     Total SCF correction =     0.000685
     SCF correction compared to forces is large: reduce conv_thr to get better values
     Energy error            =      1.5E-05 Ry
     Gradient error          =      8.4E-04 Ry/Bohr

     bfgs converged in  31 scf cycles and  27 bfgs steps
     (criteria: energy <  1.0E-04 Ry, force <  1.0E-03 Ry/Bohr)

     End of BFGS Geometry Optimization

     Final energy             =  -26031.8089222552 Ry

     File ./outdir/pwscf.bfgs deleted, as requested
Begin final coordinates

ATOMIC_POSITIONS (angstrom)
Mo               1.5714583340        2.7132034049        6.0874490092
Mo               1.5769197498        0.9104407117       -6.0872367793    0   0   0
Mo               0.0001522468        1.8213128005       -0.0010591133
S                0.0000044503        0.0000077495       -7.6506323570    0   0   0
S                1.5767440444        0.9108790663       -1.5670036134
S                0.0030313066        1.8274425846        4.5007931308
S                0.0000053241        0.0000068460       -4.5222282367    0   0   0
S                1.5773738753        0.9103104403        1.5651947163
S               -0.0123253055        1.8072637684        7.6440511909
Mo              -0.0255360075        5.4511935156        6.0946139348
Mo               0.0000011799        3.6417399547       -6.0872367793    0   0   0
Mo              -1.5766676120        4.5523368680       -0.0003128372
S               -1.5769141197        2.7313069925       -7.6506323570    0   0   0
S                0.0000550520        3.6422052749       -1.5661032819
S               -1.5777406379        4.5516513978        4.5035126412
S               -1.5769132459        2.7313060890       -4.5222282367    0   0   0
S                0.0011181536        3.6423984636        1.5667237205
S               -1.6079132702        4.5368068365        7.6477461944
Mo              -1.5930645517        8.1957605056        6.0803601976
Mo              -1.5769173901        6.3730391977       -6.0872367793    0   0   0
Mo              -3.1535272244        7.2833922193       -0.0019477399
S               -3.1538326896        5.4626062355       -7.6506323570    0   0   0
S               -1.5763257429        6.3726284408       -1.5665229922
S               -3.1504658660        7.2833384682        4.5005937773
S               -3.1538318159        5.4626053320       -4.5222282367    0   0   0
S               -1.5763421176        6.3738983214        1.5662307511
S               -3.1659654574        7.2803656455        7.6428552120
Mo               3.1544005702        0.0002430609        6.0778628031
Mo              -3.1538359601        9.1043384407       -6.0872367793    0   0   0
Mo              -4.7307752067       10.0148156396       -0.0020424276
S               -4.7307512596        8.1939054785       -7.6506323570    0   0   0
S               -3.1537095092        9.1043160808       -1.5675130533
S               -4.7235180061       10.0178713832        4.5016398784
S               -4.7307503859        8.1939045750       -4.5222282367    0   0   0
S               -3.1536555573        9.1044602908        1.5645502135
S               -4.7323891997       10.0151856118        7.6363154275
Mo               4.7359131343        2.7210684497        6.0964420749
Mo               4.7307503218        0.9104407117       -6.0872367793    0   0   0
Mo               3.1539338379        1.8211630069       -0.0014820058
S                3.1538350223        0.0000077495       -7.6506323570    0   0   0
S                4.7312332157        0.9109373812       -1.5667711495
S                3.1582555462        1.8245317654        4.5173065477
S                3.1538358961        0.0000068460       -4.5222282367    0   0   0
S                4.7300222744        0.9099997785        1.5655988391
S                3.1508052393        1.8119100346        7.6534883142
Mo               3.1612895845        5.4543738447        6.1359510042
Mo               3.1538317519        3.6417399547       -6.0872367793    0   0   0
Mo               1.5772408983        4.5525770338       -0.0007554207
S                1.5769164523        2.7313069925       -7.6506323570    0   0   0
S                3.1539627439        3.6422554276       -1.5663868320
S                1.5939026614        4.5627753681        4.5636044980
S                1.5769173261        2.7313060890       -4.5222282367    0   0   0
S                3.1535373206        3.6416663931        1.5669215818
S                1.4662700011        4.4807492915        7.7154255000
Mo               1.5666516882        8.2124767533        6.1263164272
Mo               1.5769131819        6.3730391977       -6.0872367793    0   0   0
Mo               0.0004581394        7.2834977003       -0.0009785245
S               -0.0000021176        5.4626062355       -7.6506323570    0   0   0
S                1.5773586510        6.3731981838       -1.5662481731
S                0.0119888134        7.2877244687        4.5493113717
S               -0.0000012439        5.4626053320       -4.5222282367    0   0   0
S                1.5767733870        6.3729677835        1.5674086245
S               -0.0837655007        7.2453099610        7.6838055551
Mo               6.3046891437        0.0081817689        6.0876468158
Mo              -0.0000053881        9.1043384407       -6.0872367793    0   0   0
Mo              -1.5766914900       10.0148397273       -0.0019027652
S               -1.5769206876        8.1939054785       -7.6506323570    0   0   0
S                0.0007197118        9.1043351587       -1.5665119253
S               -1.5742510592       10.0174152198        4.5123712826
S               -1.5769198139        8.1939045750       -4.5222282367    0   0   0
S               -0.0005853662        9.1040701874        1.5664318445
S               -1.5830440892       10.0145096832        7.6478847460
Mo               7.8832016769        2.7306330659        6.0774038850
Mo               7.8845808939        0.9104407117       -6.0872367793    0   0   0
Mo               6.3074343809        1.8209267655       -0.0000955630
S                6.3076655943        0.0000077495       -7.6506323570    0   0   0
S                7.8844647173        0.9102988129       -1.5653956535
S                6.3014887142        1.8204104160        4.5146967200
S                6.3076664681        0.0000068460       -4.5222282367    0   0   0
S                7.8842019876        0.9098035665        1.5674332491
S                6.3163481240        1.8199935610        7.6589584193
Mo               6.3182210201        5.4624563343        6.0913711840
Mo               6.3076623239        3.6417399547       -6.0872367793    0   0   0
Mo               4.7303289920        4.5523973529       -0.0002150661
S                4.7307470244        2.7313069925       -7.6506323570    0   0   0
S                6.3072765831        3.6417207085       -1.5656677416
S                4.7093228907        4.5598474955        4.5611096523
S                4.7307478981        2.7313060890       -4.5222282367    0   0   0
S                6.3066044605        3.6422088560        1.5672952382
S                4.8223466593        4.4950111946        7.7386167753
Mo               4.7777220873        8.2213639546        6.0653073202
Mo               4.7307437539        6.3730391977       -6.0872367793    0   0   0
Mo               3.1536521968        7.2833279085       -0.0000039036
S                3.1538284544        5.4626062355       -7.6506323570    0   0   0
S                4.7303831933        6.3730888272       -1.5657282892
S                3.1444363639        7.2713733527        4.5804264433
S                3.1538293281        5.4626053320       -4.5222282367    0   0   0
S                4.7302504330        6.3731335841        1.5678668065
S                3.2642663827        7.3970100094        7.6796291821
Mo               9.4640105145        0.0068912604        6.0843492512
Mo               3.1538251839        9.1043384407       -6.0872367793    0   0   0
Mo               1.5768919051       10.0144557910        0.0000082176
S                1.5769098844        8.1939054785       -7.6506323570    0   0   0
S                3.1537659221        9.1042384491       -1.5654237647
S                1.5734662815        9.9993297738        4.5431030936
S                1.5769107581        8.1939045750       -4.5222282367    0   0   0
S                3.1536293640        9.1035413523        1.5678582892
S                1.5700128002       10.0944215740        7.7075956443
Mo              -1.5805374712        2.7291894828        6.0699432462
Mo              11.0384114659        0.9104407117       -6.0872367793    0   0   0
Mo               9.4612962162        1.8208544596       -0.0002583049
S                9.4614961663        0.0000077495       -7.6506323570    0   0   0
S               11.0380929556        0.9104717487       -1.5658947685
S                9.4560538692        1.8169151064        4.5081843540
S                9.4614970401        0.0000068460       -4.5222282367    0   0   0
S               11.0388338118        0.9110486688        1.5658968191
S                9.4648042063        1.8290593222        7.6463324260
Mo              -3.1579863386        5.4605770815        6.0686739198
Mo               9.4614928959        3.6417399547       -6.0872367793    0   0   0
Mo               7.8842888806        4.5520887774       -0.0005906694
S                7.8845775964        2.7313069925       -7.6506323570    0   0   0
S                9.4614984378        3.6416420808       -1.5657125463
S                7.8757330350        4.5505706124        4.5087933821
S                7.8845784701        2.7313060890       -4.5222282367    0   0   0
S                9.4613377968        3.6419540666        1.5666186437
S                7.8984790623        4.5496876687        7.6487027512
Mo              -4.7244467005        8.1937438256        6.0667504304
Mo               7.8845743259        6.3730391977       -6.0872367793    0   0   0
Mo               6.3074590454        7.2833287215       -0.0006319516
S                6.3076590264        5.4626062355       -7.6506323570    0   0   0
S                7.8841971106        6.3726630048       -1.5666020963
S                6.3214893544        7.2734339570        4.4989098419
S                6.3076599001        5.4626053320       -4.5222282367    0   0   0
S                7.8852725987        6.3732891855        1.5651592408
S                6.3309863432        7.2923816479        7.6427002469
Mo               0.0025110569        0.0065136762        6.0626758018
Mo               6.3076557559        9.1043384407       -6.0872367793    0   0   0
Mo               4.7305358227       10.0147616778       -0.0001697445
S                4.7307404564        8.1939054785       -7.6506323570    0   0   0
S                6.3068970513        9.1041590438       -1.5663690649
S                4.7299421339       10.0296614618        4.4944271026
S                4.7307413301        8.1939045750       -4.5222282367    0   0   0
S                6.3082748589        9.1044414610        1.5659734065
S                4.7507237164       10.0360653017        7.6392352156
Pt               3.0811082159        5.5478754568        8.9500115374
Pd               1.6100240320        8.0710578932        9.0863532327
End final coordinates



     Writing all to output data dir ./outdir/pwscf.save/ :
     XML data file, charge density, pseudopotentials, collected wavefunctions
 
     init_run     :     97.00s CPU     99.18s WALL (       1 calls)
     electrons    : 122710.03s CPU 124551.31s WALL (      31 calls)
     update_pot   :     39.49s CPU     40.69s WALL (      30 calls)
     forces       :   2260.96s CPU   2308.92s WALL (      31 calls)
     force_dftd3  :     11.82s CPU     12.33s WALL (      31 calls)

     Called by init_run:
     wfcinit      :     78.61s CPU     79.60s WALL (       1 calls)
     potinit      :      1.09s CPU      1.17s WALL (       1 calls)
     hinit0       :      9.50s CPU      9.56s WALL (       1 calls)

     Called by electrons:
     c_bands      : 106515.26s CPU 107610.85s WALL (     374 calls)
     sum_band     :  13930.77s CPU  14311.81s WALL (     374 calls)
     v_of_rho     :    109.17s CPU    122.03s WALL (     378 calls)
     newd         :   1926.06s CPU   2286.30s WALL (     378 calls)
     PAW_pot      :    304.03s CPU    306.45s WALL (     408 calls)
     mix_rho      :     27.82s CPU     31.60s WALL (     374 calls)
     energy_dftd3 :      6.62s CPU      6.65s WALL (      31 calls)

     Called by c_bands:
     init_us_2    :    529.00s CPU    531.15s WALL (    3240 calls)
     init_us_2:cp :    528.98s CPU    531.13s WALL (    3240 calls)
     cegterg      : 104275.71s CPU 105361.34s WALL (    1514 calls)

     Called by *egterg:
     cdiaghg      :   5159.63s CPU   5391.44s WALL (   17174 calls)
     h_psi        :  54210.31s CPU  54569.80s WALL (   17406 calls)
     s_psi        :  11691.59s CPU  11738.57s WALL (   17406 calls)
     g_psi        :    118.04s CPU    118.57s WALL (   15888 calls)

     Called by h_psi:
     h_psi:calbec :  11502.02s CPU  11541.94s WALL (   17406 calls)
     vloc_psi     :  30705.22s CPU  30887.47s WALL (   17406 calls)
     add_vuspsi   :  11743.92s CPU  11794.98s WALL (   17406 calls)

     General routines
     calbec       :  16643.00s CPU  16698.98s WALL (   19518 calls)
     fft          :     87.24s CPU     99.28s WALL (    5250 calls)
     ffts         :      4.94s CPU      5.09s WALL (     752 calls)
     fftw         :  23016.55s CPU  23150.51s WALL ( 8116692 calls)
     interpolate  :      9.02s CPU      9.89s WALL (     378 calls)
 
     Parallel routines
 
     PWSCF        :   1d10h58m CPU   1d11h30m WALL

 
   This run was terminated on:  22:37:17  10Mar2024            

=------------------------------------------------------------------------------=
   JOB DONE.
=------------------------------------------------------------------------------=
