
     Program PWSCF v.7.3 starts on 14Mar2024 at 20:32:51 

     This program is part of the open-source Quantum ESPRESSO suite
     for quantum simulation of materials; please cite
         "P. Giannozzi et al., J. Phys.:Condens. Matter 21 395502 (2009);
         "P. Giannozzi et al., J. Phys.:Condens. Matter 29 465901 (2017);
         "P. Giannozzi et al., J. Chem. Phys. 152 154105 (2020);
          URL http://www.quantum-espresso.org", 
     in publications or presentations arising from this work. More details at
     http://www.quantum-espresso.org/quote

     Parallel version (MPI & OpenMP), running on      36 processor cores
     Number of MPI processes:                36
     Threads/MPI process:                     1

     MPI processes distributed on     1 nodes
     559299 MiB available memory on the printing compute node when the environment starts
 
     Waiting for input...
     Reading input from standard input
Warning: card &CELL ignored
Warning: card / ignored

     Current dimensions of program PWSCF are:
     Max number of different atomic species (ntypx) = 10
     Max number of k-points (npk) =  40000
     Max angular momentum in pseudopotentials (lmaxx) =  4
     file Mo.pbe-spn-kjpaw_psl.1.0.0.UPF: wavefunction(s)  4S 4D renormalized
     file S.pbe-n-kjpaw_psl.1.0.0.UPF: wavefunction(s)  3S 3P renormalized
     file Pt.pbe-spfn-kjpaw_psl.1.0.0.UPF: wavefunction(s)  5P 4F renormalized
     file Pd.pbe-spn-kjpaw_psl.1.0.0.UPF: wavefunction(s)  4S 5S 4D renormalized
 
     R & G space division:  proc/nbgrp/npool/nimage =      36
     Subspace diagonalization in iterative solution of the eigenvalue problem:
     one sub-group per band group will be used
     scalapack distributed-memory algorithm (size of sub-group:  6*  6 procs)

 
     Parallelization info
     --------------------
     sticks:   dense  smooth     PW     G-vecs:    dense   smooth      PW
     Min         585     334     89               198743    85850   11735
     Max         586     335     90               198750    85861   11748
     Sum       21073   12049   3205              7154885  3090769  422587
 
     Using Slab Decomposition
 


     bravais-lattice index     =            0
     lattice parameter (alat)  =      23.8199  a.u.
     unit-cell volume          =   33861.0370 (a.u.)^3
     number of atoms/cell      =          194
     number of atomic types    =            4
     number of electrons       =      1714.00
     number of Kohn-Sham states=         1028
     kinetic-energy cutoff     =      77.0000  Ry
     charge density cutoff     =     539.0000  Ry
     scf convergence threshold =      1.0E-06
     mixing beta               =       0.2000
     number of iterations used =            8  plain     mixing
     energy convergence thresh.=      1.0E-04
     force convergence thresh. =      1.0E-03
     Exchange-correlation= SLA  PW   PBX  PBC
                           (   1   4   3   4   0   0   0)
     nstep                     =         1000


     Effective Screening Medium Method
     =================================
     Boundary Conditions: Vacuum-Slab-Vacuum
     total charge in unit cell        =   0.0000
     grid points for fit at edges     =        4 
 

     celldm(1)=  23.819920  celldm(2)=   0.000000  celldm(3)=   0.000000
     celldm(4)=   0.000000  celldm(5)=   0.000000  celldm(6)=   0.000000

     crystal axes: (cart. coord. in units of alat)
               a(1) = (   1.000000   0.000000   0.000000 )  
               a(2) = (  -0.499999   0.866026   0.000000 )  
               a(3) = (   0.000000   0.000000   2.893000 )  

     reciprocal axes: (cart. coord. in units 2 pi/alat)
               b(1) = (  1.000000  0.577349  0.000000 )  
               b(2) = (  0.000000  1.154700  0.000000 )  
               b(3) = (  0.000000  0.000000  0.345662 )  


     PseudoPot. # 1 for Mo read from file:
     ./pseudo/Mo.pbe-spn-kjpaw_psl.1.0.0.UPF
     MD5 check sum: 317bf72632116215fd98f72de1686f13
     Pseudo is Projector augmented-wave + core cor, Zval = 14.0
     Generated using 'atomic' code by A. Dal Corso  v.7.2
     Shape of augmentation charge: PSQ
     Using radial grid of 1229 points,  6 beta functions with: 
                l(1) =   0
                l(2) =   0
                l(3) =   1
                l(4) =   1
                l(5) =   2
                l(6) =   2
     Q(r) pseudized with 0 coefficients 


     PseudoPot. # 2 for S  read from file:
     ./pseudo/S.pbe-n-kjpaw_psl.1.0.0.UPF
     MD5 check sum: 8b7b5302570d38d5e87fed6a1065abda
     Pseudo is Projector augmented-wave + core cor, Zval =  6.0
     Generated using 'atomic' code by A. Dal Corso  v.7.2
     Shape of augmentation charge: PSQ
     Using radial grid of 1151 points,  6 beta functions with: 
                l(1) =   0
                l(2) =   0
                l(3) =   1
                l(4) =   1
                l(5) =   2
                l(6) =   2
     Q(r) pseudized with 0 coefficients 


     PseudoPot. # 3 for Pt read from file:
     ./pseudo/Pt.pbe-spfn-kjpaw_psl.1.0.0.UPF
     MD5 check sum: 620096ebf4e6ebacc94de60fd67efcb5
     Pseudo is Projector augmented-wave + core cor, Zval = 32.0
     Generated using 'atomic' code by A. Dal Corso  v.7.2
     Shape of augmentation charge: PSQ
     Using radial grid of 1277 points,  8 beta functions with: 
                l(1) =   0
                l(2) =   0
                l(3) =   1
                l(4) =   1
                l(5) =   2
                l(6) =   2
                l(7) =   3
                l(8) =   3
     Q(r) pseudized with 0 coefficients 


     PseudoPot. # 4 for Pd read from file:
     ./pseudo/Pd.pbe-spn-kjpaw_psl.1.0.0.UPF
     MD5 check sum: a60571a671f2502b8a6a4569d20a6edb
     Pseudo is Projector augmented-wave + core cor, Zval = 18.0
     Generated using 'atomic' code by A. Dal Corso  v.7.2
     Shape of augmentation charge: PSQ
     Using radial grid of 1235 points,  6 beta functions with: 
                l(1) =   0
                l(2) =   0
                l(3) =   1
                l(4) =   1
                l(5) =   2
                l(6) =   2
     Q(r) pseudized with 0 coefficients 


     atomic species   valence    mass     pseudopotential
     Mo               14.00    95.95000     Mo( 1.00)
     S                 6.00    32.06000     S ( 1.00)
     Pt               32.00   195.08400     Pt( 1.00)
     Pd               18.00   106.42000     Pd( 1.00)

     No symmetry found



   Cartesian axes

     site n.     atom                  positions (alat units)
         1        Mo     tau(   1) = (   0.0000010   0.1443372  -0.7272732  )
         2        Mo     tau(   2) = (   0.1249995   0.0721706  -0.2424038  )
         3        S      tau(   3) = (   0.0000015   0.1443386  -0.3667807  )
         4        S      tau(   4) = (   0.1250010   0.0721682  -0.6030489  )
         5        S      tau(   5) = (   0.1250010   0.0721683  -0.8514963  )
         6        S      tau(   6) = (   0.0000015   0.1443389  -0.1180260  )
         7        Mo     tau(   7) = (   0.0000014   0.1443616   0.2424356  )
         8        Mo     tau(   8) = (   0.1250042   0.0720311   0.7263989  )
         9        S      tau(   9) = (   0.0000639   0.1447004   0.6020022  )
        10        S      tau(  10) = (   0.1250030   0.0721650   0.3667578  )
        11        S      tau(  11) = (   0.1250031   0.0721991   0.1180453  )
        12        S      tau(  12) = (  -0.0005532   0.1426765   0.8513101  )
        13        Mo     tau(  13) = (  -0.1249989   0.3608437  -0.7272732  )
        14        Mo     tau(  14) = (   0.0000030   0.2886752  -0.2424042  )
        15        S      tau(  15) = (  -0.1249977   0.3608450  -0.3667802  )
        16        S      tau(  16) = (   0.0000012   0.2886747  -0.6030489  )
        17        S      tau(  17) = (   0.0000012   0.2886748  -0.8514963  )
        18        S      tau(  18) = (  -0.1249977   0.3608454  -0.1180274  )
        19        Mo     tau(  19) = (  -0.1249758   0.3608563   0.2424461  )
        20        Mo     tau(  20) = (  -0.0009250   0.2875651   0.7279418  )
        21        S      tau(  21) = (  -0.1248723   0.3609173   0.6030853  )
        22        S      tau(  22) = (   0.0000474   0.2887247   0.3668317  )
        23        S      tau(  23) = (   0.0000000   0.2886879   0.1180554  )
        24        S      tau(  24) = (  -0.1255989   0.3604976   0.8519229  )
        25        Mo     tau(  25) = (  -0.2499987   0.5773502  -0.7272732  )
        26        Mo     tau(  26) = (  -0.1249977   0.5051839  -0.2424055  )
        27        S      tau(  27) = (  -0.2499981   0.5773518  -0.3667809  )
        28        S      tau(  28) = (  -0.1249986   0.5051812  -0.6030489  )
        29        S      tau(  29) = (  -0.1249986   0.5051813  -0.8514963  )
        30        S      tau(  30) = (  -0.2499979   0.5773512  -0.1180266  )
        31        Mo     tau(  31) = (  -0.2499765   0.5773372   0.2424355  )
        32        Mo     tau(  32) = (  -0.1264232   0.5049348   0.7279418  )
        33        S      tau(  33) = (  -0.2496528   0.5772237   0.6020023  )
        34        S      tau(  34) = (  -0.1249318   0.5051954   0.3668318  )
        35        S      tau(  35) = (  -0.1249873   0.5051727   0.1180553  )
        36        S      tau(  36) = (  -0.2517142   0.5777014   0.8513102  )
        37        Mo     tau(  37) = (  -0.3749985   0.7938567  -0.7272732  )
        38        Mo     tau(  38) = (  -0.2500001   0.7216874  -0.2424031  )
        39        S      tau(  39) = (  -0.3749980   0.7938584  -0.3667800  )
        40        S      tau(  40) = (  -0.2499984   0.7216877  -0.6030489  )
        41        S      tau(  41) = (  -0.2499984   0.7216878  -0.8514963  )
        42        S      tau(  42) = (  -0.3749982   0.7938585  -0.1180264  )
        43        Mo     tau(  43) = (  -0.3749961   0.7938572   0.2423820  )
        44        Mo     tau(  44) = (  -0.2501160   0.7217599   0.7263989  )
        45        S      tau(  45) = (  -0.3749948   0.7938592   0.6019084  )
        46        S      tau(  46) = (  -0.2499995   0.7216903   0.3667578  )
        47        S      tau(  47) = (  -0.2499699   0.7216732   0.1180452  )
        48        S      tau(  48) = (  -0.3749951   0.7938590   0.8508262  )
        49        Mo     tau(  49) = (   0.2500010   0.1443372  -0.7272732  )
        50        Mo     tau(  50) = (   0.3750034   0.0721723  -0.2424032  )
        51        S      tau(  51) = (   0.2500017   0.1443391  -0.3667788  )
        52        S      tau(  52) = (   0.3750010   0.0721682  -0.6030489  )
        53        S      tau(  53) = (   0.3750010   0.0721683  -0.8514963  )
        54        S      tau(  54) = (   0.2500016   0.1443391  -0.1180271  )
        55        Mo     tau(  55) = (   0.2500050   0.1443618   0.2424356  )
        56        Mo     tau(  56) = (   0.3749291   0.0721273   0.7261578  )
        57        S      tau(  57) = (   0.2499446   0.1447002   0.6020022  )
        58        S      tau(  58) = (   0.3750312   0.0721852   0.3667808  )
        59        S      tau(  59) = (   0.3749943   0.0721639   0.1180502  )
        60        S      tau(  60) = (   0.2505615   0.1426764   0.8513103  )
        61        Mo     tau(  61) = (   0.1250012   0.3608437  -0.7272732  )
        62        Mo     tau(  62) = (   0.2500029   0.2886782  -0.2424031  )
        63        S      tau(  63) = (   0.1250024   0.3608455  -0.3667794  )
        64        S      tau(  64) = (   0.2500012   0.2886747  -0.6030489  )
        65        S      tau(  65) = (   0.2500012   0.2886748  -0.8514963  )
        66        S      tau(  66) = (   0.1250021   0.3608455  -0.1180270  )
        67        Mo     tau(  67) = (   0.1250036   0.3608788   0.2424134  )
        68        Mo     tau(  68) = (   0.2509342   0.2875650   0.7279417  )
        69        S      tau(  69) = (   0.1250047   0.3631022   0.6070003  )
        70        S      tau(  70) = (   0.2499595   0.2887248   0.3668321  )
        71        S      tau(  71) = (   0.2500069   0.2886879   0.1180551  )
        72        S      tau(  72) = (   0.1250048   0.3485809   0.8580653  )
        73        Mo     tau(  73) = (   0.0000014   0.5773502  -0.7272732  )
        74        Mo     tau(  74) = (   0.1250045   0.5051840  -0.2424036  )
        75        S      tau(  75) = (   0.0000030   0.5773520  -0.3667799  )
        76        S      tau(  76) = (   0.1250014   0.5051812  -0.6030489  )
        77        S      tau(  77) = (   0.1250014   0.5051813  -0.8514963  )
        78        S      tau(  78) = (   0.0000026   0.5773517  -0.1180274  )
        79        Mo     tau(  79) = (   0.0000336   0.5773337   0.2424134  )
        80        Mo     tau(  80) = (   0.1250049   0.5051837   0.7323431  )
        81        S      tau(  81) = (   0.0019589   0.5762246   0.6070004  )
        82        S      tau(  82) = (   0.1250038   0.5051820   0.3668453  )
        83        S      tau(  83) = (   0.1250038   0.5051819   0.1180162  )
        84        S      tau(  84) = (  -0.0106172   0.5834855   0.8580649  )
        85        Mo     tau(  85) = (  -0.1249984   0.7938567  -0.7272732  )
        86        Mo     tau(  86) = (   0.0000069   0.7216896  -0.2424039  )
        87        S      tau(  87) = (  -0.1249975   0.7938582  -0.3667782  )
        88        S      tau(  88) = (   0.0000016   0.7216877  -0.6030489  )
        89        S      tau(  89) = (   0.0000016   0.7216878  -0.8514963  )
        90        S      tau(  90) = (  -0.1249973   0.7938582  -0.1180279  )
        91        Mo     tau(  91) = (  -0.1249742   0.7938470   0.2424356  )
        92        Mo     tau(  92) = (  -0.0004933   0.7230516   0.7279416  )
        93        S      tau(  93) = (  -0.1247124   0.7936270   0.6020023  )
        94        S      tau(  94) = (   0.0000246   0.7216257   0.3668322  )
        95        S      tau(  95) = (   0.0000165   0.7216852   0.1180552  )
        96        S      tau(  96) = (  -0.1261568   0.7951731   0.8513104  )
        97        Mo     tau(  97) = (   0.5000010   0.1443372  -0.7272732  )
        98        Mo     tau(  98) = (   0.6250001   0.0721662  -0.2424040  )
        99        S      tau(  99) = (   0.5000017   0.1443386  -0.3667801  )
       100        S      tau( 100) = (   0.6250010   0.0721682  -0.6030489  )
       101        S      tau( 101) = (   0.6250010   0.0721683  -0.8514963  )
       102        S      tau( 102) = (   0.5000020   0.1443388  -0.1180261  )
       103        Mo     tau( 103) = (   0.5000076   0.1443402   0.2423934  )
       104        Mo     tau( 104) = (   0.6250040   0.0723531   0.7270557  )
       105        S      tau( 105) = (   0.5002419   0.1444767   0.6022126  )
       106        S      tau( 106) = (   0.6250031   0.0721699   0.3667634  )
       107        S      tau( 107) = (   0.6250031   0.0721381   0.1180360  )
       108        S      tau( 108) = (   0.4998195   0.1442328   0.8511552  )
       109        Mo     tau( 109) = (   0.3750012   0.3608437  -0.7272732  )
       110        Mo     tau( 110) = (   0.4999991   0.2886761  -0.2424038  )
       111        S      tau( 111) = (   0.3750012   0.3608452  -0.3667804  )
       112        S      tau( 112) = (   0.5000012   0.2886747  -0.6030489  )
       113        S      tau( 113) = (   0.5000012   0.2886748  -0.8514963  )
       114        S      tau( 114) = (   0.3750014   0.3608455  -0.1180261  )
       115        Mo     tau( 115) = (   0.3749823   0.3608562   0.2424462  )
       116        Mo     tau( 116) = (   0.5001624   0.2885857   0.7270558  )
       117        S      tau( 117) = (   0.3748813   0.3609171   0.6030850  )
       118        S      tau( 118) = (   0.5000041   0.2886750   0.3667632  )
       119        S      tau( 119) = (   0.4999767   0.2886908   0.1180361  )
       120        S      tau( 120) = (   0.3756080   0.3604978   0.8519227  )
       121        Mo     tau( 121) = (   0.2500014   0.5773502  -0.7272732  )
       122        Mo     tau( 122) = (   0.3749983   0.5051825  -0.2424043  )
       123        S      tau( 123) = (   0.2500017   0.5773519  -0.3667810  )
       124        S      tau( 124) = (   0.3750014   0.5051812  -0.6030489  )
       125        S      tau( 125) = (   0.3750014   0.5051813  -0.8514963  )
       126        S      tau( 126) = (   0.2500018   0.5773519  -0.1180256  )
       127        Mo     tau( 127) = (   0.2499737   0.5773335   0.2424135  )
       128        Mo     tau( 128) = (   0.3764328   0.5049349   0.7279416  )
       129        S      tau( 129) = (   0.2480514   0.5762247   0.6070002  )
       130        S      tau( 130) = (   0.3749389   0.5051953   0.3668317  )
       131        S      tau( 131) = (   0.3749944   0.5051727   0.1180554  )
       132        S      tau( 132) = (   0.2606253   0.5834843   0.8580650  )
       133        Mo     tau( 133) = (   0.1250016   0.7938567  -0.7272732  )
       134        Mo     tau( 134) = (   0.2499995   0.7216883  -0.2424036  )
       135        S      tau( 135) = (   0.1250024   0.7938578  -0.3667813  )
       136        S      tau( 136) = (   0.2500016   0.7216877  -0.6030489  )
       137        S      tau( 137) = (   0.2500016   0.7216878  -0.8514963  )
       138        S      tau( 138) = (   0.1250024   0.7938579  -0.1180253  )
       139        Mo     tau( 139) = (   0.1250038   0.7938330   0.2424463  )
       140        Mo     tau( 140) = (   0.2505035   0.7230514   0.7279415  )
       141        S      tau( 141) = (   0.1250048   0.7937168   0.6030849  )
       142        S      tau( 142) = (   0.2499835   0.7216255   0.3668318  )
       143        S      tau( 143) = (   0.2499914   0.7216850   0.1180556  )
       144        S      tau( 144) = (   0.1250053   0.7945558   0.8519227  )
       145        Mo     tau( 145) = (   0.7500010   0.1443372  -0.7272732  )
       146        Mo     tau( 146) = (   0.8750038   0.0721696  -0.2424038  )
       147        S      tau( 147) = (   0.7500016   0.1443382  -0.3667789  )
       148        S      tau( 148) = (   0.8750010   0.0721682  -0.6030489  )
       149        S      tau( 149) = (   0.8750010   0.0721683  -0.8514963  )
       150        S      tau( 150) = (   0.7500016   0.1443384  -0.1180279  )
       151        Mo     tau( 151) = (   0.7499988   0.1443404   0.2423934  )
       152        Mo     tau( 152) = (   0.8750792   0.0721276   0.7261574  )
       153        S      tau( 153) = (   0.7497661   0.1444769   0.6022124  )
       154        S      tau( 154) = (   0.8749753   0.0721851   0.3667807  )
       155        S      tau( 155) = (   0.8750121   0.0721637   0.1180502  )
       156        S      tau( 156) = (   0.7501887   0.1442327   0.8511550  )
       157        Mo     tau( 157) = (   0.6250012   0.3608437  -0.7272732  )
       158        Mo     tau( 158) = (   0.7500028   0.2886769  -0.2424041  )
       159        S      tau( 159) = (   0.6250015   0.3608451  -0.3667792  )
       160        S      tau( 160) = (   0.7500012   0.2886747  -0.6030489  )
       161        S      tau( 161) = (   0.7500012   0.2886748  -0.8514963  )
       162        S      tau( 162) = (   0.6250016   0.3608454  -0.1180280  )
       163        Mo     tau( 163) = (   0.6250035   0.3608392   0.2423934  )
       164        Mo     tau( 164) = (   0.7498463   0.2885859   0.7270559  )
       165        S      tau( 165) = (   0.6250044   0.3605709   0.6022125  )
       166        S      tau( 166) = (   0.7500026   0.2886750   0.3667635  )
       167        S      tau( 167) = (   0.7500299   0.2886908   0.1180357  )
       168        S      tau( 168) = (   0.6250043   0.3610591   0.8511551  )
       169        Mo     tau( 169) = (   0.5000014   0.5773502  -0.7272732  )
       170        Mo     tau( 170) = (   0.6250029   0.5051841  -0.2424047  )
       171        S      tau( 171) = (   0.5000014   0.5773518  -0.3667794  )
       172        S      tau( 172) = (   0.6250014   0.5051812  -0.6030489  )
       173        S      tau( 173) = (   0.6250014   0.5051813  -0.8514963  )
       174        S      tau( 174) = (   0.5000016   0.5773516  -0.1180277  )
       175        Mo     tau( 175) = (   0.4999838   0.5773372   0.2424356  )
       176        Mo     tau( 176) = (   0.6250048   0.5052701   0.7261575  )
       177        S      tau( 177) = (   0.4996630   0.5772238   0.6020019  )
       178        S      tau( 178) = (   0.6250037   0.5051496   0.3667806  )
       179        S      tau( 179) = (   0.6250036   0.5051921   0.1180503  )
       180        S      tau( 180) = (   0.5017240   0.5777016   0.8513099  )
       181        Mo     tau( 181) = (   0.3750016   0.7938567  -0.7272732  )
       182        Mo     tau( 182) = (   0.5000025   0.7216901  -0.2424039  )
       183        S      tau( 183) = (   0.3750019   0.7938578  -0.3667793  )
       184        S      tau( 184) = (   0.5000016   0.7216877  -0.6030489  )
       185        S      tau( 185) = (   0.5000016   0.7216878  -0.8514963  )
       186        S      tau( 186) = (   0.3750020   0.7938579  -0.1180272  )
       187        Mo     tau( 187) = (   0.3749825   0.7938468   0.2424356  )
       188        Mo     tau( 188) = (   0.5001261   0.7217601   0.7263985  )
       189        S      tau( 189) = (   0.3747228   0.7936274   0.6020018  )
       190        S      tau( 190) = (   0.5000073   0.7216903   0.3667579  )
       191        S      tau( 191) = (   0.4999777   0.7216732   0.1180450  )
       192        S      tau( 192) = (   0.3761670   0.7951734   0.8513099  )
       193        Pt     tau( 193) = (   0.1250041   0.5051825   0.9498857  )
       194        Pd     tau( 194) = (   0.5001206   0.7217794   0.9703324  )

     --------------------------------------------
     DFT-D3 Dispersion Correction (3-body terms):
     --------------------------------------------
       Reference C6 values for interpolation: 

         atom   Coordination number   C6
         S          0.000           268.01
         S          0.995           261.99
         S          1.990           251.62
         Mo         0.000          1691.79
         Mo         1.942          1004.01
         Mo        11.056           674.22
         Pd         0.000          1217.01
         Pd         1.863           573.90
         Pd         5.710           531.75
         Pt         0.000           782.29
         Pt         1.919           692.72
         Pt         6.667           673.75

       Values used:

         atom   Coordination number  R0_AB[au]  C6      C8
         Mo        10.208            3.547    674.22  77634.20
         Mo        10.221            3.547    674.22  77634.20
         S          3.858            3.128    251.62  12327.25
         S          3.859            3.128    251.62  12327.25
         S          3.758            3.128    251.62  12327.25
         S          3.859            3.128    251.62  12327.25
         Mo        10.220            3.547    674.22  77634.20
         Mo        10.244            3.547    674.22  77634.20
         S          3.844            3.128    251.62  12327.25
         S          3.861            3.128    251.62  12327.25
         S          3.859            3.128    251.62  12327.25
         S          3.838            3.128    251.62  12327.25
         Mo        10.208            3.547    674.22  77634.20
         Mo        10.221            3.547    674.22  77634.20
         S          3.858            3.128    251.62  12327.25
         S          3.859            3.128    251.62  12327.25
         S          3.758            3.128    251.62  12327.25
         S          3.859            3.128    251.62  12327.25
         Mo        10.221            3.547    674.22  77634.20
         Mo        10.192            3.547    674.22  77634.20
         S          3.857            3.128    251.62  12327.25
         S          3.855            3.128    251.62  12327.25
         S          3.859            3.128    251.62  12327.25
         S          3.758            3.128    251.62  12327.25
         Mo        10.208            3.547    674.22  77634.20
         Mo        10.221            3.547    674.22  77634.20
         S          3.858            3.128    251.62  12327.25
         S          3.859            3.128    251.62  12327.25
         S          3.758            3.128    251.62  12327.25
         S          3.859            3.128    251.62  12327.25
         Mo        10.220            3.547    674.22  77634.20
         Mo        10.192            3.547    674.22  77634.20
         S          3.844            3.128    251.62  12327.25
         S          3.855            3.128    251.62  12327.25
         S          3.859            3.128    251.62  12327.25
         S          3.838            3.128    251.62  12327.25
         Mo        10.208            3.547    674.22  77634.20
         Mo        10.221            3.547    674.22  77634.20
         S          3.858            3.128    251.62  12327.25
         S          3.859            3.128    251.62  12327.25
         S          3.758            3.128    251.62  12327.25
         S          3.859            3.128    251.62  12327.25
         Mo        10.219            3.547    674.22  77634.20
         Mo        10.244            3.547    674.22  77634.20
         S          3.853            3.128    251.62  12327.25
         S          3.861            3.128    251.62  12327.25
         S          3.859            3.128    251.62  12327.25
         S          4.743            3.128    251.62  12327.25
         Mo        10.208            3.547    674.22  77634.20
         Mo        10.221            3.547    674.22  77634.20
         S          3.858            3.128    251.62  12327.25
         S          3.859            3.128    251.62  12327.25
         S          3.758            3.128    251.62  12327.25
         S          3.859            3.128    251.62  12327.25
         Mo        10.220            3.547    674.22  77634.20
         Mo        10.250            3.547    674.22  77634.20
         S          3.844            3.128    251.62  12327.25
         S          3.860            3.128    251.62  12327.25
         S          3.859            3.128    251.62  12327.25
         S          3.829            3.128    251.62  12327.25
         Mo        10.208            3.547    674.22  77634.20
         Mo        10.221            3.547    674.22  77634.20
         S          3.858            3.128    251.62  12327.25
         S          3.859            3.128    251.62  12327.25
         S          3.758            3.128    251.62  12327.25
         S          3.859            3.128    251.62  12327.25
         Mo        10.222            3.547    674.22  77634.20
         Mo        10.192            3.547    674.22  77634.20
         S          3.865            3.128    251.62  12327.25
         S          3.855            3.128    251.62  12327.25
         S          3.859            3.128    251.62  12327.25
         S          4.660            3.128    251.62  12327.25
         Mo        10.208            3.547    674.22  77634.20
         Mo        10.221            3.547    674.22  77634.20
         S          3.858            3.128    251.62  12327.25
         S          3.859            3.128    251.62  12327.25
         S          3.758            3.128    251.62  12327.25
         S          3.859            3.128    251.62  12327.25
         Mo        10.222            3.547    674.22  77634.20
         Mo        10.909            3.547    674.22  77634.20
         S          3.865            3.128    251.62  12327.25
         S          3.851            3.128    251.62  12327.25
         S          3.859            3.128    251.62  12327.25
         S          4.660            3.128    251.62  12327.25
         Mo        10.208            3.547    674.21  77634.20
         Mo        10.221            3.547    674.22  77634.20
         S          3.858            3.128    251.62  12327.25
         S          3.859            3.128    251.62  12327.25
         S          3.758            3.128    251.62  12327.25
         S          3.859            3.128    251.62  12327.25
         Mo        10.220            3.547    674.22  77634.20
         Mo        10.192            3.547    674.22  77634.20
         S          3.844            3.128    251.62  12327.25
         S          3.855            3.128    251.62  12327.25
         S          3.859            3.128    251.62  12327.25
         S          3.829            3.128    251.62  12327.25
         Mo        10.208            3.547    674.22  77634.20
         Mo        10.221            3.547    674.22  77634.20
         S          3.858            3.128    251.62  12327.25
         S          3.859            3.128    251.62  12327.25
         S          3.758            3.128    251.62  12327.25
         S          3.859            3.128    251.62  12327.25
         Mo        10.220            3.547    674.22  77634.20
         Mo        10.236            3.547    674.22  77634.20
         S          3.860            3.128    251.62  12327.25
         S          3.860            3.128    251.62  12327.25
         S          3.859            3.128    251.62  12327.25
         S          3.768            3.128    251.62  12327.25
         Mo        10.208            3.547    674.22  77634.20
         Mo        10.221            3.547    674.22  77634.20
         S          3.858            3.128    251.62  12327.25
         S          3.859            3.128    251.62  12327.25
         S          3.758            3.128    251.62  12327.25
         S          3.859            3.128    251.62  12327.25
         Mo        10.221            3.547    674.22  77634.20
         Mo        10.236            3.547    674.22  77634.20
         S          3.857            3.128    251.62  12327.25
         S          3.860            3.128    251.62  12327.25
         S          3.859            3.128    251.62  12327.25
         S          3.759            3.128    251.62  12327.25
         Mo        10.208            3.547    674.22  77634.20
         Mo        10.221            3.547    674.22  77634.20
         S          3.858            3.128    251.62  12327.25
         S          3.859            3.128    251.62  12327.25
         S          3.758            3.128    251.62  12327.25
         S          3.859            3.128    251.62  12327.25
         Mo        10.222            3.547    674.22  77634.20
         Mo        10.201            3.547    674.22  77634.20
         S          3.865            3.128    251.62  12327.25
         S          3.855            3.128    251.62  12327.25
         S          3.859            3.128    251.62  12327.25
         S          4.676            3.128    251.62  12327.25
         Mo        10.208            3.547    674.22  77634.20
         Mo        10.221            3.547    674.22  77634.20
         S          3.858            3.128    251.62  12327.25
         S          3.859            3.128    251.62  12327.25
         S          3.758            3.128    251.62  12327.25
         S          3.859            3.128    251.62  12327.25
         Mo        10.221            3.547    674.22  77634.20
         Mo        10.201            3.547    674.22  77634.20
         S          3.857            3.128    251.62  12327.25
         S          3.855            3.128    251.62  12327.25
         S          3.859            3.128    251.62  12327.25
         S          3.759            3.128    251.62  12327.25
         Mo        10.208            3.547    674.22  77634.20
         Mo        10.221            3.547    674.22  77634.20
         S          3.858            3.128    251.62  12327.25
         S          3.859            3.128    251.62  12327.25
         S          3.758            3.128    251.62  12327.25
         S          3.859            3.128    251.62  12327.25
         Mo        10.220            3.547    674.22  77634.20
         Mo        10.258            3.547    674.22  77634.20
         S          3.860            3.128    251.62  12327.25
         S          3.860            3.128    251.62  12327.25
         S          3.859            3.128    251.62  12327.25
         S          3.769            3.128    251.62  12327.25
         Mo        10.208            3.547    674.22  77634.20
         Mo        10.220            3.547    674.22  77634.20
         S          3.858            3.128    251.62  12327.25
         S          3.859            3.128    251.62  12327.25
         S          3.758            3.128    251.62  12327.25
         S          3.859            3.128    251.62  12327.25
         Mo        10.220            3.547    674.22  77634.20
         Mo        10.236            3.547    674.22  77634.20
         S          3.860            3.128    251.62  12327.25
         S          3.860            3.128    251.62  12327.25
         S          3.859            3.128    251.62  12327.25
         S          3.769            3.128    251.62  12327.25
         Mo        10.208            3.547    674.22  77634.20
         Mo        10.221            3.547    674.22  77634.20
         S          3.858            3.128    251.62  12327.25
         S          3.859            3.128    251.62  12327.25
         S          3.758            3.128    251.62  12327.25
         S          3.859            3.128    251.62  12327.25
         Mo        10.220            3.547    674.22  77634.20
         Mo        10.258            3.547    674.22  77634.20
         S          3.845            3.128    251.62  12327.25
         S          3.860            3.128    251.62  12327.25
         S          3.859            3.128    251.62  12327.25
         S          4.781            3.128    251.62  12327.25
         Mo        10.208            3.547    674.22  77634.20
         Mo        10.221            3.547    674.22  77634.20
         S          3.858            3.128    251.62  12327.25
         S          3.859            3.128    251.62  12327.25
         S          3.758            3.128    251.62  12327.25
         S          3.859            3.128    251.62  12327.25
         Mo        10.220            3.547    674.22  77634.20
         Mo        10.760            3.547    674.22  77634.20
         S          3.845            3.128    251.62  12327.25
         S          3.861            3.128    251.62  12327.25
         S          3.859            3.128    251.62  12327.25
         S          4.781            3.128    251.62  12327.25
         Pt         4.026            3.168    692.72  72035.17
         Pd         3.489            3.168    573.90  52582.66

         Molecular C6 ( Ry / a.u.^6 ) =  13986060.41


     number of k points=     4  Gaussian smearing, width (Ry)=  0.0100
                       cart. coord. in units 2pi/alat
        k(    1) = (   0.0000000   0.0000000   0.0000000), wk =   0.5000000
        k(    2) = (   0.0000000  -0.5773499   0.0000000), wk =   0.5000000
        k(    3) = (  -0.5000000  -0.2886744   0.0000000), wk =   0.5000000
        k(    4) = (  -0.5000000  -0.8660242   0.0000000), wk =   0.5000000

     Dense  grid:  7154885 G-vectors     FFT dimensions: ( 180, 180, 512)

     Smooth grid:  3090769 G-vectors     FFT dimensions: ( 135, 135, 400)

     Estimated max dynamical RAM per process >       4.31 GB

     Estimated total dynamical RAM >     155.10 GB

     Initial potential from superposition of free atoms

     starting charge    1713.9389, renormalised to    1714.0000

     negative rho (up, down):  8.909E-04 0.000E+00
     Starting wfcs are 1179 randomized atomic wfcs
     Checking if some PAW data can be deallocated... 

     total cpu time spent up to now is      180.4 secs

     Self-consistent Calculation

     iteration #  1     ecut=    77.00 Ry     beta= 0.20
     Davidson diagonalization with overlap
     ethr =  1.00E-02,  avg # of iterations =  2.0

     Threshold (ethr) on eigenvalues was too large:
     Diagonalizing with lowered threshold

     Davidson diagonalization with overlap
     ethr =  1.62E-04,  avg # of iterations = 16.5

     negative rho (up, down):  2.413E-04 0.000E+00

     total cpu time spent up to now is     2260.4 secs

     total energy              =  -33980.24789524 Ry
     estimated scf accuracy    <       6.61730050 Ry

     iteration #  2     ecut=    77.00 Ry     beta= 0.20
     Davidson diagonalization with overlap
     ethr =  3.86E-04,  avg # of iterations =  2.0

     negative rho (up, down):  2.580E-05 0.000E+00

     total cpu time spent up to now is     2671.1 secs

     total energy              =  -33978.89086683 Ry
     estimated scf accuracy    <       3.45454823 Ry

     iteration #  3     ecut=    77.00 Ry     beta= 0.20
     Davidson diagonalization with overlap
     ethr =  2.02E-04,  avg # of iterations = 15.0

     negative rho (up, down):  1.837E-05 0.000E+00

     total cpu time spent up to now is     3199.4 secs

     total energy              =  -33979.21631706 Ry
     estimated scf accuracy    <       1.37620722 Ry

     iteration #  4     ecut=    77.00 Ry     beta= 0.20
     Davidson diagonalization with overlap
     c_bands:  1 eigenvalues not converged
     c_bands:  1 eigenvalues not converged
     c_bands:  1 eigenvalues not converged
     c_bands:  1 eigenvalues not converged
     ethr =  8.03E-05,  avg # of iterations = 20.0

     negative rho (up, down):  2.019E-05 0.000E+00

     total cpu time spent up to now is     4069.6 secs

     total energy              =  -33979.99240488 Ry
     estimated scf accuracy    <       0.45634457 Ry

     iteration #  5     ecut=    77.00 Ry     beta= 0.20
     Davidson diagonalization with overlap
     c_bands:  2 eigenvalues not converged
     ethr =  2.66E-05,  avg # of iterations = 17.0

     negative rho (up, down):  3.280E-05 0.000E+00

     total cpu time spent up to now is     4837.8 secs

     total energy              =  -33980.18732623 Ry
     estimated scf accuracy    <       0.25863811 Ry

     iteration #  6     ecut=    77.00 Ry     beta= 0.20
     Davidson diagonalization with overlap
     c_bands:  1 eigenvalues not converged
     ethr =  1.51E-05,  avg # of iterations = 17.5

     negative rho (up, down):  1.099E-04 0.000E+00

     total cpu time spent up to now is     5504.1 secs

     total energy              =  -33980.21283017 Ry
     estimated scf accuracy    <       0.17858431 Ry

     iteration #  7     ecut=    77.00 Ry     beta= 0.20
     Davidson diagonalization with overlap
     ethr =  1.04E-05,  avg # of iterations = 14.8

     negative rho (up, down):  3.306E-04 0.000E+00

     total cpu time spent up to now is     5994.4 secs

     total energy              =  -33980.20839447 Ry
     estimated scf accuracy    <       0.10810699 Ry

     iteration #  8     ecut=    77.00 Ry     beta= 0.20
     Davidson diagonalization with overlap
     c_bands:  1 eigenvalues not converged
     ethr =  6.31E-06,  avg # of iterations = 18.0

     negative rho (up, down):  6.915E-04 0.000E+00

     total cpu time spent up to now is     6692.7 secs

     total energy              =  -33980.24480039 Ry
     estimated scf accuracy    <       0.04297190 Ry

     iteration #  9     ecut=    77.00 Ry     beta= 0.20
     Davidson diagonalization with overlap
     c_bands:  1 eigenvalues not converged
     c_bands:  3 eigenvalues not converged
     c_bands:  5 eigenvalues not converged
     c_bands:  5 eigenvalues not converged
     ethr =  2.51E-06,  avg # of iterations = 45.0

     negative rho (up, down):  4.619E-04 0.000E+00

     total cpu time spent up to now is     8227.0 secs

     total energy              =  -33980.25083546 Ry
     estimated scf accuracy    <       0.05225165 Ry

     iteration # 10     ecut=    77.00 Ry     beta= 0.20
     Davidson diagonalization with overlap
     c_bands:  3 eigenvalues not converged
     c_bands:  5 eigenvalues not converged
     c_bands:  3 eigenvalues not converged
     ethr =  2.51E-06,  avg # of iterations = 27.2

     negative rho (up, down):  4.804E-04 0.000E+00

     total cpu time spent up to now is     8975.2 secs

     total energy              =  -33980.26074258 Ry
     estimated scf accuracy    <       0.00190147 Ry

     iteration # 11     ecut=    77.00 Ry     beta= 0.20
     Davidson diagonalization with overlap
     c_bands:  1 eigenvalues not converged
     c_bands:  2 eigenvalues not converged
     c_bands:  5 eigenvalues not converged
     ethr =  1.11E-07,  avg # of iterations = 45.5

     negative rho (up, down):  5.538E-04 0.000E+00

     total cpu time spent up to now is    12576.3 secs

     total energy              =  -33980.27262193 Ry
     estimated scf accuracy    <       0.01522487 Ry

     iteration # 12     ecut=    77.00 Ry     beta= 0.20
     Davidson diagonalization with overlap
     c_bands:  2 eigenvalues not converged
     c_bands:  4 eigenvalues not converged
     ethr =  1.11E-07,  avg # of iterations = 18.2

     negative rho (up, down):  7.910E-04 0.000E+00

     total cpu time spent up to now is    13368.8 secs

     total energy              =  -33980.26982622 Ry
     estimated scf accuracy    <       0.00522200 Ry

     iteration # 13     ecut=    77.00 Ry     beta= 0.20
     Davidson diagonalization with overlap
     ethr =  1.11E-07,  avg # of iterations = 15.0

     negative rho (up, down):  8.049E-04 0.000E+00

     total cpu time spent up to now is    14559.5 secs

     total energy              =  -33980.27295682 Ry
     estimated scf accuracy    <       0.00554864 Ry

     iteration # 14     ecut=    77.00 Ry     beta= 0.20
     Davidson diagonalization with overlap
     ethr =  1.11E-07,  avg # of iterations =  1.8

     negative rho (up, down):  8.446E-04 0.000E+00

     total cpu time spent up to now is    14960.5 secs

     total energy              =  -33980.27241674 Ry
     estimated scf accuracy    <       0.00213831 Ry

     iteration # 15     ecut=    77.00 Ry     beta= 0.20
     Davidson diagonalization with overlap
     ethr =  1.11E-07,  avg # of iterations =  6.0

     negative rho (up, down):  8.337E-04 0.000E+00

     total cpu time spent up to now is    15387.4 secs

     total energy              =  -33980.27206318 Ry
     estimated scf accuracy    <       0.00095553 Ry

     iteration # 16     ecut=    77.00 Ry     beta= 0.20
     Davidson diagonalization with overlap
     ethr =  5.57E-08,  avg # of iterations = 10.8

     negative rho (up, down):  8.221E-04 0.000E+00

     total cpu time spent up to now is    16014.1 secs

     total energy              =  -33980.27269347 Ry
     estimated scf accuracy    <       0.00004100 Ry

     iteration # 17     ecut=    77.00 Ry     beta= 0.20
     Davidson diagonalization with overlap
     c_bands:  1 eigenvalues not converged
     ethr =  2.39E-09,  avg # of iterations = 28.0

     negative rho (up, down):  8.509E-04 0.000E+00

     total cpu time spent up to now is    19078.5 secs

     total energy              =  -33980.27282075 Ry
     estimated scf accuracy    <       0.00079612 Ry

     iteration # 18     ecut=    77.00 Ry     beta= 0.20
     Davidson diagonalization with overlap
     ethr =  2.39E-09,  avg # of iterations = 13.2

     negative rho (up, down):  8.720E-04 0.000E+00

     total cpu time spent up to now is    19982.3 secs

     total energy              =  -33980.27279383 Ry
     estimated scf accuracy    <       0.00016114 Ry

     iteration # 19     ecut=    77.00 Ry     beta= 0.20
     Davidson diagonalization with overlap
     ethr =  2.39E-09,  avg # of iterations = 13.5

     negative rho (up, down):  8.837E-04 0.000E+00

     total cpu time spent up to now is    21016.5 secs

     total energy              =  -33980.27285107 Ry
     estimated scf accuracy    <       0.00000505 Ry

     iteration # 20     ecut=    77.00 Ry     beta= 0.20
     Davidson diagonalization with overlap
     c_bands:  1 eigenvalues not converged
     c_bands:  1 eigenvalues not converged
     ethr =  2.94E-10,  avg # of iterations = 18.8

     negative rho (up, down):  8.823E-04 0.000E+00

     total cpu time spent up to now is    22985.3 secs

     total energy              =  -33980.27285313 Ry
     estimated scf accuracy    <       0.00006468 Ry

     iteration # 21     ecut=    77.00 Ry     beta= 0.20
     Davidson diagonalization with overlap
     ethr =  2.94E-10,  avg # of iterations =  8.2

     negative rho (up, down):  8.821E-04 0.000E+00

     total cpu time spent up to now is    23657.3 secs

     total energy              =  -33980.27284856 Ry
     estimated scf accuracy    <       0.00001770 Ry

     iteration # 22     ecut=    77.00 Ry     beta= 0.20
     Davidson diagonalization with overlap
     ethr =  2.94E-10,  avg # of iterations = 11.2

     negative rho (up, down):  8.940E-04 0.000E+00

     total cpu time spent up to now is    24552.8 secs

     End of self-consistent calculation

          k = 0.0000 0.0000 0.0000 (386245 PWs)   bands (ev):

  -102.9526 -88.3290 -71.2646 -71.2480 -71.2429 -71.2409 -71.2284 -71.2255
   -71.2180 -66.5609 -66.5609 -66.5596 -66.5562 -66.5437 -66.5399 -66.5398
   -66.5397 -66.5397 -66.5396 -66.5396 -66.5396 -66.5396 -66.5395 -66.5395
   -66.5395 -66.5395 -66.5393 -66.5383 -66.5383 -66.5383 -66.5383 -66.5383
   -66.5382 -66.5348 -66.5337 -66.5274 -66.5207 -66.5185 -66.5185 -66.5184
   -66.5183 -66.5182 -66.5182 -66.5182 -66.5182 -66.5182 -66.5182 -66.5182
   -66.5182 -66.5181 -66.5181 -66.5181 -66.5180 -66.5179 -66.5178 -66.5169
   -66.5169 -66.5169 -66.5169 -66.5169 -66.5169 -66.5168 -66.5168 -66.5168
   -66.5146 -66.5064 -66.5063 -66.5034 -66.5016 -66.5000 -66.4955 -66.4794
   -66.4718 -57.2070 -57.1801 -57.1714 -54.1457 -54.1370 -54.1319 -40.8883
   -40.8882 -40.8882 -40.8882 -40.8882 -40.8882 -40.8876 -40.8876 -40.8876
   -40.8780 -40.8727 -40.8690 -40.8131 -40.8130 -40.8129 -40.8129 -40.8129
   -40.8129 -40.8129 -40.8129 -40.8129 -40.8129 -40.8128 -40.8127 -40.8122
   -40.8122 -40.8122 -40.8122 -40.8122 -40.8122 -40.8016 -40.8013 -40.7985
   -40.7963 -40.7830 -40.7803 -40.7741 -40.7212 -40.7205 -40.7205 -40.7199
   -40.7003 -40.6867 -40.6867 -40.6866 -40.6866 -40.6866 -40.6865 -40.6865
   -40.6865 -40.6865 -40.6865 -40.6864 -40.6864 -40.6857 -40.6857 -40.6857
   -40.6857 -40.6857 -40.6857 -40.6822 -40.6790 -40.6789 -40.6789 -40.6788
   -40.6788 -40.6788 -40.6788 -40.6788 -40.6788 -40.6787 -40.6787 -40.6786
   -40.6786 -40.6781 -40.6781 -40.6781 -40.6781 -40.6781 -40.6781 -40.6781
   -40.6752 -40.6744 -40.6741 -40.6726 -40.6670 -40.6642 -40.6519 -40.6517
   -40.6516 -40.6516 -40.6515 -40.6515 -40.6515 -40.6515 -40.6515 -40.6515
   -40.6515 -40.6515 -40.6514 -40.6506 -40.6506 -40.6506 -40.6506 -40.6506
   -40.6506 -40.6483 -40.6477 -40.6441 -40.6392 -40.6382 -40.6372 -40.6371
   -40.6370 -40.6369 -40.6369 -40.6369 -40.6368 -40.6368 -40.6368 -40.6368
   -40.6368 -40.6368 -40.6367 -40.6367 -40.6367 -40.6367 -40.6366 -40.6366
   -40.6365 -40.6361 -40.6361 -40.6361 -40.6361 -40.6361 -40.6361 -40.6360
   -40.6360 -40.6360 -40.6331 -40.6311 -40.6309 -40.6282 -40.6256 -40.6240
   -40.6191 -40.6176 -40.6112 -40.5733 -40.5732 -40.5732 -40.5732 -40.5732
   -40.5731 -40.5722 -40.5722 -40.5722 -40.5586 -40.5564 -40.5539 -40.5263
   -40.5263 -40.5262 -40.5261 -40.5261 -40.5261 -40.5260 -40.5260 -40.5260
   -40.5259 -40.5259 -40.5258 -40.5251 -40.5251 -40.5251 -40.5251 -40.5251
   -40.5251 -40.5127 -40.5103 -40.5055 -40.5034 -40.5033 -40.4929 -40.4785
   -40.4785 -40.4784 -40.4784 -40.4774 -40.4774 -40.4548 -40.4514 -20.0913
   -20.0269 -19.9258 -19.8227 -19.3639 -19.2836 -19.2388 -19.2025 -19.1950
   -19.1852 -19.1719 -19.1696 -19.1660 -19.1531 -19.1457 -19.1254 -19.0824
   -19.0795 -19.0758 -19.0670 -19.0612 -19.0422 -18.9790 -18.9780 -18.9763
   -18.9740 -18.9711 -18.9638 -18.8530 -18.7369 -18.5778 -18.5446 -18.5372
   -18.5198 -18.4547 -18.4445 -18.4246 -18.4122 -18.3812 -18.3697 -18.3595
   -18.3493 -18.3432 -18.3272 -18.2866 -18.2453 -18.2304 -18.2274 -18.2232
   -18.2098 -18.1849 -18.1545 -18.1441 -18.1390 -18.1215 -18.1184 -18.1104
   -18.1048 -18.1009 -18.1006 -18.0593 -18.0583 -18.0566 -18.0561 -18.0552
   -18.0549 -18.0305 -18.0257 -18.0229 -18.0213 -18.0202 -18.0140 -18.0134
   -18.0126 -18.0124 -17.9937 -17.9926 -17.9862 -17.9861 -17.9798 -17.9723
   -17.9711 -17.9682 -17.9561 -17.9493 -17.9472 -17.9426 -17.9406 -17.9340
   -17.9260 -17.9258 -17.9230 -17.8895 -17.8884 -17.8830 -17.8826 -17.8636
   -17.8614 -17.8554 -17.8536 -17.8505 -17.8331 -17.8313 -17.8272 -17.8192
   -17.8159 -17.8113 -17.8060 -17.8033 -17.7989 -17.7951 -17.7945 -17.7935
   -17.7778 -17.7775 -17.7768 -17.7674 -17.7659 -17.7637 -17.7591 -17.7586
   -17.7555 -17.7340 -17.7335 -17.7333 -17.7315 -17.7313 -17.7303 -12.0188
   -11.9288 -11.8393 -11.8064 -11.7398 -11.7312 -11.7197 -11.7107 -11.6167
   -11.6052 -11.6004 -11.4974 -11.4922 -11.4895 -11.4678 -11.3658 -11.3071
   -11.2634 -11.2105 -11.1824 -11.1822 -11.1713 -11.1686 -11.1650 -11.1364
   -11.0899 -11.0768 -11.0696 -11.0690 -11.0687 -11.0629 -11.0563 -11.0417
   -11.0279 -11.0170 -11.0144 -11.0116 -11.0000 -10.9974 -10.9971 -10.9865
   -10.9816 -10.9688 -10.9577 -10.9572 -10.9335 -10.9145 -10.9144 -10.8924
   -10.8884 -10.8841 -10.8737 -10.8610 -10.8543 -10.8431 -10.8328 -10.8299
   -10.8164 -10.8136 -10.7983 -10.7907 -10.7905 -10.7838 -10.7804 -10.7803
   -10.7719 -10.7688 -10.7661 -10.7620 -10.7612 -10.7532 -10.7484 -10.7480
   -10.7426 -10.7412 -10.7396 -10.7182 -10.7171 -10.7135 -10.7123 -10.7093
   -10.7067 -10.7046 -10.7032 -10.6894 -10.6749 -10.6745 -10.6734 -10.6726
   -10.6716 -10.6695 -10.6004 -10.6003 -10.5935 -10.5471 -10.5384 -10.5262
   -10.5238 -10.5199 -10.5176 -10.4403 -10.4002 -10.2109 -10.1784 -10.1378
   -10.0619 -10.0475  -9.9619  -9.9098  -9.8541  -9.8373  -9.7940  -9.7767
    -9.7530  -9.7519  -9.7399  -9.7392  -9.7231  -9.7125  -9.7102  -9.7083
    -9.7082  -9.7060  -9.7027  -9.6980  -9.6913  -9.6910  -9.6868  -9.6827
    -9.6799  -9.6522  -9.6439  -9.6404  -9.6102  -9.5816  -9.5795  -9.5723
    -9.5677  -9.5643  -9.5642  -9.5622  -9.5555  -9.5549  -9.5541  -9.5525
    -9.5502  -9.5476  -9.5450  -9.5080  -9.4901  -9.4853  -9.4782  -9.4781
    -9.4781  -9.4775  -9.4774  -9.4765  -9.4673  -9.4650  -9.4597  -9.4408
    -9.4393  -9.4367  -9.4263  -9.3939  -9.3834  -9.3181  -9.3116  -9.3051
    -9.3025  -9.2984  -9.2853  -9.2816  -9.2742  -9.2692  -9.2682  -9.2495
    -9.2399  -9.2215  -9.1987  -9.1860  -9.1731  -9.1726  -9.1708  -9.1413
    -9.1254  -9.1243  -9.1232  -9.1184  -9.1181  -9.1142  -9.1112  -9.0892
    -9.0741  -9.0715  -9.0617  -9.0388  -9.0349  -8.9896  -8.9894  -8.9768
    -8.9427  -8.9334  -8.9178  -8.9173  -8.9142  -8.8910  -8.8895  -8.8836
    -8.8811  -8.8660  -8.8539  -8.8537  -8.8523  -8.8492  -8.8462  -8.8358
    -8.8314  -8.8197  -8.8109  -8.7587  -8.7580  -8.7580  -8.7577  -8.7574
    -8.7566  -8.7073  -8.6962  -8.6861  -8.6844  -8.6809  -8.6650  -8.6338
    -8.6115  -8.6054  -8.6009  -8.5988  -8.5820  -8.5809  -8.5338  -8.5315
    -8.5286  -8.5277  -8.5257  -8.5227  -8.4689  -8.4539  -8.4145  -8.3733
    -8.3600  -8.3028  -8.3028  -8.2980  -8.2978  -8.2916  -8.2913  -8.2809
    -8.2561  -8.2467  -8.2183  -8.2125  -8.2125  -8.2120  -8.2112  -8.2106
    -8.2023  -8.1861  -8.1861  -8.1851  -8.1841  -8.1831  -8.1777  -8.1577
    -8.1577  -8.1571  -8.1568  -8.1564  -8.1546  -8.0887  -8.0601  -8.0365
    -8.0211  -7.9941  -7.8186  -7.7952  -7.7926  -7.7924  -7.7221  -7.7041
    -7.7019  -7.6484  -7.6272  -7.6203  -7.5889  -7.5847  -7.5795  -7.5779
    -7.5697  -7.5528  -7.5491  -7.5458  -7.5406  -7.5393  -7.5368  -7.4987
    -7.4954  -7.4879  -7.4800  -7.4745  -7.4713  -7.4701  -7.4697  -7.4697
    -7.4645  -7.4594  -7.4552  -7.4437  -7.4433  -7.4428  -7.4423  -7.4412
    -7.4324  -7.4232  -7.4218  -7.4187  -7.4185  -7.4183  -7.4174  -7.4147
    -7.4135  -7.4037  -7.3813  -7.3609  -7.3606  -7.3561  -7.3541  -7.3464
    -7.3458  -7.3394  -7.3178  -7.2906  -7.2866  -7.2794  -7.2651  -7.2510
    -7.2502  -7.2411  -7.2338  -7.2313  -7.2290  -7.2262  -7.2254  -7.2201
    -7.1871  -7.1868  -7.1687  -7.1683  -7.1620  -7.1503  -7.1501  -7.1081
    -7.0801  -7.0707  -7.0605  -7.0485  -7.0422  -6.9931  -6.9459  -6.8794
    -6.8566  -6.8311  -6.8268  -6.8028  -6.8022  -6.7725  -6.7417  -6.7233
    -6.7189  -6.7147  -6.7137  -6.6927  -6.6439  -6.6386  -6.6344  -6.6333
    -6.6200  -6.5852  -6.5671  -6.5670  -6.5623  -6.5569  -6.5476  -6.5380
    -6.5350  -6.5187  -6.5098  -6.4956  -6.4943  -6.4847  -6.4762  -6.4656
    -6.4526  -6.4507  -6.4490  -6.4463  -6.4457  -6.4432  -6.4424  -6.4418
    -6.4341  -6.4340  -6.4339  -6.4337  -6.4333  -6.4329  -6.4264  -6.3939
    -6.3909  -6.3792  -6.3564  -6.3502  -6.3458  -6.3418  -6.3316  -6.3183
    -6.2767  -6.2696  -6.2691  -6.2691  -6.2679  -6.2662  -6.2515  -6.2362
    -6.2338  -6.2306  -6.2300  -6.2262  -6.2170  -6.2130  -6.2064  -6.1922
    -6.1911  -6.1910  -6.1873  -6.1868  -6.1863  -6.1583  -6.1310  -6.0899
    -5.9034  -5.7521  -5.6841  -5.6693  -5.5402  -5.4934  -5.4773  -5.2509
    -5.0869  -4.1699  -3.9048  -3.7940  -3.7884  -3.7825  -3.7819  -3.7723
    -3.7655  -3.7620  -3.7594  -3.7584  -3.7574  -3.7393  -3.7148  -3.6488
    -3.6376  -3.6275  -3.6268  -3.6192  -3.6167  -3.6165  -3.6108  -3.6071
    -3.6063  -3.5148  -3.4872  -3.4568  -3.4485  -3.4443  -3.4394  -3.4369
    -3.4253  -3.4203  -3.4111  -3.4076  -3.4075  -3.4046  -3.4041  -3.3947
    -3.3921  -3.3824  -3.3807  -3.3782  -3.3781  -3.3778  -3.3697  -3.3633
    -3.3633  -3.3629  -3.3555  -3.3488  -3.3477  -3.3463  -3.3442  -3.3409
    -3.3364  -3.3343  -3.3331  -3.3325  -3.3277  -3.2955  -3.2925  -3.2865
    -3.2845  -3.2821  -3.2813  -3.2788  -3.2770  -3.2656  -3.2619  -3.2529
    -3.2467  -3.2257  -3.2235  -3.2206  -3.2173  -3.2150  -3.2115  -3.1998
    -3.1917  -3.1566  -3.1538  -3.1336  -3.1292  -3.0201  -3.0119  -3.0104
    -2.9960  -2.9957  -2.9951  -2.9881  -2.9823  -2.9786  -2.9720  -2.9455
    -2.9384  -2.9307  -2.9110  -2.9104  -2.9086  -2.9084  -2.9078  -2.9028
    -2.9001  -2.8988  -2.8988  -2.8931  -2.8928  -2.8894  -2.8893  -2.8835
    -2.8739  -2.8702  -2.8694  -2.8674  -2.8648  -2.8633  -2.8632  -2.8629
    -2.8621  -2.8533  -2.8519  -2.8299  -2.8240  -2.8182  -2.8119  -2.8108
    -2.7963  -2.7936  -2.7892  -2.7625  -2.7412  -2.7398  -2.7392  -2.7387
    -2.7385  -2.7383  -2.7380  -2.7377  -2.7377  -2.7220  -2.7196  -2.7102
    -2.6951  -2.6802  -2.6741  -2.6739  -2.6660  -2.6552  -2.6521  -2.6059
    -2.6021  -2.5759  -2.5756  -2.5627  -2.5583  -2.5544  -2.5539  -2.5519
    -2.5514  -2.5214  -2.5027  -2.4897  -2.4866  -2.4784  -2.4745  -2.3621
    -2.3524  -2.3490  -2.3468  -2.3429

          k = 0.0000-0.5773 0.0000 (386352 PWs)   bands (ev):

  -102.9526 -88.3290 -71.2646 -71.2480 -71.2429 -71.2409 -71.2284 -71.2255
   -71.2180 -66.5548 -66.5546 -66.5546 -66.5546 -66.5546 -66.5534 -66.5533
   -66.5456 -66.5440 -66.5440 -66.5440 -66.5440 -66.5427 -66.5427 -66.5412
   -66.5367 -66.5319 -66.5290 -66.5289 -66.5289 -66.5289 -66.5289 -66.5289
   -66.5289 -66.5288 -66.5276 -66.5276 -66.5276 -66.5276 -66.5262 -66.5246
   -66.5245 -66.5244 -66.5243 -66.5231 -66.5231 -66.5190 -66.5184 -66.5182
   -66.5182 -66.5182 -66.5182 -66.5181 -66.5181 -66.5180 -66.5169 -66.5169
   -66.5168 -66.5168 -66.5146 -66.5138 -66.5137 -66.5137 -66.5137 -66.5124
   -66.5124 -66.5067 -66.5058 -66.5041 -66.5032 -66.4998 -66.4948 -66.4795
   -66.4717 -57.2070 -57.1801 -57.1714 -54.1457 -54.1370 -54.1319 -40.8567
   -40.8566 -40.8566 -40.8566 -40.8566 -40.8566 -40.8566 -40.8565 -40.8559
   -40.8559 -40.8559 -40.8559 -40.8529 -40.8511 -40.8366 -40.8299 -40.8298
   -40.8298 -40.8297 -40.8291 -40.8291 -40.8250 -40.8199 -40.8177 -40.8177
   -40.8177 -40.8177 -40.8170 -40.8170 -40.8131 -40.8004 -40.7864 -40.7743
   -40.7671 -40.7670 -40.7670 -40.7670 -40.7670 -40.7670 -40.7670 -40.7670
   -40.7663 -40.7663 -40.7663 -40.7663 -40.7540 -40.7468 -40.7444 -40.7389
   -40.7164 -40.7084 -40.7083 -40.7083 -40.7082 -40.7079 -40.7077 -40.7077
   -40.6988 -40.6987 -40.6987 -40.6987 -40.6979 -40.6979 -40.6892 -40.6875
   -40.6875 -40.6874 -40.6874 -40.6868 -40.6868 -40.6812 -40.6752 -40.6744
   -40.6693 -40.6579 -40.6579 -40.6579 -40.6578 -40.6578 -40.6578 -40.6578
   -40.6578 -40.6574 -40.6571 -40.6571 -40.6571 -40.6571 -40.6524 -40.6492
   -40.6491 -40.6491 -40.6490 -40.6484 -40.6484 -40.6459 -40.6436 -40.6381
   -40.6373 -40.6373 -40.6372 -40.6372 -40.6370 -40.6370 -40.6369 -40.6368
   -40.6368 -40.6368 -40.6368 -40.6367 -40.6367 -40.6364 -40.6364 -40.6361
   -40.6361 -40.6361 -40.6361 -40.6312 -40.6291 -40.6282 -40.6281 -40.6281
   -40.6281 -40.6274 -40.6274 -40.6247 -40.6222 -40.6145 -40.6116 -40.6066
   -40.6064 -40.6063 -40.6063 -40.6063 -40.6063 -40.6062 -40.6061 -40.6054
   -40.6054 -40.6054 -40.6054 -40.5950 -40.5939 -40.5837 -40.5818 -40.5716
   -40.5716 -40.5716 -40.5716 -40.5716 -40.5716 -40.5716 -40.5715 -40.5706
   -40.5706 -40.5706 -40.5706 -40.5595 -40.5594 -40.5594 -40.5594 -40.5585
   -40.5584 -40.5563 -40.5543 -40.5515 -40.5475 -40.5435 -40.5403 -40.5401
   -40.5401 -40.5399 -40.5392 -40.5391 -40.5294 -40.5232 -40.5231 -40.5231
   -40.5231 -40.5221 -40.5221 -40.5213 -40.5172 -40.5012 -40.4940 -40.4926
   -40.4925 -40.4924 -40.4924 -40.4914 -40.4914 -40.4778 -40.4589 -19.8987
   -19.8295 -19.7988 -19.7738 -19.6977 -19.6814 -19.5910 -19.5864 -19.4371
   -19.4057 -19.3613 -19.3524 -19.2671 -19.2607 -19.1650 -19.1628 -18.8621
   -18.8308 -18.7922 -18.7427 -18.6954 -18.6844 -18.6583 -18.6568 -18.6561
   -18.6500 -18.6387 -18.6222 -18.5887 -18.5859 -18.5793 -18.5711 -18.5366
   -18.5150 -18.5051 -18.4903 -18.4879 -18.4852 -18.4824 -18.4623 -18.4460
   -18.4178 -18.4137 -18.4130 -18.4030 -18.3794 -18.3487 -18.3427 -18.3417
   -18.3216 -18.3192 -18.2926 -18.2777 -18.2676 -18.2580 -18.2303 -18.2080
   -18.1914 -18.1824 -18.1699 -18.1521 -18.1289 -18.1238 -18.1106 -18.0844
   -18.0751 -18.0598 -18.0521 -18.0390 -18.0371 -18.0347 -18.0335 -18.0257
   -18.0102 -18.0079 -18.0060 -18.0046 -18.0009 -17.9970 -17.9952 -17.9860
   -17.9818 -17.9759 -17.9671 -17.9467 -17.9441 -17.9418 -17.9389 -17.9356
   -17.9347 -17.9308 -17.9254 -17.9215 -17.9176 -17.8863 -17.8800 -17.8745
   -17.8713 -17.8646 -17.8562 -17.8303 -17.8269 -17.8243 -17.8118 -17.8076
   -17.7849 -17.7825 -17.7777 -17.7737 -17.7661 -17.7554 -17.7550 -17.7544
   -17.7539 -17.7529 -17.7521 -17.7407 -17.7391 -17.7214 -17.7185 -17.6969
   -17.6945 -17.6778 -17.6744 -17.6630 -17.6608 -17.6551 -17.6548 -11.8819
   -11.7106 -11.6660 -11.6265 -11.5808 -11.5592 -11.4674 -11.4529 -11.4508
   -11.4341 -11.4338 -11.4270 -11.4095 -11.4000 -11.3914 -11.3767 -11.3502
   -11.3245 -11.3193 -11.3015 -11.2930 -11.2804 -11.2695 -11.2588 -11.2519
   -11.2127 -11.2112 -11.2083 -11.1991 -11.1949 -11.1915 -11.1896 -11.1747
   -11.1500 -11.1429 -11.1388 -11.1292 -11.1181 -11.1085 -11.1050 -11.1034
   -11.0992 -11.0845 -11.0824 -11.0698 -11.0594 -11.0353 -11.0202 -10.9988
   -10.9948 -10.9785 -10.9360 -10.9217 -10.8980 -10.8902 -10.8783 -10.8596
   -10.8577 -10.8490 -10.8395 -10.8228 -10.8033 -10.7982 -10.7826 -10.7720
   -10.7671 -10.7650 -10.7614 -10.7478 -10.7474 -10.7463 -10.7459 -10.7383
   -10.7371 -10.7309 -10.7294 -10.7275 -10.7270 -10.7200 -10.7195 -10.7169
   -10.7149 -10.6795 -10.6793 -10.6786 -10.6783 -10.6237 -10.5656 -10.4879
   -10.4756 -10.4670 -10.4630 -10.4273 -10.4073 -10.3386 -10.3251 -10.2598
   -10.2468 -10.2024 -10.1791 -10.1245 -10.0937 -10.0778 -10.0693 -10.0513
   -10.0499 -10.0406 -10.0270 -10.0016  -9.9916  -9.9766  -9.9723  -9.9710
    -9.9674  -9.9508  -9.9450  -9.9416  -9.9243  -9.8804  -9.8737  -9.8656
    -9.8580  -9.8458  -9.8415  -9.8291  -9.8265  -9.8110  -9.8013  -9.7895
    -9.7703  -9.7618  -9.7466  -9.7274  -9.7163  -9.7070  -9.7030  -9.6842
    -9.6733  -9.6597  -9.6448  -9.6289  -9.6200  -9.5981  -9.5905  -9.5704
    -9.5582  -9.5512  -9.5434  -9.5264  -9.5089  -9.5010  -9.4933  -9.4797
    -9.4769  -9.4678  -9.4516  -9.4265  -9.4259  -9.4239  -9.4127  -9.4070
    -9.4016  -9.3945  -9.3932  -9.3887  -9.3812  -9.3688  -9.3617  -9.3199
    -9.3039  -9.2959  -9.2742  -9.2414  -9.2074  -9.1903  -9.1758  -9.1558
    -9.1468  -9.1407  -9.1362  -9.1312  -9.1120  -9.0948  -9.0809  -9.0786
    -9.0575  -9.0413  -9.0379  -9.0293  -9.0167  -8.9977  -8.9959  -8.9804
    -8.9764  -8.9681  -8.9644  -8.9394  -8.9330  -8.9165  -8.9060  -8.8961
    -8.8834  -8.8799  -8.8752  -8.8655  -8.8539  -8.8418  -8.8347  -8.8250
    -8.8239  -8.8227  -8.8217  -8.8159  -8.8087  -8.8062  -8.8041  -8.8034
    -8.7941  -8.7931  -8.7839  -8.7769  -8.7756  -8.7749  -8.7715  -8.7651
    -8.7429  -8.7311  -8.7294  -8.7269  -8.7230  -8.7194  -8.7174  -8.6991
    -8.6963  -8.6876  -8.6693  -8.6679  -8.6645  -8.6615  -8.6483  -8.6420
    -8.5999  -8.5932  -8.5852  -8.5576  -8.5104  -8.4411  -8.4374  -8.4250
    -8.4108  -8.3896  -8.3728  -8.3295  -8.2912  -8.2818  -8.2367  -8.2118
    -8.1873  -8.1531  -8.0764  -8.0630  -8.0627  -8.0543  -8.0535  -8.0429
    -8.0424  -8.0307  -8.0045  -7.9981  -7.9845  -7.9458  -7.9074  -7.9041
    -7.8746  -7.8225  -7.8100  -7.7893  -7.7819  -7.7757  -7.7687  -7.7628
    -7.7581  -7.7508  -7.7479  -7.7436  -7.7428  -7.7382  -7.7322  -7.7309
    -7.7255  -7.7235  -7.7216  -7.7172  -7.7164  -7.7094  -7.7055  -7.7038
    -7.7017  -7.7003  -7.6989  -7.6975  -7.6960  -7.6934  -7.6929  -7.6873
    -7.6732  -7.6670  -7.6662  -7.6644  -7.6627  -7.6347  -7.6332  -7.6325
    -7.6315  -7.6301  -7.6051  -7.6018  -7.6017  -7.6001  -7.5965  -7.5911
    -7.5837  -7.5678  -7.5581  -7.5441  -7.5436  -7.5375  -7.5355  -7.5289
    -7.5271  -7.5203  -7.5196  -7.5047  -7.4999  -7.4991  -7.4942  -7.4874
    -7.4805  -7.4733  -7.4619  -7.3988  -7.3975  -7.3932  -7.3899  -7.3722
    -7.3662  -7.3000  -7.2577  -7.1699  -7.1414  -7.1116  -7.1084  -7.1029
    -7.0991  -7.0927  -7.0699  -7.0478  -7.0462  -7.0424  -7.0248  -7.0217
    -7.0145  -6.9883  -6.9627  -6.9621  -6.9577  -6.9366  -6.9204  -6.9116
    -6.9041  -6.8794  -6.8720  -6.8505  -6.8455  -6.8391  -6.8160  -6.8076
    -6.7953  -6.7932  -6.7871  -6.7856  -6.7628  -6.7167  -6.7052  -6.6930
    -6.6836  -6.6808  -6.6522  -6.6251  -6.6136  -6.5903  -6.5699  -6.5628
    -6.5508  -6.5451  -6.5410  -6.5405  -6.5403  -6.5372  -6.5238  -6.5230
    -6.5230  -6.5217  -6.5145  -6.5143  -6.5143  -6.5141  -6.5054  -6.4834
    -6.4574  -6.4310  -6.4079  -6.3792  -6.3466  -6.3282  -6.2725  -6.2615
    -6.2570  -6.2559  -6.2506  -6.2427  -6.2246  -6.2132  -6.2125  -6.2093
    -6.2079  -6.2058  -6.2035  -6.1987  -6.1864  -6.1776  -6.1646  -6.1477
    -6.1470  -6.1387  -6.1345  -6.1286  -6.1152  -5.9729  -5.9460  -5.9293
    -5.9191  -5.8890  -5.8550  -5.8420  -5.8206  -5.7875  -5.7808  -5.7175
    -5.6899  -5.6657  -5.6194  -5.5773  -5.5458  -5.5297  -5.4825  -5.4439
    -5.4336  -4.1848  -4.0481  -4.0289  -4.0217  -3.9970  -3.9143  -3.8703
    -3.8574  -3.8549  -3.8480  -3.7969  -3.7783  -3.7758  -3.7651  -3.7591
    -3.7487  -3.7435  -3.7407  -3.7332  -3.7317  -3.6927  -3.6583  -3.6249
    -3.6202  -3.5817  -3.5491  -3.5440  -3.5400  -3.5342  -3.5321  -3.5053
    -3.4868  -3.4865  -3.4779  -3.4608  -3.4580  -3.4530  -3.4480  -3.4403
    -3.4387  -3.4184  -3.4142  -3.4125  -3.4104  -3.4095  -3.4046  -3.3963
    -3.3833  -3.3815  -3.3782  -3.3632  -3.3595  -3.3523  -3.3441  -3.3344
    -3.3099  -3.2895  -3.2851  -3.2819  -3.2798  -3.2778  -3.2723  -3.2695
    -3.2665  -3.2400  -3.2257  -3.2234  -3.2205  -3.2160  -3.2143  -3.2117
    -3.2105  -3.2050  -3.1957  -3.1806  -3.1758  -3.1684  -3.1677  -3.1651
    -3.1613  -3.1483  -3.1456  -3.1419  -3.1295  -3.1244  -3.1178  -3.1109
    -3.1086  -3.1073  -3.1008  -3.0956  -3.0955  -3.0886  -3.0693  -3.0501
    -3.0306  -3.0160  -3.0110  -3.0061  -3.0028  -2.9980  -2.9920  -2.9635
    -2.9602  -2.9572  -2.9560  -2.9549  -2.9532  -2.9472  -2.9463  -2.9424
    -2.9389  -2.9373  -2.9351  -2.9250  -2.9212  -2.9196  -2.9168  -2.9096
    -2.9081  -2.9029  -2.8987  -2.8962  -2.8915  -2.8814  -2.8803  -2.8767
    -2.8719  -2.8688  -2.8636  -2.8575  -2.8435  -2.8353  -2.8338  -2.8201
    -2.8135  -2.8129  -2.8071  -2.8005  -2.7844  -2.7331  -2.7289  -2.7221
    -2.7198  -2.6798  -2.6607  -2.6467  -2.6457  -2.5549  -2.5432  -2.5252
    -2.5082  -2.5041  -2.4884  -2.4859  -2.4768  -2.4653  -2.4626  -2.4603
    -2.4553  -2.4518  -2.4379  -2.3533  -2.3389  -2.3348  -2.3303  -2.3204
    -2.3187  -2.3082  -2.2893  -2.2739

          k =-0.5000-0.2887 0.0000 (386352 PWs)   bands (ev):

  -102.9526 -88.3290 -71.2646 -71.2480 -71.2429 -71.2410 -71.2284 -71.2255
   -71.2180 -66.5548 -66.5547 -66.5546 -66.5546 -66.5542 -66.5534 -66.5533
   -66.5471 -66.5441 -66.5440 -66.5440 -66.5440 -66.5427 -66.5427 -66.5405
   -66.5343 -66.5340 -66.5291 -66.5289 -66.5289 -66.5289 -66.5289 -66.5289
   -66.5288 -66.5288 -66.5276 -66.5276 -66.5276 -66.5276 -66.5257 -66.5246
   -66.5245 -66.5244 -66.5243 -66.5232 -66.5231 -66.5191 -66.5184 -66.5182
   -66.5182 -66.5182 -66.5182 -66.5182 -66.5181 -66.5179 -66.5169 -66.5169
   -66.5168 -66.5168 -66.5150 -66.5138 -66.5137 -66.5137 -66.5137 -66.5124
   -66.5124 -66.5077 -66.5069 -66.5029 -66.5014 -66.4999 -66.4956 -66.4796
   -66.4717 -57.2070 -57.1801 -57.1714 -54.1457 -54.1370 -54.1319 -40.8567
   -40.8567 -40.8567 -40.8566 -40.8566 -40.8566 -40.8565 -40.8564 -40.8559
   -40.8559 -40.8559 -40.8559 -40.8503 -40.8441 -40.8406 -40.8298 -40.8298
   -40.8297 -40.8297 -40.8297 -40.8291 -40.8291 -40.8254 -40.8177 -40.8177
   -40.8177 -40.8177 -40.8170 -40.8170 -40.8142 -40.7991 -40.7861 -40.7742
   -40.7671 -40.7671 -40.7670 -40.7670 -40.7670 -40.7670 -40.7670 -40.7670
   -40.7663 -40.7663 -40.7663 -40.7663 -40.7512 -40.7478 -40.7420 -40.7367
   -40.7179 -40.7084 -40.7083 -40.7083 -40.7083 -40.7077 -40.7077 -40.7045
   -40.6988 -40.6987 -40.6987 -40.6987 -40.6979 -40.6979 -40.6901 -40.6875
   -40.6875 -40.6874 -40.6874 -40.6868 -40.6868 -40.6822 -40.6809 -40.6739
   -40.6607 -40.6580 -40.6580 -40.6578 -40.6578 -40.6578 -40.6578 -40.6578
   -40.6578 -40.6571 -40.6571 -40.6571 -40.6571 -40.6562 -40.6532 -40.6495
   -40.6492 -40.6491 -40.6491 -40.6491 -40.6484 -40.6484 -40.6439 -40.6398
   -40.6373 -40.6373 -40.6372 -40.6372 -40.6370 -40.6369 -40.6368 -40.6368
   -40.6368 -40.6368 -40.6368 -40.6366 -40.6364 -40.6364 -40.6361 -40.6361
   -40.6361 -40.6361 -40.6349 -40.6313 -40.6291 -40.6282 -40.6281 -40.6281
   -40.6281 -40.6274 -40.6274 -40.6246 -40.6243 -40.6135 -40.6116 -40.6066
   -40.6065 -40.6063 -40.6063 -40.6063 -40.6063 -40.6062 -40.6061 -40.6054
   -40.6054 -40.6054 -40.6054 -40.5920 -40.5914 -40.5904 -40.5868 -40.5717
   -40.5716 -40.5716 -40.5716 -40.5716 -40.5716 -40.5716 -40.5715 -40.5706
   -40.5706 -40.5706 -40.5706 -40.5595 -40.5594 -40.5594 -40.5593 -40.5585
   -40.5584 -40.5567 -40.5535 -40.5496 -40.5451 -40.5440 -40.5403 -40.5401
   -40.5401 -40.5399 -40.5392 -40.5391 -40.5310 -40.5262 -40.5232 -40.5231
   -40.5231 -40.5231 -40.5221 -40.5221 -40.5157 -40.4972 -40.4926 -40.4925
   -40.4924 -40.4923 -40.4914 -40.4914 -40.4901 -40.4733 -40.4660 -19.8676
   -19.8546 -19.7946 -19.7911 -19.6954 -19.6916 -19.5911 -19.5889 -19.4151
   -19.4044 -19.3566 -19.3516 -19.2637 -19.2600 -19.1638 -19.1625 -18.8788
   -18.8347 -18.8255 -18.7530 -18.6923 -18.6649 -18.6581 -18.6568 -18.6564
   -18.6487 -18.6129 -18.6096 -18.5882 -18.5856 -18.5702 -18.5571 -18.5355
   -18.5339 -18.5099 -18.4924 -18.4920 -18.4847 -18.4740 -18.4635 -18.4506
   -18.4374 -18.4236 -18.4113 -18.4054 -18.3925 -18.3477 -18.3443 -18.3409
   -18.3359 -18.3061 -18.2870 -18.2689 -18.2681 -18.2635 -18.2081 -18.1944
   -18.1941 -18.1857 -18.1577 -18.1326 -18.1266 -18.1218 -18.1164 -18.1048
   -18.0711 -18.0588 -18.0435 -18.0431 -18.0380 -18.0345 -18.0311 -18.0295
   -18.0232 -18.0095 -18.0047 -18.0041 -18.0025 -17.9982 -17.9873 -17.9871
   -17.9806 -17.9788 -17.9745 -17.9469 -17.9435 -17.9416 -17.9404 -17.9379
   -17.9321 -17.9310 -17.9307 -17.9240 -17.9169 -17.8888 -17.8786 -17.8739
   -17.8715 -17.8669 -17.8638 -17.8295 -17.8270 -17.8232 -17.8170 -17.8042
   -17.7852 -17.7815 -17.7777 -17.7757 -17.7584 -17.7552 -17.7549 -17.7544
   -17.7535 -17.7534 -17.7485 -17.7410 -17.7379 -17.7220 -17.7175 -17.6975
   -17.6939 -17.6784 -17.6737 -17.6633 -17.6601 -17.6551 -17.6547 -11.8596
   -11.7064 -11.6612 -11.6458 -11.5905 -11.5738 -11.4812 -11.4643 -11.4458
   -11.4334 -11.4319 -11.4293 -11.4173 -11.4135 -11.3971 -11.3707 -11.3358
   -11.3257 -11.3169 -11.3056 -11.2920 -11.2652 -11.2592 -11.2563 -11.2480
   -11.2112 -11.2089 -11.2041 -11.2030 -11.1968 -11.1879 -11.1849 -11.1674
   -11.1510 -11.1396 -11.1386 -11.1268 -11.1202 -11.1157 -11.1068 -11.1029
   -11.0995 -11.0819 -11.0813 -11.0613 -11.0515 -11.0343 -11.0329 -10.9975
   -10.9917 -10.9840 -10.9608 -10.9114 -10.9055 -10.9008 -10.8679 -10.8658
   -10.8521 -10.8505 -10.8360 -10.8313 -10.8129 -10.7856 -10.7829 -10.7735
   -10.7644 -10.7585 -10.7548 -10.7482 -10.7475 -10.7468 -10.7460 -10.7416
   -10.7359 -10.7299 -10.7293 -10.7286 -10.7268 -10.7203 -10.7198 -10.7172
   -10.7138 -10.6796 -10.6793 -10.6785 -10.6782 -10.5834 -10.5682 -10.5015
   -10.4770 -10.4695 -10.4670 -10.4417 -10.4202 -10.3589 -10.3386 -10.2631
   -10.2175 -10.1969 -10.1532 -10.1268 -10.0965 -10.0758 -10.0675 -10.0584
   -10.0525 -10.0277 -10.0196 -10.0140  -9.9906  -9.9783  -9.9719  -9.9647
    -9.9630  -9.9496  -9.9383  -9.9382  -9.9206  -9.9011  -9.8715  -9.8661
    -9.8556  -9.8465  -9.8349  -9.8317  -9.8256  -9.8041  -9.7922  -9.7894
    -9.7644  -9.7616  -9.7429  -9.7264  -9.7189  -9.7140  -9.7014  -9.6945
    -9.6743  -9.6523  -9.6323  -9.6230  -9.6067  -9.5979  -9.5922  -9.5713
    -9.5650  -9.5541  -9.5375  -9.5319  -9.5116  -9.5087  -9.4816  -9.4783
    -9.4781  -9.4681  -9.4584  -9.4454  -9.4277  -9.4242  -9.4123  -9.4109
    -9.4048  -9.3961  -9.3903  -9.3893  -9.3813  -9.3694  -9.3564  -9.3404
    -9.3218  -9.3121  -9.2753  -9.2229  -9.2199  -9.1889  -9.1785  -9.1672
    -9.1571  -9.1375  -9.1279  -9.1207  -9.1096  -9.1013  -9.0991  -9.0821
    -9.0579  -9.0501  -9.0319  -9.0192  -9.0184  -8.9993  -8.9973  -8.9761
    -8.9699  -8.9691  -8.9579  -8.9336  -8.9321  -8.9248  -8.9071  -8.8932
    -8.8859  -8.8773  -8.8680  -8.8662  -8.8552  -8.8275  -8.8254  -8.8243
    -8.8233  -8.8205  -8.8171  -8.8146  -8.8091  -8.8046  -8.8041  -8.7959
    -8.7950  -8.7913  -8.7879  -8.7835  -8.7762  -8.7756  -8.7749  -8.7725
    -8.7430  -8.7288  -8.7275  -8.7273  -8.7231  -8.7193  -8.7177  -8.6985
    -8.6977  -8.6955  -8.6715  -8.6680  -8.6648  -8.6638  -8.6570  -8.6397
    -8.5945  -8.5831  -8.5751  -8.5413  -8.5180  -8.4426  -8.4367  -8.4217
    -8.4055  -8.3730  -8.3725  -8.3395  -8.2948  -8.2894  -8.2506  -8.2451
    -8.2068  -8.1634  -8.0716  -8.0630  -8.0625  -8.0541  -8.0532  -8.0427
    -8.0422  -8.0078  -7.9979  -7.9933  -7.9590  -7.9160  -7.9036  -7.8887
    -7.8491  -7.8463  -7.8208  -7.8081  -7.7840  -7.7782  -7.7686  -7.7645
    -7.7550  -7.7533  -7.7486  -7.7451  -7.7421  -7.7372  -7.7329  -7.7326
    -7.7324  -7.7260  -7.7183  -7.7170  -7.7125  -7.7109  -7.7085  -7.7042
    -7.7039  -7.7002  -7.6993  -7.6970  -7.6956  -7.6955  -7.6933  -7.6923
    -7.6681  -7.6670  -7.6667  -7.6619  -7.6574  -7.6334  -7.6326  -7.6321
    -7.6307  -7.6088  -7.6042  -7.6025  -7.6014  -7.5975  -7.5948  -7.5913
    -7.5889  -7.5756  -7.5535  -7.5474  -7.5435  -7.5430  -7.5403  -7.5344
    -7.5259  -7.5204  -7.5201  -7.5156  -7.5033  -7.5002  -7.4994  -7.4941
    -7.4864  -7.4741  -7.4600  -7.4031  -7.3981  -7.3942  -7.3913  -7.3654
    -7.3542  -7.2840  -7.2713  -7.1594  -7.1206  -7.1097  -7.1060  -7.1017
    -7.0952  -7.0902  -7.0677  -7.0537  -7.0456  -7.0396  -7.0364  -7.0063
    -6.9998  -6.9908  -6.9779  -6.9640  -6.9553  -6.9534  -6.9504  -6.9111
    -6.9088  -6.8733  -6.8504  -6.8498  -6.8481  -6.8392  -6.8302  -6.8195
    -6.8028  -6.7950  -6.7943  -6.7652  -6.7331  -6.7252  -6.7123  -6.7017
    -6.6976  -6.6711  -6.6484  -6.6208  -6.6191  -6.6139  -6.5698  -6.5693
    -6.5570  -6.5419  -6.5411  -6.5410  -6.5399  -6.5355  -6.5236  -6.5232
    -6.5223  -6.5219  -6.5144  -6.5143  -6.5141  -6.5140  -6.4966  -6.4906
    -6.4615  -6.4206  -6.3972  -6.3546  -6.3470  -6.3368  -6.2636  -6.2620
    -6.2594  -6.2563  -6.2475  -6.2351  -6.2328  -6.2212  -6.2127  -6.2124
    -6.2081  -6.2075  -6.1998  -6.1975  -6.1865  -6.1742  -6.1710  -6.1547
    -6.1492  -6.1390  -6.1359  -6.1311  -6.1198  -5.9490  -5.9357  -5.9317
    -5.9103  -5.9009  -5.8573  -5.8447  -5.8295  -5.7850  -5.7844  -5.7148
    -5.6870  -5.6558  -5.6383  -5.5561  -5.5450  -5.5143  -5.4791  -5.4709
    -5.4343  -4.1752  -4.0309  -4.0300  -4.0162  -4.0098  -3.9135  -3.8764
    -3.8591  -3.8572  -3.8330  -3.8285  -3.7768  -3.7758  -3.7625  -3.7595
    -3.7461  -3.7443  -3.7334  -3.7331  -3.7223  -3.7223  -3.6360  -3.6242
    -3.6224  -3.6130  -3.5479  -3.5458  -3.5355  -3.5335  -3.5290  -3.5054
    -3.4876  -3.4857  -3.4666  -3.4620  -3.4573  -3.4554  -3.4544  -3.4476
    -3.4297  -3.4165  -3.4135  -3.4134  -3.4100  -3.4090  -3.4066  -3.4046
    -3.3822  -3.3815  -3.3758  -3.3631  -3.3573  -3.3514  -3.3341  -3.3318
    -3.3060  -3.2883  -3.2825  -3.2821  -3.2820  -3.2751  -3.2716  -3.2700
    -3.2635  -3.2349  -3.2282  -3.2227  -3.2216  -3.2172  -3.2149  -3.2117
    -3.2102  -3.2056  -3.1965  -3.1824  -3.1777  -3.1687  -3.1685  -3.1611
    -3.1575  -3.1502  -3.1461  -3.1419  -3.1319  -3.1286  -3.1202  -3.1130
    -3.1130  -3.1028  -3.0969  -3.0957  -3.0957  -3.0908  -3.0817  -3.0570
    -3.0338  -3.0169  -3.0088  -3.0005  -2.9999  -2.9991  -2.9899  -2.9606
    -2.9604  -2.9563  -2.9553  -2.9548  -2.9537  -2.9465  -2.9430  -2.9421
    -2.9384  -2.9377  -2.9367  -2.9239  -2.9205  -2.9186  -2.9130  -2.9094
    -2.9077  -2.9038  -2.9012  -2.8935  -2.8895  -2.8812  -2.8803  -2.8767
    -2.8734  -2.8670  -2.8638  -2.8584  -2.8408  -2.8344  -2.8317  -2.8222
    -2.8132  -2.8128  -2.8064  -2.7997  -2.7865  -2.7315  -2.7286  -2.7241
    -2.7202  -2.6812  -2.6609  -2.6429  -2.6413  -2.5547  -2.5425  -2.5264
    -2.5259  -2.5064  -2.4907  -2.4900  -2.4774  -2.4650  -2.4607  -2.4591
    -2.4574  -2.4568  -2.4349  -2.4080  -2.3439  -2.3308  -2.3284  -2.3271
    -2.3180  -2.3142  -2.2843  -2.2815

          k =-0.5000-0.8660 0.0000 (386352 PWs)   bands (ev):

  -102.9526 -88.3290 -71.2646 -71.2480 -71.2429 -71.2409 -71.2284 -71.2255
   -71.2180 -66.5548 -66.5547 -66.5546 -66.5546 -66.5546 -66.5534 -66.5533
   -66.5456 -66.5440 -66.5440 -66.5440 -66.5440 -66.5427 -66.5427 -66.5412
   -66.5367 -66.5319 -66.5290 -66.5289 -66.5289 -66.5289 -66.5289 -66.5289
   -66.5289 -66.5288 -66.5276 -66.5276 -66.5276 -66.5276 -66.5262 -66.5246
   -66.5245 -66.5244 -66.5243 -66.5231 -66.5231 -66.5190 -66.5184 -66.5182
   -66.5182 -66.5182 -66.5182 -66.5181 -66.5181 -66.5180 -66.5169 -66.5169
   -66.5168 -66.5168 -66.5146 -66.5138 -66.5137 -66.5137 -66.5137 -66.5124
   -66.5124 -66.5067 -66.5058 -66.5041 -66.5032 -66.4998 -66.4948 -66.4795
   -66.4717 -57.2070 -57.1801 -57.1714 -54.1457 -54.1370 -54.1319 -40.8567
   -40.8566 -40.8566 -40.8566 -40.8566 -40.8566 -40.8565 -40.8565 -40.8559
   -40.8559 -40.8559 -40.8559 -40.8529 -40.8511 -40.8366 -40.8299 -40.8298
   -40.8297 -40.8297 -40.8291 -40.8291 -40.8250 -40.8199 -40.8177 -40.8177
   -40.8177 -40.8177 -40.8170 -40.8170 -40.8131 -40.8004 -40.7864 -40.7743
   -40.7671 -40.7670 -40.7670 -40.7670 -40.7670 -40.7670 -40.7670 -40.7670
   -40.7663 -40.7663 -40.7663 -40.7663 -40.7540 -40.7468 -40.7444 -40.7389
   -40.7164 -40.7084 -40.7083 -40.7083 -40.7082 -40.7079 -40.7077 -40.7077
   -40.6988 -40.6987 -40.6987 -40.6987 -40.6979 -40.6979 -40.6892 -40.6875
   -40.6875 -40.6874 -40.6874 -40.6868 -40.6868 -40.6812 -40.6753 -40.6744
   -40.6693 -40.6579 -40.6579 -40.6579 -40.6578 -40.6578 -40.6578 -40.6578
   -40.6578 -40.6574 -40.6571 -40.6571 -40.6571 -40.6571 -40.6524 -40.6492
   -40.6491 -40.6491 -40.6490 -40.6484 -40.6484 -40.6459 -40.6436 -40.6381
   -40.6373 -40.6372 -40.6372 -40.6372 -40.6370 -40.6370 -40.6369 -40.6368
   -40.6368 -40.6368 -40.6368 -40.6367 -40.6367 -40.6364 -40.6364 -40.6361
   -40.6361 -40.6361 -40.6361 -40.6312 -40.6292 -40.6282 -40.6281 -40.6281
   -40.6281 -40.6274 -40.6274 -40.6247 -40.6222 -40.6145 -40.6116 -40.6066
   -40.6064 -40.6063 -40.6063 -40.6063 -40.6063 -40.6062 -40.6061 -40.6054
   -40.6054 -40.6054 -40.6054 -40.5950 -40.5939 -40.5837 -40.5818 -40.5716
   -40.5716 -40.5716 -40.5716 -40.5716 -40.5716 -40.5716 -40.5715 -40.5706
   -40.5706 -40.5706 -40.5706 -40.5595 -40.5594 -40.5594 -40.5594 -40.5585
   -40.5585 -40.5563 -40.5543 -40.5515 -40.5475 -40.5435 -40.5403 -40.5401
   -40.5401 -40.5399 -40.5392 -40.5391 -40.5294 -40.5232 -40.5231 -40.5231
   -40.5231 -40.5221 -40.5221 -40.5213 -40.5172 -40.5012 -40.4940 -40.4926
   -40.4925 -40.4924 -40.4924 -40.4914 -40.4914 -40.4778 -40.4589 -19.8987
   -19.8295 -19.7988 -19.7738 -19.6977 -19.6814 -19.5910 -19.5864 -19.4371
   -19.4057 -19.3613 -19.3524 -19.2671 -19.2607 -19.1651 -19.1628 -18.8620
   -18.8308 -18.7922 -18.7427 -18.6955 -18.6843 -18.6583 -18.6568 -18.6561
   -18.6500 -18.6388 -18.6222 -18.5887 -18.5859 -18.5793 -18.5711 -18.5366
   -18.5150 -18.5051 -18.4903 -18.4879 -18.4852 -18.4824 -18.4623 -18.4460
   -18.4178 -18.4137 -18.4130 -18.4030 -18.3794 -18.3487 -18.3427 -18.3417
   -18.3216 -18.3192 -18.2926 -18.2777 -18.2676 -18.2580 -18.2303 -18.2080
   -18.1914 -18.1824 -18.1699 -18.1521 -18.1289 -18.1238 -18.1106 -18.0844
   -18.0751 -18.0598 -18.0521 -18.0390 -18.0371 -18.0347 -18.0335 -18.0257
   -18.0102 -18.0079 -18.0060 -18.0046 -18.0009 -17.9970 -17.9952 -17.9860
   -17.9818 -17.9759 -17.9671 -17.9467 -17.9441 -17.9418 -17.9389 -17.9356
   -17.9347 -17.9308 -17.9254 -17.9215 -17.9176 -17.8863 -17.8800 -17.8745
   -17.8713 -17.8646 -17.8562 -17.8303 -17.8269 -17.8243 -17.8118 -17.8076
   -17.7849 -17.7825 -17.7777 -17.7737 -17.7661 -17.7554 -17.7550 -17.7544
   -17.7539 -17.7529 -17.7521 -17.7408 -17.7391 -17.7214 -17.7185 -17.6969
   -17.6945 -17.6778 -17.6744 -17.6630 -17.6608 -17.6551 -17.6548 -11.8819
   -11.7106 -11.6660 -11.6265 -11.5808 -11.5592 -11.4674 -11.4529 -11.4508
   -11.4341 -11.4338 -11.4270 -11.4095 -11.4000 -11.3914 -11.3767 -11.3502
   -11.3245 -11.3193 -11.3015 -11.2929 -11.2804 -11.2695 -11.2588 -11.2519
   -11.2127 -11.2112 -11.2083 -11.1991 -11.1949 -11.1915 -11.1896 -11.1747
   -11.1500 -11.1429 -11.1388 -11.1292 -11.1181 -11.1085 -11.1050 -11.1034
   -11.0992 -11.0845 -11.0824 -11.0698 -11.0594 -11.0353 -11.0202 -10.9988
   -10.9948 -10.9785 -10.9360 -10.9217 -10.8980 -10.8902 -10.8783 -10.8596
   -10.8577 -10.8490 -10.8395 -10.8228 -10.8033 -10.7982 -10.7826 -10.7720
   -10.7671 -10.7650 -10.7614 -10.7478 -10.7474 -10.7463 -10.7460 -10.7383
   -10.7371 -10.7309 -10.7294 -10.7275 -10.7270 -10.7200 -10.7195 -10.7169
   -10.7149 -10.6795 -10.6793 -10.6785 -10.6783 -10.6237 -10.5656 -10.4879
   -10.4756 -10.4669 -10.4630 -10.4273 -10.4073 -10.3386 -10.3251 -10.2596
   -10.2470 -10.2024 -10.1791 -10.1245 -10.0937 -10.0778 -10.0693 -10.0513
   -10.0499 -10.0406 -10.0270 -10.0016  -9.9916  -9.9766  -9.9723  -9.9710
    -9.9674  -9.9508  -9.9450  -9.9416  -9.9243  -9.8804  -9.8737  -9.8656
    -9.8580  -9.8458  -9.8415  -9.8291  -9.8265  -9.8110  -9.8013  -9.7895
    -9.7703  -9.7618  -9.7466  -9.7274  -9.7163  -9.7070  -9.7030  -9.6842
    -9.6733  -9.6597  -9.6448  -9.6289  -9.6200  -9.5981  -9.5905  -9.5704
    -9.5582  -9.5512  -9.5434  -9.5264  -9.5089  -9.5010  -9.4933  -9.4797
    -9.4769  -9.4678  -9.4516  -9.4265  -9.4259  -9.4239  -9.4127  -9.4069
    -9.4016  -9.3945  -9.3932  -9.3887  -9.3812  -9.3688  -9.3617  -9.3199
    -9.3039  -9.2959  -9.2742  -9.2413  -9.2074  -9.1903  -9.1758  -9.1558
    -9.1468  -9.1407  -9.1362  -9.1312  -9.1120  -9.0948  -9.0809  -9.0786
    -9.0575  -9.0413  -9.0379  -9.0293  -9.0167  -8.9977  -8.9959  -8.9804
    -8.9764  -8.9680  -8.9644  -8.9394  -8.9330  -8.9165  -8.9060  -8.8961
    -8.8834  -8.8799  -8.8752  -8.8655  -8.8539  -8.8418  -8.8347  -8.8250
    -8.8239  -8.8227  -8.8217  -8.8159  -8.8087  -8.8061  -8.8041  -8.8034
[...]
     atom  170 type  1   force =    -0.00001008   -0.00001486    0.00000251
     atom  171 type  2   force =    -0.00000358    0.00000029    0.00000542
     atom  172 type  2   force =    -0.00000008    0.00000067    0.00161537
     atom  173 type  2   force =    -0.00000013    0.00000017   -0.00235936
     atom  174 type  2   force =    -0.00000247   -0.00000561   -0.00000455
     atom  175 type  1   force =     0.00000164    0.00000234    0.00001883
     atom  176 type  1   force =    -0.00036125    0.00010848    0.00014253
     atom  177 type  2   force =     0.00003427    0.00025114    0.00041461
     atom  178 type  2   force =     0.00004725   -0.00002080   -0.00003577
     atom  179 type  2   force =    -0.00002392    0.00000187   -0.00001756
     atom  180 type  2   force =     0.00004001    0.00054520    0.00034233
     atom  181 type  1   force =     0.00000181   -0.00000038    0.00068849
     atom  182 type  1   force =    -0.00001007   -0.00000971    0.00000583
     atom  183 type  2   force =    -0.00000189   -0.00000096    0.00000582
     atom  184 type  2   force =     0.00000003    0.00000073    0.00161545
     atom  185 type  2   force =    -0.00000016    0.00000021   -0.00235947
     atom  186 type  2   force =    -0.00000552    0.00000108   -0.00000185
     atom  187 type  1   force =     0.00000308    0.00000019    0.00001855
     atom  188 type  1   force =     0.00003918    0.00002244   -0.00078608
     atom  189 type  2   force =     0.00023467   -0.00009600    0.00041412
     atom  190 type  2   force =     0.00000091    0.00000014    0.00008750
     atom  191 type  2   force =    -0.00001077   -0.00000643    0.00004767
     atom  192 type  2   force =     0.00049199   -0.00023781    0.00034449
     atom  193 type  3   force =    -0.00023237   -0.00013512   -0.00036230
     atom  194 type  4   force =    -0.00012016   -0.00006947   -0.00069618

     Total force =     0.002969     Total SCF correction =     0.000351
     SCF correction compared to forces is large: reduce conv_thr to get better values
     Energy error            =      2.5E-05 Ry
     Gradient error          =      7.9E-04 Ry/Bohr

     bfgs converged in  15 scf cycles and  14 bfgs steps
     (criteria: energy <  1.0E-04 Ry, force <  1.0E-03 Ry/Bohr)

     End of BFGS Geometry Optimization

     Final energy             =  -33980.2848445813 Ry

     File ./outdir/pwscf.bfgs deleted, as requested
Begin final coordinates

ATOMIC_POSITIONS (angstrom)
Mo               0.0000119917        1.8193638619       -9.1672481230    0   0   0
Mo               1.5756136568        0.9097075315       -3.0554901653    0   0   0
S                0.0000188998        1.8193822938       -4.6232556019    0   0   0
S                1.5756321638        0.9096773839       -7.6014065489    0   0   0
S                1.5756326175        0.9096785128      -10.7330757790    0   0   0
S                0.0000189190        1.8193860094       -1.4877129945    0   0   0
Mo               0.0000421360        1.8193213196        3.0568181503
Mo               1.5810302945        0.9211927931        9.1600924428
S                0.0014368234        1.8259606733        7.5857485839
S                1.5756453346        0.9089066845        4.6240943160
S                1.5754028274        0.9099442686        1.4885283231
S               -0.0066371980        1.8057405217       10.7312693711
Mo              -1.5756053507        4.5484193819       -9.1672481230    0   0   0
Mo               0.0000378379        3.6387394919       -3.0554952701    0   0   0
S               -1.5755913433        4.5484363582       -4.6232494962    0   0   0
S                0.0000148214        3.6387329039       -7.6014065489    0   0   0
S                0.0000152751        3.6387340328      -10.7330757790    0   0   0
S               -1.5755906502        4.5484413613       -1.4877305502    0   0   0
Mo              -1.5752672367        4.5486090985        3.0558501873
Mo              -0.0115446808        3.6270413056        9.1726801634
S               -1.5703090699        4.5514860608        7.5943695322
S                0.0005397054        3.6395127614        4.6238736753
S                0.0000301530        3.6383220493        1.4882452112
S               -1.5847655647        4.5431331969       10.7326057936
Mo              -3.1512226931        7.2774749019       -9.1672481230    0   0   0
Mo              -1.5755910988        6.3678216792       -3.0555115988    0   0   0
S               -3.1512162438        7.2774954350       -4.6232578178    0   0   0
S               -1.5756025210        6.3677884239       -7.6014065489    0   0   0
S               -1.5756020673        6.3677895528      -10.7330757790    0   0   0
S               -3.1512127704        7.2774877076       -1.4877200710    0   0   0
Mo              -3.1512389681        7.2775148637        3.0568177166
Mo              -1.5915135944        6.3636329569        9.1726835456
S               -3.1447987023        7.2754241820        7.5857556718
S               -1.5746591187        6.3678451751        4.6238724451
S               -1.5759426105        6.3679998363        1.4882466136
S               -3.1663450330        7.2785411227       10.7312808787
Mo              -4.7268400355       10.0065304219       -9.1672481230    0   0   0
Mo              -3.1512405618        9.0968403586       -3.0554816746    0   0   0
S               -4.7268341792       10.0065523623       -4.6232463762    0   0   0
S               -3.1512198634        9.0968439439       -7.6014065489    0   0   0
S               -3.1512194097        9.0968450728      -10.7330757790    0   0   0
S               -4.7268370797       10.0065537885       -1.4877176751    0   0   0
Mo              -4.7270648827       10.0063960152        3.0555806962
Mo              -3.1385560144        9.0957738553        9.1600989807
S               -4.7483872136        9.9940964792        7.6275953278
S               -3.1518788820        9.0972375018        4.6240916513
S               -3.1511008360        9.0965115729        1.4885292566
S               -4.6360385214       10.0589652701       10.7738890945
Mo               3.1512517547        1.8193638619       -9.1672481230    0   0   0
Mo               4.7269020221        0.9097289540       -3.0554823951    0   0   0
S                3.1512612351        1.8193882564       -4.6232320683    0   0   0
S                4.7268719268        0.9096773839       -7.6014065489    0   0   0
S                4.7268723805        0.9096785128      -10.7330757790    0   0   0
S                3.1512592485        1.8193890201       -1.4877261251    0   0   0
Mo               3.1510131295        1.8195362573        3.0562986137
Mo               4.7270919630        0.9098108934        9.1457614299
S                3.1487557696        1.8218977229        7.5792582206
S                4.7270833921        0.9097985225        4.6231655311
S                4.7266018713        0.9095197536        1.4883532071
S                3.1682953853        1.8103107226       10.7274791381
Mo               1.5756344123        4.5484193819       -9.1672481230    0   0   0
Mo               3.1512756394        3.6387769522       -3.0554814834    0   0   0
S                1.5756504879        4.5484423799       -4.6232390542    0   0   0
S                3.1512545844        3.6387329039       -7.6014065489    0   0   0
S                3.1512550381        3.6387340328      -10.7330757790    0   0   0
S                1.5756466253        4.5484431864       -1.4877251801    0   0   0
Mo               1.5755974906        4.5488487561        3.0555020230
Mo               3.1636213167        3.6244441998        9.1654528449
S                1.5733308603        4.5786755527        7.6449508586
S                3.1504245837        3.6395519345        4.6238900820
S                3.1513661446        3.6387685395        1.4882633913
S                1.5769529842        4.3993380038       10.8084176677
Mo               0.0000170699        7.2774749019       -9.1672481230    0   0   0
Mo               1.5756764447        6.3678236689       -3.0554877708    0   0   0
S                0.0000381981        7.2774979204       -4.6232454413    0   0   0
S                1.5756372420        6.3677884239       -7.6014065489    0   0   0
S                1.5756376957        6.3677895528      -10.7330757790    0   0   0
S                0.0000328088        7.2774946042       -1.4877307940    0   0   0
Mo               0.0003776636        7.2772201218        3.0555032484
Mo               1.5746441660        6.3672170063        9.2279983087
S                0.0250678424        7.2603491773        7.6449524203
S                1.5755478203        6.3677287897        4.6240145625
S                1.5761126545        6.3680576482        1.4878523708
S               -0.1284428815        7.3531696327       10.8084110768
Mo              -1.5756002725       10.0065304219       -9.1672481230    0   0   0
Mo               0.0000873425        9.0968676911       -3.0554912329    0   0   0
S               -1.5755883952       10.0065504530       -4.6232240150    0   0   0
S                0.0000198996        9.0968439439       -7.6014065489    0   0   0
S                0.0000203533        9.0968450728      -10.7330757790    0   0   0
S               -1.5755859047       10.0065492576       -1.4877362381    0   0   0
Mo              -1.5755643466       10.0062323355        3.0562993346
Mo              -0.0061762621        9.1147068967        9.1654493187
S               -1.5746624856       10.0031048633        7.5792606716
S                0.0003195142        9.0957110864        4.6238911462
S                0.0001097517        9.0969170302        1.4882645662
S               -1.5749199976       10.0258235015       10.7274805207
Mo               6.3024915177        1.8193638619       -9.1672481230    0   0   0
Mo               7.8781001445        0.9096521684       -3.0554919963    0   0   0
S                6.3025008696        1.8193826232       -4.6232480596    0   0   0
S                7.8781116898        0.9096773839       -7.6014065489    0   0   0
S                7.8781121435        0.9096785128      -10.7330757790    0   0   0
S                6.3025042007        1.8193849068       -1.4877147524    0   0   0
Mo               6.3025478726        1.8193927312        3.0554928640
Mo               7.8766531471        0.9126066701        9.1559779075
S                6.3054638951        1.8210937974        7.5817116740
S                7.8781265781        0.9095232393        4.6230308658
S                7.8783529759        0.9093732740        1.4882092090
S                6.3007557339        1.8183684570       10.7210263052
Mo               4.7268741753        4.5484193819       -9.1672481230    0   0   0
Mo               6.3024679138        3.6387501714       -3.0554895197    0   0   0
S                4.7268748770        4.5484386753       -4.6232519432    0   0   0
S                6.3024943474        3.6387329039       -7.6014065489    0   0   0
S                6.3024948011        3.6387340328      -10.7330757790    0   0   0
S                4.7268770533        4.5484432419       -1.4877137856    0   0   0
Mo               4.7266104118        4.5488262722        3.0563307624
Mo               6.3042933076        3.6360245702        9.1559854273
S                4.7255777564        4.5499016955        7.5909049895
S                6.3023696856        3.6388176174        4.6230327608
S                6.3023512282        3.6390893127        1.4882079025
S                4.7289923051        4.5280017349       10.7347179365
Mo               3.1512568329        7.2774749019       -9.1672481230    0   0   0
Mo               4.7268384135        6.3678043337       -3.0554959052    0   0   0
S                3.1512606125        7.2774972547       -4.6232589675    0   0   0
S                4.7268770050        6.3677884239       -7.6014065489    0   0   0
S                4.7268774587        6.3677895528      -10.7330757790    0   0   0
S                3.1512629079        7.2774963749       -1.4877081835    0   0   0
Mo               3.1512543107        7.2774671017        3.0565415600
Mo               4.7375255091        6.3501675275        9.1787652559
S                3.1262323198        7.2630349283        7.6500011240
S                4.7268645204        6.3683082688        4.6248434215
S                4.7266512858        6.3679276778        1.4885254043
S                3.2870504487        7.3558838481       10.8169521511
Mo               1.5756394905       10.0065304219       -9.1672481230    0   0   0
Mo               3.1512330605        9.0968514907       -3.0554878870    0   0   0
S                1.5756499830       10.0065443759       -4.6232632674    0   0   0
S                3.1512596626        9.0968439439       -7.6014065489    0   0   0
S                3.1512601163        9.0968450728      -10.7330757790    0   0   0
S                1.5756503041       10.0065459699       -1.4877044377    0   0   0
Mo               1.5758653603       10.0060916755        3.0563305464
Mo               3.1413137207        9.1148903652        9.1787625025
S                1.5762665354       10.0046757202        7.5909019901
S                3.1517091281        9.0965686047        4.6248397093
S                3.1512720524        9.0965738303        1.4885264823
S                1.5590102440       10.0185893121       10.7347123754
Mo               9.4537312807        1.8193638619       -9.1672481230    0   0   0
Mo              11.0293863460        0.9096952246       -3.0554894007    0   0   0
S                9.4537395970        1.8193770750       -4.6232328036    0   0   0
S               11.0293514528        0.9096773839       -7.6014065489    0   0   0
S               11.0293519066        0.9096785128      -10.7330757790    0   0   0
S                9.4537393632        1.8193794783       -1.4877366147    0   0   0
Mo               9.4539479150        1.8193164134        3.0559855742
Mo              11.0242663742        0.9242661878        9.1563763854
S                9.4515562369        1.8197136504        7.5805087173
S               11.0291618113        0.9090040377        4.6242840645
S               11.0296576431        0.9097368966        1.4886108020
S                9.4446742020        1.8313355990       10.7243291928
Mo               7.8781139383        4.5484193819       -9.1672481230    0   0   0
Mo               9.4537539161        3.6387607911       -3.0554933032    0   0   0
S                7.8781175448        4.5484378232       -4.6232366318    0   0   0
S                9.4537341104        3.6387329039       -7.6014065489    0   0   0
S                9.4537345641        3.6387340328      -10.7330757790    0   0   0
S                7.8781194018        4.5484411585       -1.4877377057    0   0   0
Mo               7.8781851588        4.5486224195        3.0559847174
Mo               9.4513944417        3.6373947103        9.1525840825
S                7.8773171227        4.5463853223        7.5805149385
S                9.4542731902        3.6390404193        4.6232588055
S                9.4538309441        3.6387846221        1.4881892789
S                7.8839494031        4.5346072545       10.7243368510
Mo               6.3024965959        7.2774749019       -9.1672481230    0   0   0
Mo               7.8781361655        6.3678242352       -3.0555014130    0   0   0
S                6.3024973331        7.2774953556       -4.6232392528    0   0   0
S                7.8781167680        6.3677884239       -7.6014065489    0   0   0
S                7.8781172217        6.3677895528      -10.7330757790    0   0   0
S                6.3024989866        7.2774929744       -1.4877349119    0   0   0
Mo               6.3022831025        7.2776058825        3.0560066326
Mo               7.8882032031        6.3561118931        9.1563861081
S                6.2987832406        7.2974087589        7.6280925807
S                7.8774423183        6.3679553360        4.6242816847
S                7.8783215765        6.3680186406        1.4886125419
S                6.3260095243        7.1663343639       10.7815146636
Mo               4.7268792535       10.0065304219       -9.1672481230    0   0   0
Mo               6.3025111524        9.0968738021       -3.0554915260    0   0   0
S                4.7268840634       10.0065452125       -4.6232380477    0   0   0
S                6.3024994256        9.0968439439       -7.6014065489    0   0   0
S                6.3024998793        9.0968450728      -10.7330757790    0   0   0
S                4.7268847312       10.0065459141       -1.4877283294    0   0   0
Mo               4.7268916363       10.0062742150        3.0560058264
Mo               6.3013406348        9.0961852245        9.2154046545
S                4.7422776573        9.9933570374        7.6280886589
S                6.3024405325        9.0968075209        4.6233650279
S                6.3023413801        9.0967494722        1.4878085937
S                4.6423768499       10.0824788102       10.7815040143
Pt               1.5871345249        6.3744590272       11.9733685325
Pd               6.2942840934        9.0921165604       12.0992789813
End final coordinates



     Writing all to output data dir ./outdir/pwscf.save/ :
     XML data file, charge density, pseudopotentials, collected wavefunctions
 
     init_run     :    176.37s CPU    179.56s WALL (       1 calls)
     electrons    : 118264.64s CPU 119691.95s WALL (      15 calls)
     update_pot   :     23.49s CPU     24.28s WALL (      14 calls)
     forces       :   1971.06s CPU   2006.74s WALL (      15 calls)
     force_dftd3  :     10.00s CPU     10.47s WALL (      15 calls)

     Called by init_run:
     wfcinit      :    152.65s CPU    154.35s WALL (       1 calls)
     potinit      :      1.27s CPU      1.39s WALL (       1 calls)
     hinit0       :     12.70s CPU     12.78s WALL (       1 calls)

     Called by electrons:
     c_bands      : 105393.77s CPU 106366.21s WALL (     179 calls)
     sum_band     :  11519.09s CPU  11755.58s WALL (     179 calls)
     v_of_rho     :     65.23s CPU     73.36s WALL (     181 calls)
     newd         :   1148.80s CPU   1363.94s WALL (     181 calls)
     PAW_pot      :    166.19s CPU    167.83s WALL (     195 calls)
     mix_rho      :     16.84s CPU     19.40s WALL (     179 calls)
     energy_dftd3 :      5.74s CPU      5.78s WALL (      15 calls)

     Called by c_bands:
     init_us_2    :    391.06s CPU    392.93s WALL (    1552 calls)
     init_us_2:cp :    391.04s CPU    392.92s WALL (    1552 calls)
     cegterg      : 103695.05s CPU 104657.06s WALL (     737 calls)

     Called by *egterg:
     cdiaghg      :   5662.67s CPU   5860.67s WALL (    8509 calls)
     h_psi        :  52430.63s CPU  52752.77s WALL (    8624 calls)
     s_psi        :  12196.33s CPU  12274.90s WALL (    8624 calls)
     g_psi        :     96.69s CPU     97.07s WALL (    7883 calls)

     Called by h_psi:
     h_psi:calbec :  11950.17s CPU  11991.84s WALL (    8624 calls)
     vloc_psi     :  28003.65s CPU  28137.55s WALL (    8624 calls)
     add_vuspsi   :  12263.51s CPU  12342.79s WALL (    8624 calls)

     General routines
     calbec       :  16943.19s CPU  17003.23s WALL (    9636 calls)
     fft          :     47.17s CPU     54.01s WALL (    2515 calls)
     ffts         :      3.21s CPU      3.43s WALL (     360 calls)
     fftw         :  20778.95s CPU  20877.79s WALL ( 5455958 calls)
     interpolate  :      5.65s CPU      6.18s WALL (     181 calls)
 
     Parallel routines
 
     PWSCF        :   1d 9h37m CPU   1d10h 2m WALL

 
   This run was terminated on:   6:35:50  16Mar2024            

=------------------------------------------------------------------------------=
   JOB DONE.
=------------------------------------------------------------------------------=
