
     Program PWSCF v.7.3 starts on 23Feb2024 at 16:14:22 

     This program is part of the open-source Quantum ESPRESSO suite
     for quantum simulation of materials; please cite
         "P. Giannozzi et al., J. Phys.:Condens. Matter 21 395502 (2009);
         "P. Giannozzi et al., J. Phys.:Condens. Matter 29 465901 (2017);
         "P. Giannozzi et al., J. Chem. Phys. 152 154105 (2020);
          URL http://www.quantum-espresso.org", 
     in publications or presentations arising from this work. More details at
     http://www.quantum-espresso.org/quote

     Parallel version (MPI & OpenMP), running on      36 processor cores
     Number of MPI processes:                36
     Threads/MPI process:                     1

     MPI processes distributed on     1 nodes
     559212 MiB available memory on the printing compute node when the environment starts
 
     Waiting for input...
     Reading input from standard input
Warning: card &CELL ignored
Warning: card / ignored

     Current dimensions of program PWSCF are:
     Max number of different atomic species (ntypx) = 10
     Max number of k-points (npk) =  40000
     Max angular momentum in pseudopotentials (lmaxx) =  4
     file Mo.pbe-spn-kjpaw_psl.1.0.0.UPF: wavefunction(s)  4S 4D renormalized
     file S.pbe-n-kjpaw_psl.1.0.0.UPF: wavefunction(s)  3S 3P renormalized
     file Pt.pbe-spfn-kjpaw_psl.1.0.0.UPF: wavefunction(s)  5P 4F renormalized
 
     R & G space division:  proc/nbgrp/npool/nimage =      36
     Subspace diagonalization in iterative solution of the eigenvalue problem:
     one sub-group per band group will be used
     scalapack distributed-memory algorithm (size of sub-group:  6*  6 procs)

 
     Parallelization info
     --------------------
     sticks:   dense  smooth     PW     G-vecs:    dense   smooth      PW
     Min         586     335     89               165416    71459    9765
     Max         587     337     90               165425    71461    9778
     Sum       21109   12085   3205              5955087  2572543  351657
 
     Using Slab Decomposition
 


     bravais-lattice index     =            0
     lattice parameter (alat)  =      23.8395  a.u.
     unit-cell volume          =   28182.8498 (a.u.)^3
     number of atoms/cell      =          148
     number of atomic types    =            3
     number of electrons       =      1376.00
     number of Kohn-Sham states=          826
     kinetic-energy cutoff     =      77.0000  Ry
     charge density cutoff     =     539.0000  Ry
     scf convergence threshold =      1.0E-06
     mixing beta               =       0.2000
     number of iterations used =            8  plain     mixing
     energy convergence thresh.=      1.0E-04
     force convergence thresh. =      1.0E-03
     Exchange-correlation= SLA  PW   PBX  PBC
                           (   1   4   3   4   0   0   0)
     nstep                     =         1000


     Effective Screening Medium Method
     =================================
     Boundary Conditions: Vacuum-Slab-Vacuum
     total charge in unit cell        =   0.0000
     grid points for fit at edges     =        4 
 

     celldm(1)=  23.839504  celldm(2)=   0.000000  celldm(3)=   0.000000
     celldm(4)=   0.000000  celldm(5)=   0.000000  celldm(6)=   0.000000

     crystal axes: (cart. coord. in units of alat)
               a(1) = (   1.000000   0.000000   0.000000 )  
               a(2) = (  -0.500001   0.866026   0.000000 )  
               a(3) = (   0.000000   0.000000   2.401941 )  

     reciprocal axes: (cart. coord. in units 2 pi/alat)
               b(1) = (  1.000000  0.577351  0.000000 )  
               b(2) = (  0.000000  1.154700  0.000000 )  
               b(3) = (  0.000000  0.000000  0.416330 )  


     PseudoPot. # 1 for Mo read from file:
     ./pseudo/Mo.pbe-spn-kjpaw_psl.1.0.0.UPF
     MD5 check sum: 317bf72632116215fd98f72de1686f13
     Pseudo is Projector augmented-wave + core cor, Zval = 14.0
     Generated using 'atomic' code by A. Dal Corso  v.7.2
     Shape of augmentation charge: PSQ
     Using radial grid of 1229 points,  6 beta functions with: 
                l(1) =   0
                l(2) =   0
                l(3) =   1
                l(4) =   1
                l(5) =   2
                l(6) =   2
     Q(r) pseudized with 0 coefficients 


     PseudoPot. # 2 for S  read from file:
     ./pseudo/S.pbe-n-kjpaw_psl.1.0.0.UPF
     MD5 check sum: 8b7b5302570d38d5e87fed6a1065abda
     Pseudo is Projector augmented-wave + core cor, Zval =  6.0
     Generated using 'atomic' code by A. Dal Corso  v.7.2
     Shape of augmentation charge: PSQ
     Using radial grid of 1151 points,  6 beta functions with: 
                l(1) =   0
                l(2) =   0
                l(3) =   1
                l(4) =   1
                l(5) =   2
                l(6) =   2
     Q(r) pseudized with 0 coefficients 


     PseudoPot. # 3 for Pt read from file:
     ./pseudo/Pt.pbe-spfn-kjpaw_psl.1.0.0.UPF
     MD5 check sum: 620096ebf4e6ebacc94de60fd67efcb5
     Pseudo is Projector augmented-wave + core cor, Zval = 32.0
     Generated using 'atomic' code by A. Dal Corso  v.7.2
     Shape of augmentation charge: PSQ
     Using radial grid of 1277 points,  8 beta functions with: 
                l(1) =   0
                l(2) =   0
                l(3) =   1
                l(4) =   1
                l(5) =   2
                l(6) =   2
                l(7) =   3
                l(8) =   3
     Q(r) pseudized with 0 coefficients 


     atomic species   valence    mass     pseudopotential
     Mo               14.00    95.95000     Mo( 1.00)
     S                 6.00    32.06000     S ( 1.00)
     Pt               32.00   195.08400     Pt( 1.00)

     No symmetry found



   Cartesian axes

     site n.     atom                  positions (alat units)
         1        Mo     tau(   1) = (   0.1238817   0.2144060   0.4829644  )
         2        Mo     tau(   2) = (   0.1250004   0.0721694  -0.4825273  )
         3        Mo     tau(   3) = (   0.0000256   0.1442035   0.0000796  )
         4        S      tau(   4) = (   0.0000004   0.0000006  -0.6064556  )
         5        S      tau(   5) = (   0.1250097   0.0720522  -0.1240500  )
         6        S      tau(   6) = (  -0.0004206   0.1433956   0.3580178  )
         7        S      tau(   7) = (   0.0000004   0.0000005  -0.3584711  )
         8        S      tau(   8) = (   0.1250445   0.0720096   0.1242925  )
         9        S      tau(   9) = (  -0.0008046   0.1435983   0.6079781  )
        10        Mo     tau(  10) = (  -0.0013875   0.4315866   0.4833102  )
        11        Mo     tau(  11) = (   0.0000001   0.2886759  -0.4825273  )
        12        Mo     tau(  12) = (  -0.1250077   0.3607047   0.0000594  )
        13        S      tau(  13) = (  -0.1249999   0.2165071  -0.6064556  )
        14        S      tau(  14) = (   0.0000390   0.2885691  -0.1239926  )
        15        S      tau(  15) = (  -0.1255996   0.3596930   0.3583770  )
        16        S      tau(  16) = (  -0.1249998   0.2165070  -0.3584711  )
        17        S      tau(  17) = (  -0.0000192   0.2885208   0.1243251  )
        18        S      tau(  18) = (  -0.1263320   0.3593409   0.6072598  )
        19        Mo     tau(  19) = (  -0.1262636   0.6482146   0.4823223  )
        20        Mo     tau(  20) = (  -0.1250002   0.5051824  -0.4825273  )
        21        Mo     tau(  21) = (  -0.2500120   0.5772319  -0.0000175  )
        22        S      tau(  22) = (  -0.2500002   0.4330136  -0.6064556  )
        23        S      tau(  23) = (  -0.1249381   0.5050594  -0.1240340  )
        24        S      tau(  24) = (  -0.2504244   0.5762414   0.3579604  )
        25        S      tau(  25) = (  -0.2500001   0.4330135  -0.3584711  )
        26        S      tau(  26) = (  -0.1251017   0.5050310   0.1242390  )
        27        S      tau(  27) = (  -0.2495840   0.5760644   0.6077972  )
        28        Mo     tau(  28) = (   0.2497023  -0.0010309   0.4823911  )
        29        Mo     tau(  29) = (  -0.2500004   0.7216889  -0.4825273  )
        30        Mo     tau(  30) = (  -0.3749999   0.7937263   0.0000496  )
        31        S      tau(  31) = (  -0.3750004   0.6495201  -0.6064556  )
        32        S      tau(  32) = (  -0.2499875   0.7215946  -0.1240833  )
        33        S      tau(  33) = (  -0.3751537   0.7929010   0.3583254  )
        34        S      tau(  34) = (  -0.3750004   0.6495200  -0.3584711  )
        35        S      tau(  35) = (  -0.2500092   0.7215442   0.1242511  )
        36        S      tau(  36) = (  -0.3747635   0.7931826   0.6069631  )
        37        Mo     tau(  37) = (   0.3754961   0.2141741   0.4831559  )
        38        Mo     tau(  38) = (   0.3750004   0.0721694  -0.4825273  )
        39        Mo     tau(  39) = (   0.2500101   0.1442182   0.0000535  )
        40        S      tau(  40) = (   0.2500004   0.0000006  -0.6064556  )
        41        S      tau(  41) = (   0.3749901   0.0720319  -0.1240803  )
        42        S      tau(  42) = (   0.2497178   0.1431538   0.3583206  )
        43        S      tau(  43) = (   0.2500004   0.0000005  -0.3584711  )
        44        S      tau(  44) = (   0.3750066   0.0720435   0.1242534  )
        45        S      tau(  45) = (   0.2496606   0.1426561   0.6069640  )
        46        Mo     tau(  46) = (   0.2495993   0.4272973   0.4822565  )
        47        Mo     tau(  47) = (   0.2500001   0.2886759  -0.4825273  )
        48        Mo     tau(  48) = (   0.1250102   0.3607283   0.0001586  )
        49        S      tau(  49) = (   0.1250001   0.2165071  -0.6064556  )
        50        S      tau(  50) = (   0.2499701   0.2885883  -0.1240096  )
        51        S      tau(  51) = (   0.1239154   0.3586113   0.3594465  )
        52        S      tau(  52) = (   0.1250002   0.2165070  -0.3584711  )
        53        S      tau(  53) = (   0.2500526   0.2885346   0.1243611  )
        54        S      tau(  54) = (   0.1195196   0.3555405   0.6112564  )
        55        Mo     tau(  55) = (   0.1203417   0.6510154   0.4792411  )
        56        Mo     tau(  56) = (   0.1249998   0.5051824  -0.4825273  )
        57        Mo     tau(  57) = (   0.0000077   0.5772149   0.0001586  )
        58        S      tau(  58) = (  -0.0000002   0.4330136  -0.6064556  )
        59        S      tau(  59) = (   0.1250268   0.5050811  -0.1239043  )
        60        S      tau(  60) = (  -0.0025311   0.5754581   0.3577288  )
        61        S      tau(  61) = (  -0.0000001   0.4330135  -0.3584711  )
        62        S      tau(  62) = (   0.1249932   0.5050330   0.1244852  )
        63        S      tau(  63) = (  -0.0040416   0.5754341   0.6094523  )
        64        Mo     tau(  64) = (   0.4994595  -0.0000596   0.4823184  )
        65        Mo     tau(  65) = (  -0.0000004   0.7216889  -0.4825273  )
        66        Mo     tau(  66) = (  -0.1249932   0.7937287   0.0000604  )
        67        S      tau(  67) = (  -0.1250004   0.6495201  -0.6064556  )
        68        S      tau(  68) = (   0.0000513   0.7215445  -0.1239569  )
        69        S      tau(  69) = (  -0.1256212   0.7930197   0.3579421  )
        70        S      tau(  70) = (  -0.1250004   0.6495200  -0.3584711  )
        71        S      tau(  71) = (  -0.0000272   0.7215704   0.1243964  )
        72        S      tau(  72) = (  -0.1254901   0.7929296   0.6063861  )
        73        Mo     tau(  73) = (   0.6246193   0.2154083   0.4826643  )
        74        Mo     tau(  74) = (   0.6250004   0.0721694  -0.4825273  )
        75        Mo     tau(  75) = (   0.4999934   0.1442207  -0.0000136  )
        76        S      tau(  76) = (   0.5000004   0.0000006  -0.6064556  )
        77        S      tau(  77) = (   0.6250399   0.0720058  -0.1240328  )
        78        S      tau(  78) = (   0.4997236   0.1434645   0.3579511  )
        79        S      tau(  79) = (   0.5000004   0.0000005  -0.3584711  )
        80        S      tau(  80) = (   0.6249698   0.0721306   0.1242427  )
        81        S      tau(  81) = (   0.5002788   0.1428004   0.6077981  )
        82        Mo     tau(  82) = (   0.5008019   0.4313526   0.4841476  )
        83        Mo     tau(  83) = (   0.5000001   0.2886759  -0.4825273  )
        84        Mo     tau(  84) = (   0.3750083   0.3607269   0.0000506  )
        85        S      tau(  85) = (   0.3750001   0.2165071  -0.6064556  )
        86        S      tau(  86) = (   0.4999812   0.2885668  -0.1241036  )
        87        S      tau(  87) = (   0.3756478   0.3585378   0.3598773  )
        88        S      tau(  88) = (   0.3750002   0.2165070  -0.3584711  )
        89        S      tau(  89) = (   0.5000160   0.2885379   0.1242273  )
        90        S      tau(  90) = (   0.3800156   0.3551163   0.6117342  )
        91        Mo     tau(  91) = (   0.3787091   0.6509366   0.4822331  )
        92        Mo     tau(  92) = (   0.3749998   0.5051824  -0.4825273  )
        93        Mo     tau(  93) = (   0.2500102   0.5772236   0.0002250  )
        94        S      tau(  94) = (   0.2499998   0.4330136  -0.6064556  )
        95        S      tau(  95) = (   0.3749348   0.5051037  -0.1239984  )
        96        S      tau(  96) = (   0.2507382   0.5757282   0.3605262  )
        97        S      tau(  97) = (   0.2499999   0.4330135  -0.3584711  )
        98        S      tau(  98) = (   0.3750960   0.5049969   0.1243761  )
        99        S      tau(  99) = (   0.2477737   0.5774450   0.5939554  )
       100        Mo     tau( 100) = (   0.7495025   0.0001217   0.4833065  )
       101        Mo     tau( 101) = (   0.2499996   0.7216889  -0.4825273  )
       102        Mo     tau( 102) = (   0.1250158   0.7937355   0.0001590  )
       103        S      tau( 103) = (   0.1249996   0.6495201  -0.6064556  )
       104        S      tau( 104) = (   0.2500009   0.7215454  -0.1239061  )
       105        S      tau( 105) = (   0.1243439   0.7952155   0.3577197  )
       106        S      tau( 106) = (   0.1249996   0.6495200  -0.3584711  )
       107        S      tau( 107) = (   0.2500135   0.7215724   0.1244828  )
       108        S      tau( 108) = (   0.1235908   0.7964970   0.6094526  )
       109        Mo     tau( 109) = (  -0.1252991   0.2154845   0.4826590  )
       110        Mo     tau( 110) = (   0.8750004   0.0721694  -0.4825273  )
       111        Mo     tau( 111) = (   0.7500126   0.1442318   0.0000588  )
       112        S      tau( 112) = (   0.7500004   0.0000006  -0.6064556  )
       113        S      tau( 113) = (   0.8750157   0.0720233  -0.1239945  )
       114        S      tau( 114) = (   0.7496708   0.1436580   0.3583773  )
       115        S      tau( 115) = (   0.7500004   0.0000005  -0.3584711  )
       116        S      tau( 116) = (   0.8750111   0.0720661   0.1243223  )
       117        S      tau( 117) = (   0.7495946   0.1444401   0.6072607  )
       118        Mo     tau( 118) = (  -0.2502783   0.4320906   0.4826647  )
       119        Mo     tau( 119) = (   0.7500001   0.2886759  -0.4825273  )
       120        Mo     tau( 120) = (   0.6250024   0.3607197  -0.0000144  )
       121        S      tau( 121) = (   0.6250001   0.2165071  -0.6064556  )
       122        S      tau( 122) = (   0.7500378   0.2885409  -0.1240679  )
       123        S      tau( 123) = (   0.6246262   0.3598708   0.3586125  )
       124        S      tau( 124) = (   0.6250002   0.2165070  -0.3584711  )
       125        S      tau( 125) = (   0.7499503   0.2885714   0.1242916  )
       126        S      tau( 126) = (   0.6261683   0.3589654   0.6075146  )
       127        Mo     tau( 127) = (  -0.3737791   0.6484545   0.4831587  )
       128        Mo     tau( 128) = (   0.6249998   0.5051824  -0.4825273  )
       129        Mo     tau( 129) = (   0.4999982   0.5772203   0.0000455  )
       130        S      tau( 130) = (   0.4999998   0.4330136  -0.6064556  )
       131        S      tau( 131) = (   0.6249835   0.5050786  -0.1241068  )
       132        S      tau( 132) = (   0.5012985   0.5761538   0.3598656  )
       133        S      tau( 133) = (   0.4999999   0.4330135  -0.3584711  )
       134        S      tau( 134) = (   0.6250078   0.5050377   0.1242234  )
       135        S      tau( 135) = (   0.5063903   0.5740773   0.6117172  )
       136        Mo     tau( 136) = (   0.0002139   0.0002234   0.4829627  )
       137        Mo     tau( 137) = (   0.4999996   0.7216889  -0.4825273  )
       138        Mo     tau( 138) = (   0.3749992   0.7937267   0.0001537  )
       139        S      tau( 139) = (   0.3749996   0.6495201  -0.6064556  )
       140        S      tau( 140) = (   0.4999598   0.7215890  -0.1240151  )
       141        S      tau( 141) = (   0.3753549   0.7941519   0.3594268  )
       142        S      tau( 142) = (   0.3749996   0.6495200  -0.3584711  )
       143        S      tau( 143) = (   0.5000304   0.7215162   0.1243550  )
       144        S      tau( 144) = (   0.3757998   0.7994070   0.6112412  )
       145        Pt     tau( 145) = (   0.2514151   0.4458369   0.7157491  )
       146        Pt     tau( 146) = (   0.3634811   0.6399696   0.7158407  )
       147        Pt     tau( 147) = (   0.1415423   0.6386756   0.7230340  )
       148        Pt     tau( 148) = (  -0.0014268   0.4316180   0.7301439  )

     --------------------------------------------
     DFT-D3 Dispersion Correction (3-body terms):
     --------------------------------------------
       Reference C6 values for interpolation: 

         atom   Coordination number   C6
         S          0.000           268.01
         S          0.995           261.99
         S          1.990           251.62
         Mo         0.000          1691.79
         Mo         1.942          1004.01
         Mo        11.056           674.22
         Pt         0.000           782.29
         Pt         1.919           692.72
         Pt         6.667           673.75

       Values used:

         atom   Coordination number  R0_AB[au]  C6      C8
         Mo        10.265            3.547    674.22  77634.20
         Mo        10.189            3.547    674.22  77634.20
         Mo        10.201            3.547    674.22  77634.20
         S          3.753            3.128    251.62  12327.25
         S          3.858            3.128    251.62  12327.25
         S          3.866            3.128    251.62  12327.25
         S          3.858            3.128    251.62  12327.25
         S          3.859            3.128    251.62  12327.25
         S          3.828            3.128    251.62  12327.25
         Mo        10.740            3.547    674.22  77634.20
         Mo        10.189            3.547    674.22  77634.20
         Mo        10.201            3.547    674.22  77634.20
         S          3.753            3.128    251.62  12327.25
         S          3.858            3.128    251.62  12327.25
         S          3.872            3.128    251.62  12327.25
         S          3.858            3.128    251.62  12327.25
         S          3.858            3.128    251.62  12327.25
         S          4.766            3.128    251.62  12327.25
         Mo        10.278            3.547    674.22  77634.20
         Mo        10.189            3.547    674.22  77634.20
         Mo        10.201            3.547    674.22  77634.20
         S          3.753            3.128    251.62  12327.25
         S          3.858            3.128    251.62  12327.25
         S          3.873            3.128    251.62  12327.25
         S          3.858            3.128    251.62  12327.25
         S          3.861            3.128    251.62  12327.25
         S          3.817            3.128    251.62  12327.25
         Mo        10.232            3.547    674.22  77634.20
         Mo        10.189            3.547    674.22  77634.20
         Mo        10.201            3.547    674.22  77634.20
         S          3.753            3.128    251.62  12327.25
         S          3.857            3.128    251.62  12327.25
         S          3.868            3.128    251.62  12327.25
         S          3.858            3.128    251.62  12327.25
         S          3.860            3.128    251.62  12327.25
         S          3.772            3.128    251.62  12327.25
         Mo        10.254            3.547    674.22  77634.20
         Mo        10.189            3.547    674.22  77634.20
         Mo        10.201            3.547    674.22  77634.20
         S          3.753            3.128    251.62  12327.25
         S          3.857            3.128    251.62  12327.25
         S          3.868            3.128    251.62  12327.25
         S          3.858            3.128    251.62  12327.25
         S          3.860            3.128    251.62  12327.25
         S          3.773            3.128    251.62  12327.25
         Mo        10.722            3.547    674.22  77634.20
         Mo        10.189            3.547    674.22  77634.20
         Mo        10.201            3.547    674.22  77634.20
         S          3.753            3.128    251.62  12327.25
         S          3.858            3.128    251.62  12327.25
         S          3.834            3.128    251.62  12327.25
         S          3.858            3.128    251.62  12327.25
         S          3.855            3.128    251.62  12327.25
         S          5.627            3.128    251.62  12327.25
         Mo        10.588            3.547    674.22  77634.20
         Mo        10.189            3.547    674.22  77634.20
         Mo        10.200            3.547    674.22  77634.20
         S          3.753            3.128    251.62  12327.25
         S          3.859            3.128    251.62  12327.25
         S          3.828            3.128    251.62  12327.25
         S          3.858            3.128    251.62  12327.25
         S          3.851            3.128    251.62  12327.25
         S          5.616            3.128    251.62  12327.25
         Mo        10.269            3.547    674.22  77634.20
         Mo        10.189            3.547    674.22  77634.20
         Mo        10.201            3.547    674.22  77634.20
         S          3.753            3.128    251.62  12327.25
         S          3.858            3.128    251.62  12327.25
         S          3.867            3.128    251.62  12327.25
         S          3.858            3.128    251.62  12327.25
         S          3.858            3.128    251.62  12327.25
         S          3.780            3.128    251.62  12327.25
         Mo        10.250            3.547    674.22  77634.20
         Mo        10.189            3.547    674.22  77634.20
         Mo        10.201            3.547    674.22  77634.20
         S          3.753            3.128    251.62  12327.25
         S          3.858            3.128    251.62  12327.25
         S          3.873            3.128    251.62  12327.25
         S          3.858            3.128    251.62  12327.25
         S          3.861            3.128    251.62  12327.25
         S          3.805            3.128    251.62  12327.25
         Mo        10.184            3.547    674.22  77634.20
         Mo        10.189            3.547    674.22  77634.20
         Mo        10.201            3.547    674.22  77634.20
         S          3.753            3.128    251.62  12327.25
         S          3.857            3.128    251.62  12327.25
         S          3.838            3.128    251.62  12327.25
         S          3.858            3.128    251.62  12327.25
         S          3.859            3.128    251.62  12327.25
         S          4.654            3.128    251.62  12327.25
         Mo        10.711            3.547    674.22  77634.20
         Mo        10.189            3.547    674.22  77634.20
         Mo        10.201            3.547    674.22  77634.20
         S          3.753            3.128    251.62  12327.25
         S          3.858            3.128    251.62  12327.25
         S          3.913            3.128    251.62  12327.25
         S          3.858            3.128    251.62  12327.25
         S          3.851            3.128    251.62  12327.25
         S          6.714            3.128    251.62  12327.25
         Mo        10.199            3.547    674.22  77634.20
         Mo        10.189            3.547    674.22  77634.20
         Mo        10.200            3.547    674.22  77634.20
         S          3.753            3.128    251.62  12327.25
         S          3.859            3.128    251.62  12327.25
         S          3.827            3.128    251.62  12327.25
         S          3.858            3.128    251.62  12327.25
         S          3.851            3.128    251.62  12327.25
         S          4.653            3.128    251.62  12327.25
         Mo        10.256            3.547    674.22  77634.20
         Mo        10.189            3.547    674.22  77634.20
         Mo        10.201            3.547    674.22  77634.20
         S          3.753            3.128    251.62  12327.25
         S          3.858            3.128    251.62  12327.25
         S          3.871            3.128    251.62  12327.25
         S          3.858            3.128    251.62  12327.25
         S          3.858            3.128    251.62  12327.25
         S          3.810            3.128    251.62  12327.25
         Mo        10.259            3.547    674.22  77634.20
         Mo        10.189            3.547    674.22  77634.20
         Mo        10.202            3.547    674.22  77634.20
         S          3.753            3.128    251.62  12327.25
         S          3.857            3.128    251.62  12327.25
         S          3.868            3.128    251.62  12327.25
         S          3.858            3.128    251.62  12327.25
         S          3.859            3.128    251.62  12327.25
         S          3.817            3.128    251.62  12327.25
         Mo        10.254            3.547    674.22  77634.20
         Mo        10.189            3.547    674.22  77634.20
         Mo        10.201            3.547    674.22  77634.20
         S          3.753            3.128    251.62  12327.25
         S          3.857            3.128    251.62  12327.25
         S          3.838            3.128    251.62  12327.25
         S          3.858            3.128    251.62  12327.25
         S          3.859            3.128    251.62  12327.25
         S          4.653            3.128    251.62  12327.25
         Mo        10.256            3.547    674.22  77634.20
         Mo        10.189            3.547    674.22  77634.20
         Mo        10.201            3.547    674.22  77634.20
         S          3.753            3.128    251.62  12327.25
         S          3.858            3.128    251.62  12327.25
         S          3.833            3.128    251.62  12327.25
         S          3.858            3.128    251.62  12327.25
         S          3.855            3.128    251.62  12327.25
         S          4.657            3.128    251.62  12327.25
         Pt         5.479            3.168    673.75  70061.90
         Pt         5.221            3.168    673.75  70061.90
         Pt         5.298            3.168    673.75  70061.90
         Pt         4.074            3.168    692.72  72034.74

         Molecular C6 ( Ry / a.u.^6 ) =   8244384.68


     number of k points=     4  Gaussian smearing, width (Ry)=  0.0100
                       cart. coord. in units 2pi/alat
        k(    1) = (   0.0000000   0.0000000   0.0000000), wk =   0.5000000
        k(    2) = (   0.0000000  -0.5773499   0.0000000), wk =   0.5000000
        k(    3) = (  -0.5000000  -0.2886755   0.0000000), wk =   0.5000000
        k(    4) = (  -0.5000000  -0.8660254   0.0000000), wk =   0.5000000

     Dense  grid:  5955087 G-vectors     FFT dimensions: ( 180, 180, 432)

     Smooth grid:  2572543 G-vectors     FFT dimensions: ( 135, 135, 320)

     Estimated max dynamical RAM per process >       3.10 GB

     Estimated total dynamical RAM >     111.69 GB

     Initial potential from superposition of free atoms

     starting charge    1375.9541, renormalised to    1376.0000

     negative rho (up, down):  6.924E-04 0.000E+00
     Starting wfcs are  932 randomized atomic wfcs
     Checking if some PAW data can be deallocated... 

     total cpu time spent up to now is      104.5 secs

     Self-consistent Calculation

     iteration #  1     ecut=    77.00 Ry     beta= 0.20
     Davidson diagonalization with overlap
     ethr =  1.00E-02,  avg # of iterations =  2.0

     Threshold (ethr) on eigenvalues was too large:
     Diagonalizing with lowered threshold

     Davidson diagonalization with overlap
     ethr =  1.61E-04,  avg # of iterations = 16.8

     negative rho (up, down):  2.028E-04 0.000E+00

     total cpu time spent up to now is     1255.7 secs

     total energy              =  -30543.74847563 Ry
     estimated scf accuracy    <       4.95392767 Ry

     iteration #  2     ecut=    77.00 Ry     beta= 0.20
     Davidson diagonalization with overlap
     ethr =  3.60E-04,  avg # of iterations =  1.0

     negative rho (up, down):  3.108E-05 0.000E+00

     total cpu time spent up to now is     1467.4 secs

     total energy              =  -30542.77467280 Ry
     estimated scf accuracy    <       2.63661424 Ry

     iteration #  3     ecut=    77.00 Ry     beta= 0.20
     Davidson diagonalization with overlap
     ethr =  1.92E-04,  avg # of iterations = 11.5

     negative rho (up, down):  1.883E-05 0.000E+00

     total cpu time spent up to now is     1757.4 secs

     total energy              =  -30542.99633909 Ry
     estimated scf accuracy    <       0.92314079 Ry

     iteration #  4     ecut=    77.00 Ry     beta= 0.20
     Davidson diagonalization with overlap
     c_bands:  1 eigenvalues not converged
     c_bands:  1 eigenvalues not converged
     c_bands:  1 eigenvalues not converged
     ethr =  6.71E-05,  avg # of iterations = 19.8

     negative rho (up, down):  3.665E-05 0.000E+00

     total cpu time spent up to now is     2375.7 secs

     total energy              =  -30543.57912718 Ry
     estimated scf accuracy    <       0.65392049 Ry

     iteration #  5     ecut=    77.00 Ry     beta= 0.20
     Davidson diagonalization with overlap
     ethr =  4.75E-05,  avg # of iterations =  6.2

     negative rho (up, down):  4.768E-05 0.000E+00

     total cpu time spent up to now is     2623.3 secs

     total energy              =  -30543.65724551 Ry
     estimated scf accuracy    <       0.15005006 Ry

     iteration #  6     ecut=    77.00 Ry     beta= 0.20
     Davidson diagonalization with overlap
     c_bands:  2 eigenvalues not converged
     c_bands:  2 eigenvalues not converged
     c_bands:  1 eigenvalues not converged
     ethr =  1.09E-05,  avg # of iterations = 19.0

     negative rho (up, down):  9.403E-05 0.000E+00

     total cpu time spent up to now is     3193.3 secs

     total energy              =  -30543.76385793 Ry
     estimated scf accuracy    <       0.08857246 Ry

     iteration #  7     ecut=    77.00 Ry     beta= 0.20
     Davidson diagonalization with overlap
     c_bands:  5 eigenvalues not converged
     c_bands:  5 eigenvalues not converged
     ethr =  6.44E-06,  avg # of iterations = 16.2

     negative rho (up, down):  2.720E-04 0.000E+00

     total cpu time spent up to now is     3510.5 secs

     total energy              =  -30543.76863732 Ry
     estimated scf accuracy    <       0.05800210 Ry

     iteration #  8     ecut=    77.00 Ry     beta= 0.20
     Davidson diagonalization with overlap
     c_bands:  3 eigenvalues not converged
     ethr =  4.22E-06,  avg # of iterations = 21.5

     negative rho (up, down):  4.557E-04 0.000E+00

     total cpu time spent up to now is     3957.7 secs

     total energy              =  -30543.78760712 Ry
     estimated scf accuracy    <       0.01092828 Ry

     iteration #  9     ecut=    77.00 Ry     beta= 0.20
     Davidson diagonalization with overlap
     c_bands:  7 eigenvalues not converged
     c_bands:  3 eigenvalues not converged
     c_bands:  6 eigenvalues not converged
     ethr =  7.94E-07,  avg # of iterations = 78.8

     negative rho (up, down):  4.485E-04 0.000E+00

     total cpu time spent up to now is     5481.0 secs

     total energy              =  -30543.80609567 Ry
     estimated scf accuracy    <       0.01269322 Ry

     iteration # 10     ecut=    77.00 Ry     beta= 0.20
     Davidson diagonalization with overlap
     c_bands:  5 eigenvalues not converged
     c_bands:  2 eigenvalues not converged
     c_bands:  5 eigenvalues not converged
     ethr =  7.94E-07,  avg # of iterations = 40.5

     negative rho (up, down):  4.810E-04 0.000E+00

     total cpu time spent up to now is     6042.1 secs

     total energy              =  -30543.80492965 Ry
     estimated scf accuracy    <       0.00478740 Ry

     iteration # 11     ecut=    77.00 Ry     beta= 0.20
     Davidson diagonalization with overlap
     c_bands:  5 eigenvalues not converged
     c_bands:  3 eigenvalues not converged
     c_bands:  4 eigenvalues not converged
     ethr =  3.48E-07,  avg # of iterations = 19.2

     negative rho (up, down):  5.657E-04 0.000E+00

     total cpu time spent up to now is     6469.2 secs

     total energy              =  -30543.80744570 Ry
     estimated scf accuracy    <       0.00121613 Ry

     iteration # 12     ecut=    77.00 Ry     beta= 0.20
     Davidson diagonalization with overlap
     c_bands:  1 eigenvalues not converged
     c_bands:  5 eigenvalues not converged
     c_bands:  4 eigenvalues not converged
     c_bands:  4 eigenvalues not converged
     ethr =  8.84E-08,  avg # of iterations = 20.0

     negative rho (up, down):  6.684E-04 0.000E+00

     total cpu time spent up to now is     7074.0 secs

     total energy              =  -30543.80753128 Ry
     estimated scf accuracy    <       0.00282781 Ry

     iteration # 13     ecut=    77.00 Ry     beta= 0.20
     Davidson diagonalization with overlap
     c_bands:  4 eigenvalues not converged
     c_bands:  4 eigenvalues not converged
     c_bands:  5 eigenvalues not converged
     ethr =  8.84E-08,  avg # of iterations = 22.0

     negative rho (up, down):  8.007E-04 0.000E+00

     total cpu time spent up to now is     7473.8 secs

     total energy              =  -30543.80770911 Ry
     estimated scf accuracy    <       0.00033338 Ry

     iteration # 14     ecut=    77.00 Ry     beta= 0.20
     Davidson diagonalization with overlap
     c_bands:  1 eigenvalues not converged
     c_bands:  1 eigenvalues not converged
     c_bands:  2 eigenvalues not converged
     ethr =  2.42E-08,  avg # of iterations = 19.0

     negative rho (up, down):  8.061E-04 0.000E+00

     total cpu time spent up to now is     8183.6 secs

     total energy              =  -30543.80802173 Ry
     estimated scf accuracy    <       0.00122286 Ry

     iteration # 15     ecut=    77.00 Ry     beta= 0.20
     Davidson diagonalization with overlap
     ethr =  2.42E-08,  avg # of iterations =  6.0

     negative rho (up, down):  8.040E-04 0.000E+00

     total cpu time spent up to now is     8453.6 secs

     total energy              =  -30543.80781667 Ry
     estimated scf accuracy    <       0.00036804 Ry

     iteration # 16     ecut=    77.00 Ry     beta= 0.20
     Davidson diagonalization with overlap
     ethr =  2.42E-08,  avg # of iterations = 10.0

     negative rho (up, down):  8.299E-04 0.000E+00

     total cpu time spent up to now is     8940.9 secs

     total energy              =  -30543.80814133 Ry
     estimated scf accuracy    <       0.00037105 Ry

     iteration # 17     ecut=    77.00 Ry     beta= 0.20
     Davidson diagonalization with overlap
     ethr =  2.42E-08,  avg # of iterations =  1.0

     negative rho (up, down):  8.525E-04 0.000E+00

     total cpu time spent up to now is     9151.8 secs

     total energy              =  -30543.80806884 Ry
     estimated scf accuracy    <       0.00015745 Ry

     iteration # 18     ecut=    77.00 Ry     beta= 0.20
     Davidson diagonalization with overlap
     ethr =  1.14E-08,  avg # of iterations =  5.0

     negative rho (up, down):  8.720E-04 0.000E+00

     total cpu time spent up to now is     9398.0 secs

     total energy              =  -30543.80805277 Ry
     estimated scf accuracy    <       0.00003266 Ry

     iteration # 19     ecut=    77.00 Ry     beta= 0.20
     Davidson diagonalization with overlap
     ethr =  2.37E-09,  avg # of iterations = 16.0

     negative rho (up, down):  8.678E-04 0.000E+00

     total cpu time spent up to now is    10076.0 secs

     total energy              =  -30543.80810343 Ry
     estimated scf accuracy    <       0.00005292 Ry

     iteration # 20     ecut=    77.00 Ry     beta= 0.20
     Davidson diagonalization with overlap
     ethr =  2.37E-09,  avg # of iterations =  1.2

     negative rho (up, down):  8.652E-04 0.000E+00

     total cpu time spent up to now is    10291.5 secs

     total energy              =  -30543.80809776 Ry
     estimated scf accuracy    <       0.00002254 Ry

     iteration # 21     ecut=    77.00 Ry     beta= 0.20
     Davidson diagonalization with overlap
     ethr =  1.64E-09,  avg # of iterations =  8.8

     negative rho (up, down):  8.656E-04 0.000E+00

     total cpu time spent up to now is    10553.4 secs

     total energy              =  -30543.80809529 Ry
     estimated scf accuracy    <       0.00000807 Ry

     iteration # 22     ecut=    77.00 Ry     beta= 0.20
     Davidson diagonalization with overlap
     ethr =  5.87E-10,  avg # of iterations = 17.0

     negative rho (up, down):  8.705E-04 0.000E+00

     total cpu time spent up to now is    11214.6 secs

     total energy              =  -30543.80810474 Ry
     estimated scf accuracy    <       0.00000852 Ry

     iteration # 23     ecut=    77.00 Ry     beta= 0.20
     Davidson diagonalization with overlap
     ethr =  5.87E-10,  avg # of iterations =  3.8

     negative rho (up, down):  8.736E-04 0.000E+00

     total cpu time spent up to now is    11455.2 secs

     total energy              =  -30543.80810340 Ry
     estimated scf accuracy    <       0.00000164 Ry

     iteration # 24     ecut=    77.00 Ry     beta= 0.20
     Davidson diagonalization with overlap
     ethr =  1.19E-10,  avg # of iterations = 16.5

     negative rho (up, down):  8.755E-04 0.000E+00

     total cpu time spent up to now is    12143.3 secs

     End of self-consistent calculation

          k = 0.0000 0.0000 0.0000 (321495 PWs)   bands (ev):

  -103.0082-102.9347-102.8032-102.4815 -71.3653 -71.3482 -71.3411 -71.3185
   -71.3026 -71.3019 -71.2809 -71.2788 -71.2736 -71.2688 -71.2424 -71.2281
   -71.2017 -71.1936 -71.1811 -71.1561 -71.1516 -71.1114 -71.0940 -71.0702
   -71.0634 -70.8332 -70.8277 -70.8009 -70.7870 -70.7810 -70.7621 -70.7491
   -66.8369 -66.8158 -66.8158 -66.8158 -66.8158 -66.8158 -66.8158 -66.7947
   -66.7947 -66.7946 -66.7946 -66.7946 -66.7946 -66.7946 -66.7946 -66.7946
   -66.7712 -66.7507 -66.7505 -66.7503 -66.7499 -66.7497 -66.7494 -66.7299
   -66.7298 -66.7292 -66.7290 -66.7287 -66.7286 -66.7285 -66.7283 -66.7280
   -66.6896 -66.6831 -66.6700 -66.6672 -66.6662 -66.6504 -66.6479 -66.6397
   -66.6328 -66.6275 -66.6248 -66.6202 -66.6166 -66.6093 -66.6052 -66.6011
   -57.3729 -57.2813 -57.1984 -57.1639 -57.1158 -57.0775 -57.0269 -56.9361
   -56.8872 -56.7412 -56.7157 -56.6476 -41.1634 -41.1634 -41.1634 -41.0964
   -41.0964 -41.0963 -41.0886 -41.0886 -41.0886 -41.0886 -41.0886 -41.0886
   -41.0218 -41.0218 -41.0216 -41.0216 -41.0214 -41.0213 -40.9995 -40.9981
   -40.9970 -40.9969 -40.9630 -40.9630 -40.9630 -40.9630 -40.9630 -40.9630
   -40.9556 -40.9556 -40.9556 -40.9556 -40.9556 -40.9556 -40.9317 -40.9313
   -40.9290 -40.9282 -40.9282 -40.9281 -40.9281 -40.9281 -40.9281 -40.9267
   -40.9179 -40.9139 -40.9139 -40.9139 -40.9139 -40.9139 -40.9139 -40.9138
   -40.9138 -40.9138 -40.9118 -40.9111 -40.8966 -40.8964 -40.8963 -40.8960
   -40.8960 -40.8958 -40.8909 -40.8907 -40.8906 -40.8902 -40.8900 -40.8898
   -40.8890 -40.8617 -40.8617 -40.8615 -40.8615 -40.8611 -40.8610 -40.8584
   -40.8503 -40.8503 -40.8503 -40.8497 -40.8496 -40.8490 -40.8488 -40.8485
   -40.8485 -40.8483 -40.8481 -40.8479 -40.8449 -40.8237 -40.8195 -40.8170
   -40.8155 -40.8044 -40.8036 -40.8035 -40.8035 -40.8035 -40.8035 -40.8035
   -40.8035 -40.7949 -40.7935 -40.7914 -40.7906 -40.7879 -40.7857 -40.7837
   -40.7837 -40.7836 -40.7777 -40.7762 -40.7736 -40.7722 -40.7693 -40.7659
   -40.7644 -40.7592 -40.7562 -40.7562 -40.7548 -40.7525 -40.7458 -40.7434
   -40.7412 -40.7372 -40.7370 -40.7370 -40.7368 -40.7368 -40.7366 -40.6897
   -40.6896 -40.6842 -40.6764 -40.6751 -40.6384 -40.6369 -40.6345 -40.6302
   -40.6231 -40.6067 -40.5794 -40.5768 -21.0303 -20.2656 -20.1536 -20.0569
   -19.7029 -19.5431 -19.4115 -19.4088 -19.4023 -19.3964 -19.3949 -19.3923
   -19.3529 -19.3443 -19.3043 -19.2571 -19.2507 -19.2461 -19.2265 -19.2237
   -19.1977 -19.0858 -19.0153 -18.8986 -18.8489 -18.7537 -18.6941 -18.6838
   -18.6737 -18.6544 -18.6082 -18.5985 -18.5631 -18.5437 -18.5358 -18.5334
   -18.5180 -18.4533 -18.4102 -18.3864 -18.3710 -18.3656 -18.3634 -18.3355
   -18.3012 -18.2964 -18.2962 -18.2961 -18.2960 -18.2958 -18.2954 -18.2669
   -18.2560 -18.2559 -18.2557 -18.2341 -18.2172 -18.2152 -18.2123 -18.2118
   -18.2106 -18.1966 -18.1828 -18.1820 -18.1809 -18.1485 -18.1238 -18.1139
   -18.1116 -18.1106 -18.1028 -18.1014 -18.1004 -18.0900 -18.0774 -18.0759
   -18.0686 -18.0679 -18.0473 -18.0441 -18.0427 -18.0414 -18.0212 -18.0111
   -18.0046 -18.0043 -18.0028 -17.9793 -17.9754 -17.9706 -17.9619 -17.9430
   -17.9321 -17.9259 -17.9096 -17.9050 -13.0522 -12.8391 -12.7789 -12.2992
   -12.1169 -11.9281 -11.9117 -11.9110 -11.9074 -11.8379 -11.8307 -11.8242
   -11.7841 -11.6834 -11.6064 -11.5835 -11.4958 -11.4684 -11.3938 -11.3682
   -11.3577 -11.3535 -11.3388 -11.3302 -11.3058 -11.2851 -11.2824 -11.2813
   -11.2796 -11.2765 -11.2735 -11.2342 -11.2292 -11.1677 -11.1612 -11.1468
   -11.1454 -11.1348 -11.1339 -11.1251 -11.1178 -11.0908 -11.0850 -11.0626
   -11.0513 -11.0350 -11.0321 -11.0283 -11.0017 -10.9998 -10.9892 -10.9877
   -10.9873 -10.9871 -10.9832 -10.9818 -10.9667 -10.9589 -10.9581 -10.9541
   -10.9496 -10.9418 -10.9413 -10.9376 -10.9328 -10.9278 -10.9157 -10.8699
   -10.8680 -10.8671 -10.8575 -10.8397 -10.8327 -10.7875 -10.7835 -10.7254
   -10.6664 -10.6608 -10.5812 -10.4325 -10.3971 -10.2978 -10.2071 -10.2027
   -10.2016 -10.1916 -10.0750 -10.0446 -10.0381 -10.0288  -9.9655  -9.9598
    -9.9503  -9.9387  -9.9357  -9.9193  -9.9024  -9.8912  -9.8847  -9.8655
    -9.8599  -9.8466  -9.8372  -9.8198  -9.8029  -9.7992  -9.7977  -9.7799
    -9.7765  -9.7762  -9.7658  -9.7608  -9.7523  -9.7321  -9.7290  -9.7288
    -9.7284  -9.7266  -9.7231  -9.6967  -9.6579  -9.6286  -9.6285  -9.6168
    -9.6052  -9.5992  -9.5939  -9.5793  -9.5582  -9.5523  -9.5408  -9.5263
    -9.5232  -9.5202  -9.5072  -9.4751  -9.4673  -9.4556  -9.4150  -9.4052
    -9.4007  -9.3958  -9.3893  -9.3626  -9.3603  -9.3340  -9.3147  -9.3025
    -9.2549  -9.2247  -9.1997  -9.1974  -9.1871  -9.1853  -9.1748  -9.1748
    -9.1743  -9.1602  -9.1545  -9.1134  -9.1037  -9.0971  -9.0931  -9.0817
    -9.0749  -9.0329  -9.0226  -8.9952  -8.9908  -8.9681  -8.9652  -8.9603
    -8.9502  -8.9494  -8.9485  -8.9411  -8.9350  -8.9213  -8.9150  -8.9100
    -8.9029  -8.8954  -8.8902  -8.8744  -8.8355  -8.7886  -8.7665  -8.7392
    -8.6193  -8.5862  -8.5862  -8.5542  -8.5446  -8.5131  -8.5131  -8.4745
    -8.4740  -8.4739  -8.4738  -8.4737  -8.4736  -8.4614  -8.4400  -8.4264
    -8.4177  -8.4031  -8.3969  -8.3962  -8.3958  -8.3946  -8.3855  -8.3711
    -8.3223  -8.2353  -8.2066  -8.1320  -8.1137  -8.0945  -8.0726  -8.0440
    -7.9953  -7.9777  -7.8859  -7.8675  -7.8500  -7.8203  -7.7787  -7.7602
    -7.7395  -7.7387  -7.7386  -7.7383  -7.7380  -7.7379  -7.7226  -7.7081
    -7.6940  -7.6923  -7.6921  -7.6917  -7.6914  -7.6904  -7.6870  -7.6706
    -7.6598  -7.6592  -7.6576  -7.6564  -7.6532  -7.6405  -7.6316  -7.6196
    -7.6188  -7.6165  -7.6161  -7.6158  -7.6101  -7.5976  -7.5879  -7.5838
    -7.5736  -7.5703  -7.5559  -7.5540  -7.5217  -7.4938  -7.4626  -7.4572
    -7.4572  -7.4493  -7.4206  -7.3931  -7.3899  -7.3828  -7.3756  -7.3506
    -7.3281  -7.2748  -7.2579  -7.1911  -7.1513  -7.1401  -7.1127  -7.1070
    -7.0928  -7.0831  -7.0130  -6.9532  -6.9521  -6.9507  -6.8986  -6.8627
    -6.8400  -6.8328  -6.8231  -6.8214  -6.8181  -6.8032  -6.7947  -6.7780
    -6.7553  -6.7448  -6.7416  -6.7272  -6.7207  -6.6965  -6.6823  -6.6765
    -6.6753  -6.6714  -6.6606  -6.6464  -6.6418  -6.6319  -6.6248  -6.6220
    -6.6143  -6.5949  -6.5888  -6.5829  -6.5715  -6.5494  -6.5441  -6.5121
    -6.5053  -6.5052  -6.5052  -6.5052  -6.5052  -6.5051  -6.4993  -6.4744
    -6.4328  -6.4317  -6.4287  -6.4268  -6.4264  -6.4254  -6.4154  -6.4064
    -6.3907  -6.3383  -6.3023  -6.2638  -6.2266  -6.0737  -5.9639  -5.8997
    -5.7785  -5.7097  -5.6151  -5.5449  -5.4836  -5.3105  -5.2784  -4.9391
    -4.3613  -4.2422  -4.1388  -4.0933  -3.9961  -3.9879  -3.9811  -3.9683
    -3.9667  -3.9646  -3.9620  -3.9557  -3.9342  -3.9298  -3.9021  -3.8901
    -3.7991  -3.7581  -3.7572  -3.7495  -3.7437  -3.7373  -3.7177  -3.7081
    -3.6457  -3.6457  -3.6457  -3.6342  -3.6293  -3.6266  -3.6260  -3.6257
    -3.6251  -3.6064  -3.6018  -3.5939  -3.5871  -3.5830  -3.5781  -3.5780
    -3.5740  -3.5488  -3.5444  -3.5267  -3.5180  -3.5141  -3.5123  -3.5075
    -3.5063  -3.4971  -3.4855  -3.4803  -3.4743  -3.4623  -3.4539  -3.4431
    -3.4214  -3.4180  -3.3765  -3.3610  -3.3100  -3.3068  -3.2971  -3.2379
    -3.1842  -3.1827  -3.1797  -3.1775  -3.1744  -3.1741  -3.1642  -3.1438
    -3.1109  -3.1089  -3.1082  -3.1081  -3.1081  -3.1079  -3.1078  -3.1072
    -3.1001  -3.0902  -3.0836  -3.0795  -3.0624  -3.0554  -3.0525  -3.0446
    -3.0413  -3.0405  -3.0374  -3.0347  -3.0334  -3.0260  -3.0221  -3.0148
    -3.0062  -2.9960  -2.9838  -2.9733  -2.9681  -2.9245  -2.9205  -2.9180
    -2.9066  -2.9019  -2.9015  -2.9009  -2.9001  -2.8927  -2.8827  -2.8517
    -2.8459  -2.8433  -2.8259  -2.8008  -2.7982  -2.7878  -2.7482  -2.7416
    -2.7381  -2.7306  -2.7300  -2.7290  -2.7286  -2.7282  -2.7276  -2.6828
    -2.6778  -2.6667  -2.6607  -2.6523  -2.6374  -2.6320  -2.6283  -2.6076
    -2.5907  -2.5876

          k = 0.0000-0.5773 0.0000 (321564 PWs)   bands (ev):

  -103.0082-102.9347-102.8032-102.4815 -71.3653 -71.3482 -71.3411 -71.3185
   -71.3026 -71.3019 -71.2809 -71.2788 -71.2736 -71.2688 -71.2424 -71.2281
   -71.2017 -71.1936 -71.1811 -71.1561 -71.1516 -71.1114 -71.0940 -71.0702
   -71.0634 -70.8332 -70.8277 -70.8009 -70.7870 -70.7810 -70.7621 -70.7491
   -66.8307 -66.8307 -66.8202 -66.8202 -66.8052 -66.8052 -66.8052 -66.8052
   -66.8008 -66.8008 -66.7946 -66.7946 -66.7946 -66.7946 -66.7902 -66.7902
   -66.7653 -66.7647 -66.7545 -66.7544 -66.7397 -66.7395 -66.7395 -66.7394
   -66.7354 -66.7348 -66.7293 -66.7291 -66.7289 -66.7283 -66.7244 -66.7244
   -66.6873 -66.6858 -66.6703 -66.6686 -66.6642 -66.6495 -66.6492 -66.6390
   -66.6341 -66.6272 -66.6230 -66.6205 -66.6173 -66.6099 -66.6052 -66.6008
   -57.3729 -57.2813 -57.1984 -57.1639 -57.1158 -57.0775 -57.0269 -56.9361
   -56.8872 -56.7412 -56.7157 -56.6476 -41.1320 -41.1320 -41.1320 -41.1319
   -41.1053 -41.1053 -41.0934 -41.0934 -41.0654 -41.0652 -41.0649 -41.0644
   -41.0430 -41.0430 -41.0430 -41.0430 -41.0386 -41.0381 -41.0264 -41.0264
   -40.9849 -40.9849 -40.9761 -40.9761 -40.9761 -40.9761 -40.9760 -40.9750
   -40.9750 -40.9714 -40.9642 -40.9642 -40.9608 -40.9591 -40.9528 -40.9356
   -40.9348 -40.9348 -40.9348 -40.9348 -40.9267 -40.9261 -40.9261 -40.9199
   -40.9194 -40.9143 -40.9140 -40.9140 -40.9139 -40.9139 -40.9139 -40.9139
   -40.9083 -40.9082 -40.9053 -40.9053 -40.8990 -40.8989 -40.8935 -40.8833
   -40.8833 -40.8832 -40.8832 -40.8777 -40.8758 -40.8717 -40.8697 -40.8697
   -40.8695 -40.8695 -40.8677 -40.8612 -40.8606 -40.8523 -40.8491 -40.8490
   -40.8487 -40.8487 -40.8487 -40.8487 -40.8486 -40.8481 -40.8473 -40.8472
   -40.8401 -40.8401 -40.8398 -40.8367 -40.8367 -40.8348 -40.8214 -40.8175
   -40.8175 -40.8169 -40.8167 -40.8165 -40.8162 -40.8160 -40.8079 -40.8024
   -40.8006 -40.8006 -40.7945 -40.7931 -40.7880 -40.7864 -40.7822 -40.7821
   -40.7821 -40.7820 -40.7789 -40.7735 -40.7703 -40.7702 -40.7701 -40.7697
   -40.7690 -40.7646 -40.7563 -40.7555 -40.7511 -40.7506 -40.7493 -40.7364
   -40.7340 -40.7340 -40.7231 -40.7146 -40.7126 -40.7078 -40.7038 -40.7033
   -40.6860 -40.6798 -40.6765 -40.6737 -40.6630 -40.6497 -40.6463 -40.6425
   -40.6254 -40.6166 -40.5935 -40.5860 -21.0231 -20.0794 -20.0284 -20.0109
   -19.9087 -19.8589 -19.8053 -19.6626 -19.5934 -19.5823 -19.4765 -19.4321
   -19.3907 -19.1657 -19.0902 -18.9968 -18.9315 -18.9111 -18.8866 -18.8860
   -18.8840 -18.8821 -18.8116 -18.8048 -18.7829 -18.7705 -18.7668 -18.7578
   -18.7497 -18.7257 -18.6819 -18.6412 -18.6393 -18.6247 -18.6127 -18.6012
   -18.5893 -18.5468 -18.5448 -18.5304 -18.5011 -18.4730 -18.4405 -18.4330
   -18.4263 -18.3838 -18.3596 -18.3521 -18.3259 -18.3198 -18.2954 -18.2835
   -18.2765 -18.2764 -18.2763 -18.2761 -18.2538 -18.2427 -18.2214 -18.2133
   -18.1986 -18.1979 -18.1962 -18.1933 -18.1793 -18.1750 -18.1589 -18.1433
   -18.1392 -18.1117 -18.1042 -18.1002 -18.0943 -18.0927 -18.0721 -18.0703
   -18.0432 -18.0376 -18.0285 -18.0133 -18.0133 -18.0086 -17.9892 -17.9769
   -17.9669 -17.9546 -17.9538 -17.9448 -17.9405 -17.9357 -17.9323 -17.9278
   -17.8941 -17.8929 -17.8375 -17.8255 -13.0469 -12.8054 -12.7288 -12.2320
   -11.9731 -11.8391 -11.8113 -11.7426 -11.6515 -11.6347 -11.6225 -11.6215
   -11.6202 -11.6139 -11.5965 -11.5945 -11.5522 -11.5418 -11.5290 -11.5257
   -11.5194 -11.5085 -11.4668 -11.4639 -11.4401 -11.4192 -11.4092 -11.4061
   -11.4060 -11.3986 -11.3609 -11.3586 -11.3299 -11.3145 -11.3132 -11.2967
   -11.2884 -11.2674 -11.2473 -11.2118 -11.1795 -11.1399 -11.1291 -11.1101
   -11.0909 -11.0766 -11.0655 -11.0620 -11.0534 -11.0317 -11.0257 -11.0158
   -10.9997 -10.9828 -10.9807 -10.9795 -10.9792 -10.9758 -10.9712 -10.9625
   -10.9342 -10.9196 -10.9137 -10.9073 -10.9016 -10.8394 -10.8192 -10.7986
   -10.7353 -10.7079 -10.6450 -10.6431 -10.6305 -10.5726 -10.5160 -10.4869
   -10.4071 -10.3658 -10.3554 -10.3092 -10.2874 -10.2702 -10.2609 -10.2420
   -10.2303 -10.1789 -10.1755 -10.1280 -10.1259 -10.1047 -10.0919 -10.0850
   -10.0839 -10.0793 -10.0710 -10.0621 -10.0387 -10.0382 -10.0330 -10.0004
    -9.9840  -9.9600  -9.9491  -9.9032  -9.8927  -9.8843  -9.8750  -9.8629
    -9.8610  -9.8558  -9.8505  -9.8427  -9.8272  -9.8242  -9.8090  -9.7736
    -9.7665  -9.7383  -9.7347  -9.7159  -9.7036  -9.6956  -9.6822  -9.6635
    -9.6486  -9.6233  -9.6096  -9.5799  -9.5551  -9.5199  -9.4747  -9.4616
    -9.4159  -9.3880  -9.3736  -9.3553  -9.3541  -9.3415  -9.3227  -9.3211
    -9.2957  -9.2830  -9.2681  -9.2617  -9.2478  -9.2324  -9.2279  -9.2195
    -9.2026  -9.1951  -9.1880  -9.1688  -9.1547  -9.1495  -9.1328  -9.1178
    -9.1059  -9.1053  -9.0978  -9.0940  -9.0833  -9.0760  -9.0703  -9.0531
    -9.0403  -9.0339  -9.0099  -9.0087  -9.0064  -9.0038  -9.0020  -8.9942
    -8.9897  -8.9883  -8.9850  -8.9772  -8.9625  -8.9399  -8.9232  -8.9126
    -8.9053  -8.8907  -8.8820  -8.8429  -8.8204  -8.7782  -8.7589  -8.7107
    -8.6614  -8.6612  -8.6188  -8.5992  -8.5943  -8.5786  -8.5544  -8.4831
    -8.4621  -8.4300  -8.3643  -8.3426  -8.3426  -8.3224  -8.2935  -8.2744
    -8.2699  -8.2685  -8.2317  -8.1706  -8.1253  -8.0921  -8.0805  -8.0756
    -8.0345  -8.0159  -8.0079  -8.0041  -8.0000  -7.9992  -7.9977  -7.9958
    -7.9957  -7.9870  -7.9675  -7.9551  -7.9490  -7.9486  -7.9478  -7.9424
    -7.9261  -7.9247  -7.9154  -7.9044  -7.8987  -7.8943  -7.8899  -7.8862
    -7.8761  -7.8738  -7.8720  -7.8618  -7.8501  -7.8411  -7.8366  -7.8148
    -7.8108  -7.8105  -7.8063  -7.8031  -7.7956  -7.7740  -7.7588  -7.7526
    -7.7387  -7.7342  -7.7310  -7.7089  -7.6964  -7.6845  -7.6536  -7.6333
    -7.6108  -7.5894  -7.5674  -7.5291  -7.4552  -7.4454  -7.4215  -7.3883
    -7.3807  -7.3693  -7.3590  -7.3149  -7.3009  -7.2608  -7.2401  -7.2175
    -7.1924  -7.1724  -7.1682  -7.1630  -7.1582  -7.1475  -7.1350  -7.1119
    -7.0772  -7.0679  -7.0571  -7.0525  -7.0449  -7.0176  -6.9809  -6.9518
    -6.9439  -6.9253  -6.9010  -6.8709  -6.8592  -6.8394  -6.8081  -6.8075
    -6.8075  -6.8074  -6.8058  -6.7969  -6.7728  -6.7466  -6.7409  -6.7389
    -6.7372  -6.7354  -6.7232  -6.7060  -6.6671  -6.6577  -6.6219  -6.5880
    -6.5777  -6.5658  -6.5312  -6.4769  -6.4759  -6.4755  -6.4753  -6.4631
    -6.4392  -6.4149  -6.4114  -6.3992  -6.3937  -6.3925  -6.3904  -6.3854
    -6.3763  -6.3605  -6.3432  -6.3162  -6.2565  -6.1613  -6.1300  -6.1274
    -6.1272  -6.0511  -6.0503  -6.0481  -5.9664  -5.8916  -5.8241  -5.8076
    -5.7586  -5.7315  -5.7116  -5.6000  -5.5000  -5.4513  -5.3212  -4.9774
    -4.3723  -4.2629  -4.2165  -4.1991  -4.1336  -4.1253  -4.0564  -4.0430
    -4.0428  -4.0367  -4.0038  -4.0023  -3.9776  -3.9769  -3.9457  -3.9221
    -3.8746  -3.8562  -3.8058  -3.7926  -3.7676  -3.7641  -3.7476  -3.7440
    -3.7410  -3.7362  -3.7285  -3.7279  -3.6982  -3.6630  -3.6515  -3.6453
    -3.6439  -3.6344  -3.6232  -3.6192  -3.6158  -3.6080  -3.5953  -3.5730
    -3.5498  -3.5401  -3.5199  -3.5110  -3.5022  -3.4953  -3.4941  -3.4707
    -3.4670  -3.4636  -3.4612  -3.4571  -3.4391  -3.4236  -3.4204  -3.4199
    -3.4186  -3.4174  -3.3928  -3.3877  -3.3763  -3.3725  -3.3657  -3.3561
    -3.3523  -3.3385  -3.3323  -3.3272  -3.3171  -3.3019  -3.2892  -3.2888
    -3.2543  -3.2486  -3.2151  -3.2143  -3.2083  -3.1813  -3.1761  -3.1703
    -3.1695  -3.1567  -3.1559  -3.1555  -3.1501  -3.1208  -3.1089  -3.1072
    -3.1061  -3.1010  -3.0949  -3.0920  -3.0821  -3.0706  -3.0615  -3.0556
    -3.0485  -3.0403  -3.0349  -3.0197  -3.0124  -2.9934  -2.9904  -2.9805
    -2.9606  -2.9540  -2.9437  -2.9273  -2.9066  -2.8724  -2.8670  -2.8481
    -2.8163  -2.8122  -2.8072  -2.7957  -2.7904  -2.7765  -2.7643  -2.7229
    -2.7132  -2.6823  -2.6643  -2.6557  -2.6469  -2.6320  -2.6268  -2.5391
    -2.5270  -2.5035  -2.4868  -2.4551  -2.4397  -2.4322  -2.4125  -2.3884
    -2.3356  -2.3066

          k =-0.5000-0.2887 0.0000 (321564 PWs)   bands (ev):

  -103.0082-102.9347-102.8032-102.4815 -71.3653 -71.3482 -71.3411 -71.3185
   -71.3026 -71.3019 -71.2809 -71.2788 -71.2736 -71.2688 -71.2424 -71.2281
   -71.2017 -71.1936 -71.1811 -71.1561 -71.1516 -71.1114 -71.0940 -71.0702
   -71.0634 -70.8332 -70.8277 -70.8009 -70.7870 -70.7810 -70.7621 -70.7491
   -66.8308 -66.8307 -66.8202 -66.8202 -66.8052 -66.8052 -66.8052 -66.8052
   -66.8008 -66.8008 -66.7947 -66.7946 -66.7946 -66.7946 -66.7902 -66.7902
   -66.7653 -66.7648 -66.7545 -66.7544 -66.7397 -66.7396 -66.7395 -66.7394
   -66.7353 -66.7348 -66.7294 -66.7291 -66.7286 -66.7285 -66.7245 -66.7244
   -66.6890 -66.6833 -66.6721 -66.6669 -66.6653 -66.6500 -66.6486 -66.6388
   -66.6325 -66.6278 -66.6240 -66.6215 -66.6165 -66.6096 -66.6049 -66.6011
   -57.3729 -57.2813 -57.1984 -57.1639 -57.1158 -57.0775 -57.0269 -56.9361
   -56.8872 -56.7412 -56.7157 -56.6476 -41.1320 -41.1320 -41.1320 -41.1319
   -41.1053 -41.1053 -41.0934 -41.0934 -41.0653 -41.0652 -41.0647 -41.0647
   -41.0430 -41.0430 -41.0430 -41.0430 -41.0386 -41.0381 -41.0265 -41.0263
   -40.9849 -40.9849 -40.9784 -40.9762 -40.9761 -40.9761 -40.9760 -40.9760
   -40.9750 -40.9750 -40.9642 -40.9642 -40.9581 -40.9558 -40.9511 -40.9348
   -40.9348 -40.9348 -40.9348 -40.9347 -40.9261 -40.9261 -40.9218 -40.9207
   -40.9199 -40.9194 -40.9140 -40.9140 -40.9139 -40.9139 -40.9139 -40.9139
   -40.9083 -40.9082 -40.9053 -40.9053 -40.8990 -40.8989 -40.8906 -40.8833
   -40.8833 -40.8832 -40.8832 -40.8769 -40.8744 -40.8736 -40.8697 -40.8697
   -40.8695 -40.8694 -40.8683 -40.8611 -40.8607 -40.8505 -40.8492 -40.8489
   -40.8487 -40.8487 -40.8487 -40.8487 -40.8485 -40.8484 -40.8473 -40.8472
   -40.8458 -40.8401 -40.8400 -40.8367 -40.8367 -40.8326 -40.8205 -40.8175
   -40.8175 -40.8169 -40.8168 -40.8163 -40.8163 -40.8152 -40.8098 -40.8026
   -40.8006 -40.8006 -40.7948 -40.7907 -40.7885 -40.7869 -40.7822 -40.7821
   -40.7820 -40.7820 -40.7799 -40.7730 -40.7703 -40.7702 -40.7701 -40.7698
   -40.7682 -40.7674 -40.7560 -40.7549 -40.7511 -40.7506 -40.7504 -40.7383
   -40.7341 -40.7339 -40.7312 -40.7186 -40.7038 -40.7033 -40.7010 -40.6993
   -40.6831 -40.6793 -40.6784 -40.6709 -40.6699 -40.6560 -40.6554 -40.6294
   -40.6186 -40.6167 -40.5996 -40.5860 -21.0224 -20.1107 -20.0268 -20.0140
   -19.8885 -19.8558 -19.7550 -19.6529 -19.5964 -19.5789 -19.5201 -19.4288
   -19.4194 -19.1641 -19.1213 -18.9531 -18.9211 -18.9028 -18.8874 -18.8857
   -18.8841 -18.8688 -18.8289 -18.8093 -18.7770 -18.7753 -18.7604 -18.7576
   -18.7502 -18.7331 -18.6867 -18.6444 -18.6392 -18.6365 -18.6281 -18.5985
   -18.5799 -18.5529 -18.5347 -18.5114 -18.5085 -18.4870 -18.4378 -18.4206
   -18.4077 -18.3814 -18.3618 -18.3435 -18.3226 -18.3219 -18.2977 -18.2797
   -18.2770 -18.2767 -18.2765 -18.2761 -18.2591 -18.2498 -18.2203 -18.2118
   -18.2018 -18.1970 -18.1966 -18.1928 -18.1916 -18.1696 -18.1624 -18.1432
   -18.1359 -18.1312 -18.1059 -18.0986 -18.0980 -18.0864 -18.0849 -18.0688
   -18.0409 -18.0380 -18.0233 -18.0199 -18.0132 -18.0132 -17.9785 -17.9754
   -17.9568 -17.9555 -17.9533 -17.9530 -17.9380 -17.9375 -17.9307 -17.9215
   -17.8926 -17.8924 -17.8342 -17.8311 -13.0468 -12.7843 -12.7455 -12.2066
   -11.9773 -11.8504 -11.8404 -11.7877 -11.6609 -11.6479 -11.6247 -11.6221
   -11.6190 -11.6187 -11.5945 -11.5848 -11.5721 -11.5334 -11.5249 -11.5242
   -11.5147 -11.4723 -11.4701 -11.4586 -11.4476 -11.4261 -11.4061 -11.4060
   -11.4012 -11.3759 -11.3596 -11.3591 -11.3220 -11.3105 -11.3074 -11.3016
   -11.2814 -11.2589 -11.2178 -11.1966 -11.1744 -11.1623 -11.1404 -11.1228
   -11.1156 -11.0724 -11.0713 -11.0656 -11.0575 -11.0359 -11.0341 -11.0189
   -11.0161 -10.9855 -10.9823 -10.9795 -10.9792 -10.9778 -10.9773 -10.9657
   -10.9257 -10.9215 -10.9137 -10.9112 -10.9057 -10.8522 -10.7776 -10.7706
   -10.7439 -10.6741 -10.6423 -10.6346 -10.6123 -10.5746 -10.5169 -10.4748
   -10.4668 -10.3842 -10.3196 -10.2861 -10.2791 -10.2682 -10.2592 -10.2390
   -10.2002 -10.1859 -10.1606 -10.1508 -10.1190 -10.0954 -10.0918 -10.0822
   -10.0761 -10.0754 -10.0646 -10.0605 -10.0522 -10.0347 -10.0293 -10.0023
    -9.9823  -9.9417  -9.9156  -9.9031  -9.8979  -9.8964  -9.8739  -9.8683
    -9.8659  -9.8596  -9.8509  -9.8428  -9.8293  -9.8273  -9.7873  -9.7772
    -9.7584  -9.7501  -9.7296  -9.7186  -9.7017  -9.6981  -9.6806  -9.6682
    -9.6635  -9.6344  -9.6214  -9.6028  -9.5981  -9.5236  -9.5023  -9.4816
    -9.4155  -9.3784  -9.3748  -9.3591  -9.3443  -9.3382  -9.3287  -9.3218
    -9.3127  -9.2822  -9.2778  -9.2595  -9.2514  -9.2427  -9.2131  -9.2063
    -9.1992  -9.1911  -9.1865  -9.1733  -9.1692  -9.1484  -9.1357  -9.1223
    -9.1061  -9.1023  -9.1002  -9.0961  -9.0829  -9.0772  -9.0582  -9.0561
    -9.0497  -9.0102  -9.0082  -9.0063  -9.0056  -9.0054  -8.9976  -8.9921
    -8.9893  -8.9883  -8.9866  -8.9686  -8.9611  -8.9555  -8.9392  -8.9125
    -8.9026  -8.8944  -8.8758  -8.8542  -8.7892  -8.7550  -8.7498  -8.7382
    -8.6614  -8.6613  -8.6431  -8.6330  -8.6147  -8.5802  -8.5683  -8.5079
    -8.4632  -8.4052  -8.3426  -8.3426  -8.3295  -8.2936  -8.2700  -8.2697
    -8.2596  -8.2563  -8.2061  -8.1823  -8.1556  -8.1072  -8.0807  -8.0792
    -8.0398  -8.0133  -8.0096  -8.0060  -8.0041  -7.9989  -7.9959  -7.9958
    -7.9951  -7.9831  -7.9530  -7.9507  -7.9498  -7.9479  -7.9426  -7.9322
    -7.9277  -7.9217  -7.9198  -7.9015  -7.9000  -7.8988  -7.8942  -7.8855
    -7.8749  -7.8705  -7.8682  -7.8666  -7.8494  -7.8444  -7.8356  -7.8273
    -7.8106  -7.8105  -7.8029  -7.7973  -7.7760  -7.7738  -7.7651  -7.7468
    -7.7381  -7.7301  -7.7272  -7.7223  -7.6908  -7.6763  -7.6631  -7.6238
    -7.6098  -7.5822  -7.5419  -7.5133  -7.5019  -7.4323  -7.4170  -7.3870
    -7.3820  -7.3728  -7.3625  -7.3282  -7.2913  -7.2775  -7.2428  -7.2100
    -7.2032  -7.1814  -7.1617  -7.1604  -7.1584  -7.1547  -7.1126  -7.1087
    -7.0734  -7.0530  -7.0522  -7.0412  -7.0278  -7.0231  -7.0036  -6.9842
    -6.9543  -6.9284  -6.8884  -6.8738  -6.8497  -6.8277  -6.8133  -6.8076
    -6.8075  -6.8075  -6.8071  -6.7902  -6.7874  -6.7810  -6.7405  -6.7398
    -6.7387  -6.7361  -6.7232  -6.6967  -6.6880  -6.6446  -6.6284  -6.5925
    -6.5847  -6.5778  -6.5098  -6.4864  -6.4757  -6.4756  -6.4753  -6.4716
    -6.4306  -6.4142  -6.4127  -6.4082  -6.3927  -6.3922  -6.3890  -6.3875
    -6.3703  -6.3649  -6.3530  -6.2265  -6.2157  -6.1770  -6.1274  -6.1273
    -6.0857  -6.0603  -6.0482  -6.0463  -5.9763  -5.9572  -5.8142  -5.8047
    -5.7645  -5.7579  -5.7330  -5.5898  -5.4871  -5.4460  -5.3451  -4.9920
    -4.3201  -4.2683  -4.2140  -4.1849  -4.1779  -4.1033  -4.0774  -4.0427
    -4.0427  -4.0279  -3.9978  -3.9902  -3.9783  -3.9773  -3.9617  -3.9511
    -3.9187  -3.8397  -3.8034  -3.7784  -3.7684  -3.7545  -3.7462  -3.7440
    -3.7393  -3.7351  -3.7289  -3.7278  -3.7199  -3.6734  -3.6524  -3.6437
    -3.6420  -3.6242  -3.6213  -3.6204  -3.6118  -3.6024  -3.5830  -3.5565
    -3.5466  -3.5377  -3.5247  -3.5037  -3.4954  -3.4950  -3.4760  -3.4679
    -3.4634  -3.4629  -3.4612  -3.4531  -3.4455  -3.4203  -3.4201  -3.4192
    -3.4190  -3.4094  -3.4048  -3.3819  -3.3803  -3.3780  -3.3583  -3.3468
    -3.3444  -3.3418  -3.3336  -3.3304  -3.3096  -3.3002  -3.2949  -3.2887
    -3.2731  -3.2408  -3.2153  -3.2126  -3.1997  -3.1950  -3.1780  -3.1756
    -3.1634  -3.1559  -3.1559  -3.1554  -3.1539  -3.1233  -3.1176  -3.1085
    -3.1082  -3.0986  -3.0972  -3.0907  -3.0754  -3.0651  -3.0608  -3.0569
    -3.0390  -3.0365  -3.0286  -3.0232  -3.0137  -2.9955  -2.9916  -2.9722
    -2.9565  -2.9491  -2.9474  -2.9141  -2.9009  -2.8695  -2.8669  -2.8597
    -2.8331  -2.8176  -2.8066  -2.7949  -2.7884  -2.7844  -2.7806  -2.7260
    -2.7120  -2.6886  -2.6676  -2.6602  -2.6477  -2.6409  -2.6209  -2.5349
    -2.5122  -2.5055  -2.4615  -2.4416  -2.4086  -2.3902  -2.3586  -2.3359
    -2.1375  -2.1282

          k =-0.5000-0.8660 0.0000 (321564 PWs)   bands (ev):

  -103.0082-102.9347-102.8032-102.4815 -71.3653 -71.3482 -71.3411 -71.3185
   -71.3026 -71.3019 -71.2809 -71.2788 -71.2736 -71.2688 -71.2424 -71.2281
   -71.2017 -71.1936 -71.1811 -71.1561 -71.1516 -71.1114 -71.0940 -71.0702
   -71.0634 -70.8332 -70.8277 -70.8009 -70.7870 -70.7810 -70.7621 -70.7491
   -66.8308 -66.8307 -66.8202 -66.8202 -66.8052 -66.8052 -66.8052 -66.8052
   -66.8008 -66.8008 -66.7946 -66.7946 -66.7946 -66.7946 -66.7902 -66.7902
   -66.7654 -66.7646 -66.7545 -66.7544 -66.7397 -66.7395 -66.7395 -66.7394
   -66.7355 -66.7347 -66.7296 -66.7292 -66.7285 -66.7282 -66.7245 -66.7244
   -66.6873 -66.6858 -66.6709 -66.6676 -66.6645 -66.6496 -66.6491 -66.6390
   -66.6338 -66.6276 -66.6227 -66.6205 -66.6176 -66.6096 -66.6053 -66.6008
   -57.3729 -57.2813 -57.1984 -57.1639 -57.1158 -57.0775 -57.0269 -56.9361
   -56.8872 -56.7412 -56.7157 -56.6476 -41.1320 -41.1320 -41.1319 -41.1319
   -41.1053 -41.1053 -41.0934 -41.0934 -41.0656 -41.0653 -41.0647 -41.0644
   -41.0430 -41.0430 -41.0430 -41.0430 -41.0387 -41.0381 -41.0265 -41.0264
   -40.9849 -40.9849 -40.9767 -40.9761 -40.9761 -40.9760 -40.9760 -40.9750
   -40.9750 -40.9718 -40.9642 -40.9642 -40.9621 -40.9581 -40.9519 -40.9352
   -40.9348 -40.9348 -40.9348 -40.9348 -40.9272 -40.9261 -40.9261 -40.9200
   -40.9193 -40.9140 -40.9140 -40.9139 -40.9139 -40.9139 -40.9139 -40.9124
   -40.9083 -40.9082 -40.9053 -40.9053 -40.8990 -40.8989 -40.8924 -40.8833
   -40.8833 -40.8832 -40.8832 -40.8785 -40.8745 -40.8733 -40.8697 -40.8696
   -40.8696 -40.8695 -40.8668 -40.8613 -40.8605 -40.8515 -40.8494 -40.8492
   -40.8490 -40.8487 -40.8487 -40.8487 -40.8487 -40.8484 -40.8481 -40.8473
   -40.8472 -40.8401 -40.8400 -40.8367 -40.8367 -40.8283 -40.8176 -40.8175
   -40.8175 -40.8171 -40.8168 -40.8164 -40.8162 -40.8161 -40.8096 -40.8043
   -40.8006 -40.8006 -40.7961 -40.7924 -40.7893 -40.7828 -40.7822 -40.7821
   -40.7820 -40.7820 -40.7795 -40.7746 -40.7704 -40.7702 -40.7701 -40.7696
   -40.7690 -40.7646 -40.7564 -40.7552 -40.7512 -40.7505 -40.7495 -40.7377
   -40.7340 -40.7340 -40.7218 -40.7139 -40.7127 -40.7077 -40.7039 -40.7031
   -40.6860 -40.6809 -40.6771 -40.6731 -40.6626 -40.6494 -40.6457 -40.6434
   -40.6244 -40.6160 -40.5945 -40.5861 -21.0232 -20.0716 -20.0290 -20.0093
   -19.9200 -19.8595 -19.8163 -19.6526 -19.5931 -19.5810 -19.4711 -19.4318
   -19.3810 -19.1596 -19.1157 -19.0018 -18.9280 -18.9088 -18.8869 -18.8861
   -18.8836 -18.8819 -18.8120 -18.8075 -18.7880 -18.7690 -18.7630 -18.7575
   -18.7501 -18.7216 -18.6808 -18.6408 -18.6393 -18.6214 -18.6136 -18.5976
   -18.5880 -18.5470 -18.5442 -18.5301 -18.4947 -18.4735 -18.4454 -18.4360
   -18.4278 -18.3843 -18.3586 -18.3517 -18.3301 -18.3210 -18.2933 -18.2823
   -18.2767 -18.2765 -18.2763 -18.2763 -18.2536 -18.2425 -18.2229 -18.2133
   -18.1997 -18.1980 -18.1964 -18.1938 -18.1796 -18.1735 -18.1583 -18.1414
   -18.1400 -18.1122 -18.1048 -18.1002 -18.0948 -18.0930 -18.0711 -18.0704
   -18.0420 -18.0387 -18.0293 -18.0132 -18.0132 -18.0088 -17.9894 -17.9758
   -17.9663 -17.9543 -17.9534 -17.9466 -17.9401 -17.9359 -17.9319 -17.9256
   -17.8939 -17.8925 -17.8403 -17.8250 -13.0468 -12.8093 -12.7267 -12.2221
   -11.9549 -11.8394 -11.8228 -11.7524 -11.6469 -11.6330 -11.6235 -11.6214
   -11.6192 -11.6145 -11.5994 -11.5921 -11.5606 -11.5541 -11.5311 -11.5267
   -11.5221 -11.5143 -11.4664 -11.4607 -11.4479 -11.4251 -11.4092 -11.4061
   -11.4060 -11.4049 -11.3610 -11.3590 -11.3289 -11.3155 -11.3077 -11.2919
   -11.2862 -11.2680 -11.2316 -11.2003 -11.1843 -11.1376 -11.1256 -11.1086
   -11.0921 -11.0769 -11.0678 -11.0622 -11.0529 -11.0443 -11.0283 -11.0149
   -10.9932 -10.9814 -10.9808 -10.9797 -10.9792 -10.9754 -10.9721 -10.9608
   -10.9442 -10.9191 -10.9147 -10.9069 -10.9060 -10.8284 -10.8224 -10.8026
   -10.7425 -10.7068 -10.6447 -10.6367 -10.5956 -10.5686 -10.5092 -10.4935
   -10.4185 -10.3802 -10.3568 -10.3257 -10.2918 -10.2689 -10.2612 -10.2401
   -10.2279 -10.1727 -10.1705 -10.1255 -10.1225 -10.0986 -10.0892 -10.0838
   -10.0815 -10.0753 -10.0672 -10.0565 -10.0377 -10.0364 -10.0322  -9.9995
    -9.9853  -9.9550  -9.9400  -9.9033  -9.8916  -9.8833  -9.8745  -9.8648
    -9.8610  -9.8564  -9.8500  -9.8451  -9.8271  -9.8214  -9.8084  -9.7718
    -9.7680  -9.7401  -9.7371  -9.7148  -9.7004  -9.6955  -9.6836  -9.6661
    -9.6504  -9.6243  -9.6107  -9.5851  -9.5640  -9.5159  -9.4751  -9.4664
    -9.4412  -9.3890  -9.3714  -9.3598  -9.3542  -9.3442  -9.3246  -9.3184
    -9.2985  -9.2818  -9.2689  -9.2593  -9.2501  -9.2390  -9.2291  -9.2201
    -9.2015  -9.1917  -9.1876  -9.1724  -9.1548  -9.1487  -9.1328  -9.1201
    -9.1057  -9.1042  -9.1018  -9.0934  -9.0834  -9.0767  -9.0690  -9.0493
    -9.0438  -9.0311  -9.0103  -9.0101  -9.0080  -9.0057  -9.0022  -8.9923
    -8.9891  -8.9882  -8.9830  -8.9776  -8.9556  -8.9384  -8.9246  -8.9121
    -8.9043  -8.8901  -8.8849  -8.8550  -8.7996  -8.7767  -8.7560  -8.7147
    -8.6614  -8.6612  -8.6202  -8.5983  -8.5870  -8.5804  -8.5493  -8.4855
    -8.4781  -8.4324  -8.3645  -8.3426  -8.3426  -8.3137  -8.2847  -8.2712
    -8.2702  -8.2677  -8.2378  -8.1711  -8.1296  -8.0969  -8.0806  -8.0766
    -8.0357  -8.0168  -8.0083  -8.0035  -7.9992  -7.9977  -7.9961  -7.9958
    -7.9957  -7.9838  -7.9716  -7.9516  -7.9490  -7.9486  -7.9480  -7.9334
    -7.9257  -7.9249  -7.9174  -7.9036  -7.8988  -7.8946  -7.8912  -7.8862
    -7.8778  -7.8736  -7.8711  -7.8664  -7.8550  -7.8400  -7.8316  -7.8145
    -7.8107  -7.8105  -7.8067  -7.7983  -7.7954  -7.7715  -7.7597  -7.7546
    -7.7387  -7.7334  -7.7317  -7.6990  -7.6901  -7.6840  -7.6484  -7.6315
    -7.6131  -7.5778  -7.5659  -7.5282  -7.4596  -7.4524  -7.4247  -7.3872
    -7.3799  -7.3692  -7.3596  -7.3158  -7.2974  -7.2604  -7.2371  -7.2230
    -7.1966  -7.1729  -7.1690  -7.1614  -7.1582  -7.1475  -7.1397  -7.1077
    -7.0819  -7.0673  -7.0527  -7.0482  -7.0423  -7.0206  -6.9811  -6.9609
    -6.9499  -6.9229  -6.8923  -6.8709  -6.8538  -6.8479  -6.8122  -6.8077
    -6.8075  -6.8075  -6.8072  -6.7940  -6.7854  -6.7782  -6.7407  -6.7395
    -6.7382  -6.7368  -6.7270  -6.7026  -6.6753  -6.6500  -6.6064  -6.5957
    -6.5861  -6.5580  -6.5198  -6.4768  -6.4760  -6.4756  -6.4753  -6.4623
    -6.4408  -6.4157  -6.4119  -6.3982  -6.3942  -6.3914  -6.3896  -6.3835
    -6.3733  -6.3581  -6.3461  -6.3071  -6.2391  -6.1743  -6.1280  -6.1273
    -6.1268  -6.0536  -6.0502  -6.0475  -5.9526  -5.8926  -5.8208  -5.8064
    -5.7618  -5.7341  -5.7167  -5.6032  -5.5030  -5.4530  -5.3199  -4.9678
    -4.3833  -4.2486  -4.2213  -4.2128  -4.1356  -4.1230  -4.0616  -4.0447
    -4.0428  -4.0425  -4.0030  -4.0018  -3.9777  -3.9771  -3.9461  -3.9201
    -3.8796  -3.8539  -3.8052  -3.7882  -3.7683  -3.7653  -3.7478  -3.7455
    -3.7406  -3.7368  -3.7286  -3.7279  -3.7018  -3.6588  -3.6509  -3.6455
    -3.6434  -3.6339  -3.6224  -3.6167  -3.6140  -3.6079  -3.5922  -3.5717
    -3.5503  -3.5391  -3.5135  -3.5111  -3.5038  -3.4952  -3.4942  -3.4720
    -3.4664  -3.4633  -3.4604  -3.4556  -3.4379  -3.4238  -3.4204  -3.4195
    -3.4186  -3.4174  -3.3912  -3.3886  -3.3741  -3.3734  -3.3656  -3.3555
    -3.3504  -3.3381  -3.3334  -3.3263  -3.3160  -3.2953  -3.2928  -3.2819
    -3.2557  -3.2455  -3.2149  -3.2135  -3.2010  -3.1817  -3.1764  -3.1719
    -3.1669  -3.1568  -3.1556  -3.1551  -3.1484  -3.1212  -3.1130  -3.1093
    -3.1074  -3.1025  -3.0974  -3.0909  -3.0845  -3.0730  -3.0595  -3.0552
    -3.0454  -3.0393  -3.0352  -3.0222  -3.0164  -2.9954  -2.9861  -2.9811
    -2.9599  -2.9512  -2.9425  -2.9288  -2.9041  -2.8726  -2.8667  -2.8467
    -2.8217  -2.8181  -2.8045  -2.7955  -2.7883  -2.7796  -2.7629  -2.7271
    -2.7107  -2.6851  -2.6656  -2.6544  -2.6475  -2.6337  -2.6203  -2.5358
    -2.5254  -2.5009  -2.4827  -2.4589  -2.4458  -2.4288  -2.4237  -2.3813
    -2.3603  -2.3060

     the Fermi energy is    -4.6649 ev

!    total energy              =  -30543.80810497 Ry
     total all-electron energy =   -612674.429486 Ry
     estimated scf accuracy    <       0.00000057 Ry
     smearing contrib. (-TS)   =      -0.00009187 Ry
     internal energy E=F+TS    =  -30543.80801310 Ry

     The total energy is F=E-TS. E is the sum of the following terms:
     one-electron contribution =  573372.34561698 Ry
     hartree contribution      = -286948.70383728 Ry
     xc contribution           =   -1730.61399651 Ry
     ewald contribution        = -297526.36496831 Ry
     DFT-D3 Dispersion         =      -4.11225300 Ry
     one-center paw contrib.   =  -17706.35857499 Ry

     convergence has been achieved in  24 iterations

     negative rho (up, down):  8.755E-04 0.000E+00

     Forces acting on atoms (cartesian axes, Ry/au):

     atom    1 type  1   force =     0.00182231   -0.00198581   -0.00009805
     atom    2 type  1   force =     0.00000451   -0.00000066    0.00190006
     atom    3 type  1   force =    -0.00006223   -0.00004868    0.00002953
     atom    4 type  2   force =     0.00000037    0.00000150   -0.00330627
     atom    5 type  2   force =    -0.00003469   -0.00000020    0.00004149
     atom    6 type  2   force =    -0.00031181   -0.00108226   -0.00149600
     atom    7 type  2   force =     0.00000087   -0.00000743    0.00153878
     atom    8 type  2   force =    -0.00003313   -0.00002664    0.00000505
     atom    9 type  2   force =     0.00030778    0.00027445   -0.00215995
     atom   10 type  1   force =     0.00318682    0.00145308   -0.02972982
     atom   11 type  1   force =     0.00000316   -0.00000786    0.00190173
     atom   12 type  1   force =     0.00002289   -0.00000431   -0.00009259
     atom   13 type  2   force =    -0.00000087    0.00000042   -0.00330840
     atom   14 type  2   force =     0.00003858   -0.00004539    0.00000583
     atom   15 type  2   force =     0.00093522    0.00041049    0.00396414
     atom   16 type  2   force =     0.00000828   -0.00001244    0.00155173
     atom   17 type  2   force =    -0.00003850   -0.00000894   -0.00003571
     atom   18 type  2   force =    -0.01532559   -0.00811761    0.02779252
     atom   19 type  1   force =    -0.00136130    0.00153351   -0.00122290
     atom   20 type  1   force =    -0.00000113   -0.00000283    0.00190977
     atom   21 type  1   force =    -0.00005761   -0.00003100    0.00002754
     atom   22 type  2   force =    -0.00000019    0.00000027   -0.00330763
     atom   23 type  2   force =    -0.00002017    0.00001468    0.00001766
     atom   24 type  2   force =    -0.00130050    0.00010892   -0.00159785
     atom   25 type  2   force =     0.00000435   -0.00000653    0.00154831
     atom   26 type  2   force =    -0.00001458   -0.00003754    0.00003232
     atom   27 type  2   force =     0.00057371   -0.00035616   -0.00155891
     atom   28 type  1   force =    -0.00002136    0.00001677    0.00065401
     atom   29 type  1   force =    -0.00000189    0.00000387    0.00190379
     atom   30 type  1   force =     0.00001582    0.00000311   -0.00000282
     atom   31 type  2   force =     0.00000033    0.00000061   -0.00330777
     atom   32 type  2   force =    -0.00001420   -0.00000875    0.00004966
     atom   33 type  2   force =    -0.00023221   -0.00009554   -0.00024632
     atom   34 type  2   force =    -0.00000574   -0.00000082    0.00154381
     atom   35 type  2   force =    -0.00002796   -0.00001705   -0.00000184
     atom   36 type  2   force =     0.00005296    0.00017959   -0.00031309
     atom   37 type  1   force =    -0.00209806    0.00109778    0.00086700
     atom   38 type  1   force =     0.00000675   -0.00000004    0.00190648
     atom   39 type  1   force =    -0.00001154   -0.00006677    0.00003879
     atom   40 type  2   force =     0.00000169    0.00000222   -0.00330780
     atom   41 type  2   force =    -0.00001969   -0.00001349    0.00004745
     atom   42 type  2   force =    -0.00042447    0.00023309   -0.00001323
     atom   43 type  2   force =    -0.00000274   -0.00000339    0.00152539
     atom   44 type  2   force =     0.00000077   -0.00000780   -0.00003470
     atom   45 type  2   force =     0.00016031    0.00029462    0.00050280
     atom   46 type  1   force =     0.00513350   -0.00183136   -0.00377451
     atom   47 type  1   force =     0.00000963   -0.00000716    0.00190197
     atom   48 type  1   force =    -0.00002672   -0.00000791    0.00002010
     atom   49 type  2   force =     0.00000233    0.00000097   -0.00330829
     atom   50 type  2   force =    -0.00000566   -0.00003836    0.00005391
     atom   51 type  2   force =     0.00001059    0.00074486    0.00253965
     atom   52 type  2   force =     0.00000194   -0.00000802    0.00154041
     atom   53 type  2   force =    -0.00002051   -0.00002397    0.00006957
     atom   54 type  2   force =     0.02059957   -0.01866829    0.00629169
     atom   55 type  1   force =     0.00148180    0.00579699   -0.00324929
     atom   56 type  1   force =     0.00000811    0.00000097    0.00190227
     atom   57 type  1   force =     0.00000821   -0.00006001    0.00000354
     atom   58 type  2   force =     0.00000003    0.00000065   -0.00331181
     atom   59 type  2   force =     0.00001642   -0.00001381    0.00002538
     atom   60 type  2   force =     0.00104599   -0.00006890    0.00326861
     atom   61 type  2   force =     0.00001308   -0.00000818    0.00155465
     atom   62 type  2   force =     0.00005053    0.00001731   -0.00000690
     atom   63 type  2   force =    -0.00882447    0.02461308    0.00839285
     atom   64 type  1   force =    -0.00044294   -0.00174380    0.00134001
     atom   65 type  1   force =     0.00000420    0.00001062    0.00190073
     atom   66 type  1   force =    -0.00004704    0.00001857    0.00003045
     atom   67 type  2   force =    -0.00000010    0.00000249   -0.00330900
     atom   68 type  2   force =    -0.00001576   -0.00001186    0.00001686
     atom   69 type  2   force =     0.00002639   -0.00001161   -0.00047224
     atom   70 type  2   force =     0.00000573   -0.00000289    0.00154985
     atom   71 type  2   force =     0.00001634   -0.00001861    0.00002981
     atom   72 type  2   force =     0.00041339    0.00002683    0.00045473
     atom   73 type  1   force =     0.00070200    0.00037676   -0.00002242
     atom   74 type  1   force =    -0.00000350    0.00000259    0.00191120
     atom   75 type  1   force =    -0.00000552   -0.00001774   -0.00004256
     atom   76 type  2   force =     0.00000086    0.00000382   -0.00330612
     atom   77 type  2   force =    -0.00004081   -0.00002479    0.00000700
     atom   78 type  2   force =    -0.00014981    0.00030321   -0.00028674
     atom   79 type  2   force =     0.00000114   -0.00001090    0.00154636
     atom   80 type  2   force =     0.00002381   -0.00001707    0.00000400
     atom   81 type  2   force =    -0.00005840    0.00026349    0.00030385
     atom   82 type  1   force =     0.00106317   -0.00037333   -0.00005206
     atom   83 type  1   force =     0.00000086   -0.00001002    0.00191133
     atom   84 type  1   force =     0.00003018    0.00000480    0.00006540
     atom   85 type  2   force =     0.00000232    0.00000192   -0.00330473
     atom   86 type  2   force =    -0.00001523    0.00000506    0.00002721
     atom   87 type  2   force =     0.00036006    0.00123222   -0.00062977
     atom   88 type  2   force =    -0.00000695   -0.00000535    0.00154269
     atom   89 type  2   force =     0.00000677   -0.00002145   -0.00003923
     atom   90 type  2   force =     0.00061048    0.00319159    0.00371779
     atom   91 type  1   force =    -0.00101476   -0.00068459   -0.00145242
     atom   92 type  1   force =     0.00000196   -0.00000069    0.00190243
     atom   93 type  1   force =     0.00005438   -0.00002189    0.00003019
     atom   94 type  2   force =     0.00000235   -0.00000030   -0.00330805
     atom   95 type  2   force =     0.00003919   -0.00004168    0.00006066
     atom   96 type  2   force =     0.00097805    0.00097657   -0.00092874
     atom   97 type  2   force =    -0.00000293   -0.00000898    0.00154415
     atom   98 type  2   force =    -0.00003431    0.00002468    0.00010310
     atom   99 type  2   force =     0.00773663    0.00293281   -0.00986480
     atom  100 type  1   force =     0.00028711    0.00061284    0.00003683
     atom  101 type  1   force =     0.00000497    0.00000273    0.00190026
     atom  102 type  1   force =     0.00003444    0.00000837    0.00000120
     atom  103 type  2   force =     0.00000090    0.00000319   -0.00330825
     atom  104 type  2   force =     0.00000047   -0.00003973    0.00002007
     atom  105 type  2   force =     0.00086960   -0.00103384    0.00003709
     atom  106 type  2   force =     0.00000500   -0.00000807    0.00155762
     atom  107 type  2   force =     0.00001417   -0.00002304    0.00001347
     atom  108 type  2   force =     0.00226534   -0.00042128    0.00423977
     atom  109 type  1   force =     0.00007598   -0.00408948   -0.00046124
     atom  110 type  1   force =    -0.00000007   -0.00000723    0.00190611
     atom  111 type  1   force =     0.00000034   -0.00009431   -0.00008023
     atom  112 type  2   force =     0.00000042    0.00000260   -0.00330822
     atom  113 type  2   force =     0.00003273   -0.00004789   -0.00000716
     atom  114 type  2   force =     0.00026827   -0.00048057    0.00000801
     atom  115 type  2   force =     0.00000691   -0.00001657    0.00155041
     atom  116 type  2   force =    -0.00005727   -0.00004908   -0.00004952
     atom  117 type  2   force =    -0.00044978   -0.00083252    0.00064282
     atom  118 type  1   force =    -0.00331493    0.00256703   -0.00115237
     atom  119 type  1   force =    -0.00000549   -0.00000572    0.00190859
     atom  120 type  1   force =    -0.00005562    0.00002286   -0.00000879
     atom  121 type  2   force =     0.00000005    0.00000156   -0.00330594
[...]
     atom   74 type  1   force =     0.00000083   -0.00000608    0.00190995
     atom   75 type  1   force =    -0.00000182   -0.00000449    0.00005732
     atom   76 type  2   force =     0.00000218    0.00000267   -0.00328254
     atom   77 type  2   force =    -0.00003340    0.00001231   -0.00002131
     atom   78 type  2   force =    -0.00005307    0.00001538   -0.00038730
     atom   79 type  2   force =    -0.00000575   -0.00001596    0.00153497
     atom   80 type  2   force =     0.00003143   -0.00004229    0.00001315
     atom   81 type  2   force =     0.00002036   -0.00001277    0.00009514
     atom   82 type  1   force =     0.00011358    0.00005563    0.00000530
     atom   83 type  1   force =    -0.00000360    0.00000062    0.00190880
     atom   84 type  1   force =     0.00000264    0.00000989   -0.00003715
     atom   85 type  2   force =     0.00000240    0.00000249   -0.00328195
     atom   86 type  2   force =     0.00000707   -0.00005596   -0.00002167
     atom   87 type  2   force =    -0.00052311    0.00037113    0.00038231
     atom   88 type  2   force =    -0.00000875   -0.00001197    0.00153541
     atom   89 type  2   force =    -0.00000290    0.00002472    0.00001026
     atom   90 type  2   force =     0.00013086   -0.00010309    0.00029542
     atom   91 type  1   force =     0.00009976    0.00013804   -0.00025936
     atom   92 type  1   force =    -0.00000137   -0.00000176    0.00190338
     atom   93 type  1   force =     0.00001272   -0.00000678   -0.00002661
     atom   94 type  2   force =     0.00000219    0.00000233   -0.00328243
     atom   95 type  2   force =     0.00000387   -0.00000117   -0.00002747
     atom   96 type  2   force =     0.00013031   -0.00009667    0.00015646
     atom   97 type  2   force =    -0.00000515   -0.00001371    0.00153162
     atom   98 type  2   force =    -0.00002719   -0.00000798   -0.00002969
     atom   99 type  2   force =     0.00035666    0.00054292   -0.00052860
     atom  100 type  1   force =     0.00002938    0.00010164   -0.00010791
     atom  101 type  1   force =     0.00000145   -0.00000297    0.00190306
     atom  102 type  1   force =     0.00001164    0.00000594   -0.00002313
     atom  103 type  2   force =     0.00000205    0.00000238   -0.00328230
     atom  104 type  2   force =     0.00001748   -0.00001718   -0.00003409
     atom  105 type  2   force =     0.00001137   -0.00048457    0.00001589
     atom  106 type  2   force =    -0.00000197   -0.00001379    0.00153684
     atom  107 type  2   force =    -0.00001052   -0.00003495   -0.00003691
     atom  108 type  2   force =    -0.00001381    0.00004655    0.00004943
     atom  109 type  1   force =    -0.00004569   -0.00023008    0.00001920
     atom  110 type  1   force =     0.00000539   -0.00000517    0.00190500
     atom  111 type  1   force =    -0.00000243   -0.00001789   -0.00001348
     atom  112 type  2   force =     0.00000197    0.00000253   -0.00328254
     atom  113 type  2   force =     0.00003228   -0.00001821   -0.00000715
     atom  114 type  2   force =    -0.00000716    0.00025382   -0.00003471
     atom  115 type  2   force =     0.00000975   -0.00002266    0.00152348
     atom  116 type  2   force =     0.00001162    0.00001850   -0.00004529
     atom  117 type  2   force =    -0.00033157   -0.00004186    0.00014431
     atom  118 type  1   force =    -0.00024219    0.00017724   -0.00002993
     atom  119 type  1   force =     0.00000315   -0.00000019    0.00190902
     atom  120 type  1   force =    -0.00001388   -0.00000028   -0.00001792
     atom  121 type  2   force =     0.00000195    0.00000239   -0.00328114
     atom  122 type  2   force =    -0.00000062   -0.00001130   -0.00002913
     atom  123 type  2   force =     0.00026830   -0.00007836   -0.00004434
     atom  124 type  2   force =    -0.00000177   -0.00001290    0.00153481
     atom  125 type  2   force =    -0.00001042   -0.00001911   -0.00001624
     atom  126 type  2   force =    -0.00013684   -0.00022549    0.00015200
     atom  127 type  1   force =     0.00023467   -0.00002890   -0.00006009
     atom  128 type  1   force =    -0.00000073    0.00000259    0.00190594
     atom  129 type  1   force =    -0.00000281   -0.00002471   -0.00000043
     atom  130 type  2   force =     0.00000212    0.00000224   -0.00328224
     atom  131 type  2   force =     0.00001404    0.00001432   -0.00000780
     atom  132 type  2   force =     0.00017132    0.00028807   -0.00006492
     atom  133 type  2   force =    -0.00000842    0.00000159    0.00151658
     atom  134 type  2   force =     0.00002942   -0.00001656   -0.00004530
     atom  135 type  2   force =    -0.00030444    0.00031804   -0.00037627
     atom  136 type  1   force =     0.00008151    0.00031024   -0.00009952
     atom  137 type  1   force =     0.00000286    0.00000114    0.00189965
     atom  138 type  1   force =    -0.00000489    0.00000328    0.00000105
     atom  139 type  2   force =     0.00000199    0.00000222   -0.00328157
     atom  140 type  2   force =     0.00000412   -0.00001018   -0.00002114
     atom  141 type  2   force =     0.00030390    0.00014419   -0.00013106
     atom  142 type  2   force =     0.00000316   -0.00000704    0.00154366
     atom  143 type  2   force =    -0.00001230   -0.00002089   -0.00000907
     atom  144 type  2   force =     0.00009103   -0.00026887   -0.00040260
     atom  145 type  3   force =    -0.00068935   -0.00063535   -0.00082697
     atom  146 type  3   force =    -0.00013171   -0.00005003    0.00033594
     atom  147 type  3   force =    -0.00045002   -0.00073302    0.00031788
     atom  148 type  3   force =    -0.00017796    0.00022718    0.00042048

     Total force =     0.003500     Total SCF correction =     0.000595
     SCF correction compared to forces is large: reduce conv_thr to get better values
     Energy error            =      2.7E-05 Ry
     Gradient error          =      8.3E-04 Ry/Bohr

     bfgs converged in  20 scf cycles and  19 bfgs steps
     (criteria: energy <  1.0E-04 Ry, force <  1.0E-03 Ry/Bohr)

     End of BFGS Geometry Optimization

     Final energy             =  -30543.8342113269 Ry

     File ./outdir/pwscf.bfgs deleted, as requested
Begin final coordinates

ATOMIC_POSITIONS (angstrom)
Mo               1.5740606119        2.6690573159        6.0692354122
Mo               1.5769197498        0.9104407117       -6.0872367793    0   0   0
Mo              -0.0002020167        1.8186288503        0.0012955482
S                0.0000044503        0.0000077495       -7.6506323570    0   0   0
S                1.5771008179        0.9084388760       -1.5637860005
S               -0.0230199093        1.8002273167        4.5130494877
S                0.0000053241        0.0000068460       -4.5222282367    0   0   0
S                1.5765999872        0.9082063599        1.5689812385
S                0.0074020242        1.7894424923        7.6651990739
Mo              -0.0072965420        5.4494732340        6.1310348268
Mo               0.0000011799        3.6417399547       -6.0872367793    0   0   0
Mo              -1.5767980332        4.5500437539        0.0005073580
S               -1.5769141197        2.7313069925       -7.6506323570    0   0   0
S                0.0008088216        3.6396772608       -1.5640075313
S               -1.5642731810        4.5472524141        4.5776997389
S               -1.5769132459        2.7313060890       -4.5222282367    0   0   0
S               -0.0011807324        3.6392312258        1.5691090682
S               -1.6406381637        4.5054405930        7.7750679033
Mo              -1.6207442902        8.2040150796        6.0637584261
Mo              -1.5769173901        6.3730391977       -6.0872367793    0   0   0
Mo              -3.1540917951        7.2811277847        0.0005325549
S               -3.1538326896        5.4626062355       -7.6506323570    0   0   0
S               -1.5763591782        6.3714107963       -1.5644087681
S               -3.1749987931        7.2567515193        4.5121099218
S               -3.1538318159        5.4626053320       -4.5222282367    0   0   0
S               -1.5782791428        6.3698886691        1.5683730553
S               -3.1602884920        7.2891010564        7.6646725192
Mo               3.1524332399       -0.0114608796        6.0570193334
Mo              -3.1538359601        9.1043384407       -6.0872367793    0   0   0
Mo              -4.7308275477       10.0126012414        0.0017565999
S               -4.7307512596        8.1939054785       -7.6506323570    0   0   0
S               -3.1537278409        9.1026859559       -1.5640738397
S               -4.7422034005        9.9958509779        4.5046381391
S               -4.7307503859        8.1939045750       -4.5222282367    0   0   0
S               -3.1539630951        9.1014905143        1.5685577120
S               -4.7242673852       10.0072463557        7.6401384624
Mo               4.7428508739        2.7089213704        6.0888321841
Mo               4.7307503218        0.9104407117       -6.0872367793    0   0   0
Mo               3.1538018793        1.8190562743        0.0019455567
S                3.1538350223        0.0000077495       -7.6506323570    0   0   0
S                4.7299887119        0.9079851955       -1.5645062399
S                3.1655415748        1.8072024434        4.4932274194
S                3.1538358961        0.0000068460       -4.5222282367    0   0   0
S                4.7320884423        0.9089911893        1.5671618883
S                3.1609462007        1.7814145615        7.6384441979
Mo               3.1767213626        5.3904808602        6.0695570877
Mo               3.1538317519        3.6417399547       -6.0872367793    0   0   0
Mo               1.5766290575        4.5501713495        0.0026976238
S                1.5769164523        2.7313069925       -7.6506323570    0   0   0
S                3.1533833747        3.6400416649       -1.5631597002
S                1.5534217264        4.5281520040        4.5509776034
S                1.5769173261        2.7313060890       -4.5222282367    0   0   0
S                3.1538884935        3.6401804063        1.5700551053
S                1.6240446921        4.3891604879        7.6918461265
Mo               1.5340591018        8.2400222933        6.0347166301
Mo               1.5769131819        6.3730391977       -6.0872367793    0   0   0
Mo              -0.0000594213        7.2808784418        0.0024789589
S               -0.0000021176        5.4626062355       -7.6506323570    0   0   0
S                1.5769755503        6.3709162498       -1.5627585089
S               -0.0315200065        7.2513834209        4.5348535450
S               -0.0000012439        5.4626053320       -4.5222282367    0   0   0
S                1.5764804146        6.3705599847        1.5706407878
S               -0.0771604724        7.4081681101        7.6707824600
Mo               6.3079905216        0.0035144691        6.0818022957
Mo              -0.0000053881        9.1043384407       -6.0872367793    0   0   0
Mo              -1.5766199922       10.0124482451        0.0018504378
S               -1.5769206876        8.1939054785       -7.6506323570    0   0   0
S                0.0003066912        9.1018101213       -1.5630734548
S               -1.5752837515       10.0173352413        4.4903291037
S               -1.5769198139        8.1939045750       -4.5222282367    0   0   0
S                0.0004239027        9.1016041596        1.5699543684
S               -1.5954229529       10.0225609899        7.6329481946
Mo               7.8892468512        2.7223950917        6.1040190637
Mo               7.8845808939        0.9104407117       -6.0872367793    0   0   0
Mo               6.3079792310        1.8190836938       -0.0007448732
S                6.3076655943        0.0000077495       -7.6506323570    0   0   0
S                7.8849956410        0.9075989135       -1.5651739184
S                6.3206034841        1.8200438129        4.5201548110
S                6.3076664681        0.0000068460       -4.5222282367    0   0   0
S                7.8849608343        0.9102953464        1.5667947636
S                6.3090334169        1.8040524220        7.6682005619
Mo               6.3230438431        5.4426072067        6.1055960725
Mo               6.3076623239        3.6417399547       -6.0872367793    0   0   0
Mo               4.7308927051        4.5500778573        0.0017270266
S                4.7307470244        2.7313069925       -7.6506323570    0   0   0
S                6.3071750359        3.6403683086       -1.5653678827
S                4.7599753191        4.5247647055        4.5236491506
S                4.7307478981        2.7313060890       -4.5222282367    0   0   0
S                6.3091471078        3.6392708053        1.5671561360
S                4.8010720742        4.4898604576        7.7202542135
Mo               4.7630513690        8.2027345989        6.0605306441
Mo               4.7307437539        6.3730391977       -6.0872367793    0   0   0
Mo               3.1535722511        7.2810264210        0.0028546231
S                3.1538284544        5.4626062355       -7.6506323570    0   0   0
S                4.7297623313        6.3708745654       -1.5637496290
S                3.1543296065        7.2609161660        4.5290376870
S                3.1538293281        5.4626053320       -4.5222282367    0   0   0
S                4.7315736946        6.3705500246        1.5692517960
S                3.1199053655        7.2791480481        7.5000706229
Mo               9.4592741758        0.0048600757        6.0981043867
Mo               3.1538251839        9.1043384407       -6.0872367793    0   0   0
Mo               1.5770766974       10.0127379335        0.0021127727
S                1.5769098844        8.1939054785       -7.6506323570    0   0   0
S                3.1532999546        9.1015570726       -1.5632791262
S                1.5785948355       10.0501676959        4.5019333906
S                1.5769107581        8.1939045750       -4.5222282367    0   0   0
S                3.1539735077        9.1022377647        1.5698621404
S                1.5686943331       10.0544487913        7.6957671893
Mo              -1.5747862668        2.7161209502        6.1205430674
Mo              11.0384114659        0.9104407117       -6.0872367793    0   0   0
Mo               9.4618001668        1.8192677454       -0.0001581312
S                9.4614961663        0.0000077495       -7.6506323570    0   0   0
S               11.0387603944        0.9079902707       -1.5649103896
S                9.4710726894        1.8253420942        4.5368646423
S                9.4614970401        0.0000068460       -4.5222282367    0   0   0
S               11.0374410911        0.9081410597        1.5672851853
S                9.4572471328        1.8110493530        7.6794120849
Mo              -3.1547793808        5.4557161854        6.1195549354
Mo               9.4614928959        3.6417399547       -6.0872367793    0   0   0
Mo               7.8850595095        4.5500117775       -0.0002700638
S                7.8845775964        2.7313069925       -7.6506323570    0   0   0
S                9.4621611537        3.6399809849       -1.5656135756
S                7.9000760117        4.5423890217        4.5385272288
S                7.8845784701        2.7313060890       -4.5222282367    0   0   0
S                9.4621315495        3.6400558354        1.5682137675
S                7.8899271712        4.5349324292        7.6809900155
Mo              -4.7289996990        8.1788616537        6.0869386008
Mo               7.8845743259        6.3730391977       -6.0872367793    0   0   0
Mo               6.3074073786        7.2810259595        0.0005337832
S                6.3076590264        5.4626062355       -7.6506323570    0   0   0
S                7.8843799096        6.3712336880       -1.5655001767
S                6.3209330378        7.2585665896        4.5250628843
S                6.3076599001        5.4626053320       -4.5222282367    0   0   0
S                7.8840879489        6.3701140486        1.5667164425
S                6.3453578409        7.2574470179        7.6974457799
Mo              -0.0031433844       -0.0095591259        6.0844152412
Mo               6.3076557559        9.1043384407       -6.0872367793    0   0   0
Mo               4.7303473637       10.0124375746        0.0011541805
S                4.7307404564        8.1939054785       -7.6506323570    0   0   0
S                6.3076616979        9.1025102256       -1.5641935678
S                4.7266452741       10.0200228442        4.5209723292
S                4.7307413301        8.1939045750       -4.5222282367    0   0   0
S                6.3070113986        9.1014101306        1.5684689734
S                4.7348439199       10.0464155295        7.6950723669
Pt               3.1318798746        5.5658311198        9.0669317999
Pt               4.4790732988        8.0308451476        9.1034635210
Pt               1.6857634785        8.0241379870        9.1574149971
Pt               0.1276745718        5.5487647950        8.9764062651
End final coordinates



     Writing all to output data dir ./outdir/pwscf.save/ :
     XML data file, charge density, pseudopotentials, collected wavefunctions
 
     init_run     :    100.49s CPU    103.09s WALL (       1 calls)
     electrons    : 104836.01s CPU 106298.02s WALL (      20 calls)
     update_pot   :     39.70s CPU     40.47s WALL (      19 calls)
     forces       :   1472.64s CPU   1501.58s WALL (      20 calls)
     force_dftd3  :      7.74s CPU      8.04s WALL (      20 calls)

     Called by init_run:
     wfcinit      :     82.27s CPU     83.41s WALL (       1 calls)
     potinit      :      1.89s CPU      2.19s WALL (       1 calls)
     hinit0       :      9.23s CPU      9.37s WALL (       1 calls)

     Called by electrons:
     c_bands      :  92071.60s CPU  93002.32s WALL (     293 calls)
     sum_band     :  10919.57s CPU  11196.33s WALL (     293 calls)
     v_of_rho     :     85.52s CPU     96.08s WALL (     299 calls)
     newd         :   1320.71s CPU   1563.98s WALL (     299 calls)
     PAW_pot      :    496.18s CPU    499.08s WALL (     318 calls)
     mix_rho      :     24.05s CPU     27.16s WALL (     293 calls)
     energy_dftd3 :      4.31s CPU      4.36s WALL (      20 calls)

     Called by c_bands:
     init_us_2    :    420.18s CPU    422.44s WALL (    2504 calls)
     init_us_2:cp :    420.16s CPU    422.43s WALL (    2504 calls)
     cegterg      :  90245.44s CPU  91168.02s WALL (    1200 calls)

     Called by *egterg:
     cdiaghg      :   5111.94s CPU   5323.24s WALL (   14487 calls)
     h_psi        :  46253.66s CPU  46556.12s WALL (   14631 calls)
     s_psi        :  10090.72s CPU  10133.35s WALL (   14631 calls)
     g_psi        :    101.89s CPU    102.33s WALL (   13427 calls)

     Called by h_psi:
     h_psi:calbec :   9597.12s CPU   9632.34s WALL (   14631 calls)
     vloc_psi     :  26287.32s CPU  26433.73s WALL (   14631 calls)
     add_vuspsi   :  10148.74s CPU  10196.04s WALL (   14631 calls)

     General routines
     calbec       :  13499.33s CPU  13547.85s WALL (   16199 calls)
     fft          :     61.51s CPU     70.47s WALL (    4100 calls)
     ffts         :      3.90s CPU      4.04s WALL (     592 calls)
     fftw         :  19702.61s CPU  19806.64s WALL ( 6916374 calls)
     interpolate  :      7.08s CPU      7.78s WALL (     299 calls)
 
     Parallel routines
 
     PWSCF        :   1d 5h42m CPU   1d 6h 8m WALL

 
   This run was terminated on:  22:22:53  24Feb2024            

=------------------------------------------------------------------------------=
   JOB DONE.
=------------------------------------------------------------------------------=
