
     Program PWSCF v.7.3 starts on 29Mar2024 at 16:59: 3 

     This program is part of the open-source Quantum ESPRESSO suite
     for quantum simulation of materials; please cite
         "P. Giannozzi et al., J. Phys.:Condens. Matter 21 395502 (2009);
         "P. Giannozzi et al., J. Phys.:Condens. Matter 29 465901 (2017);
         "P. Giannozzi et al., J. Chem. Phys. 152 154105 (2020);
          URL http://www.quantum-espresso.org", 
     in publications or presentations arising from this work. More details at
     http://www.quantum-espresso.org/quote

     Parallel version (MPI & OpenMP), running on      36 processor cores
     Number of MPI processes:                36
     Threads/MPI process:                     1

     MPI processes distributed on     1 nodes
     558585 MiB available memory on the printing compute node when the environment starts
 
     Waiting for input...
     Reading input from standard input
Warning: card &CELL ignored
Warning: card / ignored

     Current dimensions of program PWSCF are:
     Max number of different atomic species (ntypx) = 10
     Max number of k-points (npk) =  40000
     Max angular momentum in pseudopotentials (lmaxx) =  4
     file Mo.pbe-spn-kjpaw_psl.1.0.0.UPF: wavefunction(s)  4S 4D renormalized
     file S.pbe-n-kjpaw_psl.1.0.0.UPF: wavefunction(s)  3S 3P renormalized
     file Pd.pbe-spn-kjpaw_psl.1.0.0.UPF: wavefunction(s)  4S 5S 4D renormalized
     file Pt.pbe-spfn-kjpaw_psl.1.0.0.UPF: wavefunction(s)  5P 4F renormalized
 
     R & G space division:  proc/nbgrp/npool/nimage =      36
     Subspace diagonalization in iterative solution of the eigenvalue problem:
     one sub-group per band group will be used
     scalapack distributed-memory algorithm (size of sub-group:  6*  6 procs)

 
     Parallelization info
     --------------------
     sticks:   dense  smooth     PW     G-vecs:    dense   smooth      PW
     Min         586     335     89               165416    71459    9765
     Max         587     337     90               165425    71461    9778
     Sum       21109   12085   3205              5955087  2572543  351657
 
     Using Slab Decomposition
 


     bravais-lattice index     =            0
     lattice parameter (alat)  =      23.8395  a.u.
     unit-cell volume          =   28182.8498 (a.u.)^3
     number of atoms/cell      =          147
     number of atomic types    =            4
     number of electrons       =      1316.00
     number of Kohn-Sham states=          790
     kinetic-energy cutoff     =      77.0000  Ry
     charge density cutoff     =     539.0000  Ry
     scf convergence threshold =      1.0E-06
     mixing beta               =       0.2000
     number of iterations used =            8  plain     mixing
     energy convergence thresh.=      1.0E-04
     force convergence thresh. =      1.0E-03
     Exchange-correlation= SLA  PW   PBX  PBC
                           (   1   4   3   4   0   0   0)
     nstep                     =         1000


     Effective Screening Medium Method
     =================================
     Boundary Conditions: Vacuum-Slab-Vacuum
     total charge in unit cell        =   0.0000
     grid points for fit at edges     =        4 
 

     celldm(1)=  23.839504  celldm(2)=   0.000000  celldm(3)=   0.000000
     celldm(4)=   0.000000  celldm(5)=   0.000000  celldm(6)=   0.000000

     crystal axes: (cart. coord. in units of alat)
               a(1) = (   1.000000   0.000000   0.000000 )  
               a(2) = (  -0.500001   0.866026   0.000000 )  
               a(3) = (   0.000000   0.000000   2.401941 )  

     reciprocal axes: (cart. coord. in units 2 pi/alat)
               b(1) = (  1.000000  0.577351  0.000000 )  
               b(2) = (  0.000000  1.154700  0.000000 )  
               b(3) = (  0.000000  0.000000  0.416330 )  


     PseudoPot. # 1 for Mo read from file:
     ./pseudo/Mo.pbe-spn-kjpaw_psl.1.0.0.UPF
     MD5 check sum: 317bf72632116215fd98f72de1686f13
     Pseudo is Projector augmented-wave + core cor, Zval = 14.0
     Generated using 'atomic' code by A. Dal Corso  v.7.2
     Shape of augmentation charge: PSQ
     Using radial grid of 1229 points,  6 beta functions with: 
                l(1) =   0
                l(2) =   0
                l(3) =   1
                l(4) =   1
                l(5) =   2
                l(6) =   2
     Q(r) pseudized with 0 coefficients 


     PseudoPot. # 2 for S  read from file:
     ./pseudo/S.pbe-n-kjpaw_psl.1.0.0.UPF
     MD5 check sum: 8b7b5302570d38d5e87fed6a1065abda
     Pseudo is Projector augmented-wave + core cor, Zval =  6.0
     Generated using 'atomic' code by A. Dal Corso  v.7.2
     Shape of augmentation charge: PSQ
     Using radial grid of 1151 points,  6 beta functions with: 
                l(1) =   0
                l(2) =   0
                l(3) =   1
                l(4) =   1
                l(5) =   2
                l(6) =   2
     Q(r) pseudized with 0 coefficients 


     PseudoPot. # 3 for Pd read from file:
     ./pseudo/Pd.pbe-spn-kjpaw_psl.1.0.0.UPF
     MD5 check sum: a60571a671f2502b8a6a4569d20a6edb
     Pseudo is Projector augmented-wave + core cor, Zval = 18.0
     Generated using 'atomic' code by A. Dal Corso  v.7.2
     Shape of augmentation charge: PSQ
     Using radial grid of 1235 points,  6 beta functions with: 
                l(1) =   0
                l(2) =   0
                l(3) =   1
                l(4) =   1
                l(5) =   2
                l(6) =   2
     Q(r) pseudized with 0 coefficients 


     PseudoPot. # 4 for Pt read from file:
     ./pseudo/Pt.pbe-spfn-kjpaw_psl.1.0.0.UPF
     MD5 check sum: 620096ebf4e6ebacc94de60fd67efcb5
     Pseudo is Projector augmented-wave + core cor, Zval = 32.0
     Generated using 'atomic' code by A. Dal Corso  v.7.2
     Shape of augmentation charge: PSQ
     Using radial grid of 1277 points,  8 beta functions with: 
                l(1) =   0
                l(2) =   0
                l(3) =   1
                l(4) =   1
                l(5) =   2
                l(6) =   2
                l(7) =   3
                l(8) =   3
     Q(r) pseudized with 0 coefficients 


     atomic species   valence    mass     pseudopotential
     Mo               14.00    95.95000     Mo( 1.00)
     S                 6.00    32.06000     S ( 1.00)
     Pd               18.00   106.42000     Pd( 1.00)
     Pt               32.00   195.08400     Pt( 1.00)

     No symmetry found



   Cartesian axes

     site n.     atom                  positions (alat units)
         1        Mo     tau(   1) = (   0.1248625   0.2131281   0.4810783  )
         2        Mo     tau(   2) = (   0.1250004   0.0721694  -0.4825273  )
         3        Mo     tau(   3) = (  -0.0000005   0.1443526  -0.0000490  )
         4        S      tau(   4) = (   0.0000004   0.0000006  -0.6064556  )
         5        S      tau(   5) = (   0.1249809   0.0722325  -0.1242083  )
         6        S      tau(   6) = (  -0.0008091   0.1437924   0.3564499  )
         7        S      tau(   7) = (   0.0000004   0.0000005  -0.3584711  )
         8        S      tau(   8) = (   0.1250266   0.0721270   0.1240857  )
         9        S      tau(   9) = (  -0.0005942   0.1424836   0.6054838  )
        10        Mo     tau(  10) = (  -0.0011099   0.4328730   0.4866737  )
        11        Mo     tau(  11) = (   0.0000001   0.2886759  -0.4825273  )
        12        Mo     tau(  12) = (  -0.1249710   0.3608625  -0.0000153  )
        13        S      tau(  13) = (  -0.1249999   0.2165071  -0.6064556  )
        14        S      tau(  14) = (   0.0000009   0.2886909  -0.1241159  )
        15        S      tau(  15) = (  -0.1236884   0.3618446   0.3606188  )
        16        S      tau(  16) = (  -0.1249998   0.2165070  -0.3584711  )
        17        S      tau(  17) = (   0.0000530   0.2887092   0.1242638  )
        18        S      tau(  18) = (  -0.1316249   0.3573130   0.6109420  )
        19        Mo     tau(  19) = (  -0.1257401   0.6504248   0.4820927  )
        20        Mo     tau(  20) = (  -0.1250002   0.5051824  -0.4825273  )
        21        Mo     tau(  21) = (  -0.2499958   0.5773353  -0.0001714  )
        22        S      tau(  22) = (  -0.2500002   0.4330136  -0.6064556  )
        23        S      tau(  23) = (  -0.1249719   0.5051311  -0.1241932  )
        24        S      tau(  24) = (  -0.2500164   0.5770675   0.3576049  )
        25        S      tau(  25) = (  -0.2500001   0.4330135  -0.3584711  )
        26        S      tau(  26) = (  -0.1250100   0.5052346   0.1241515  )
        27        S      tau(  27) = (  -0.2503695   0.5776584   0.6061514  )
        28        Mo     tau(  28) = (   0.2502170  -0.0003953   0.4806411  )
        29        Mo     tau(  29) = (  -0.2500004   0.7216889  -0.4825273  )
        30        Mo     tau(  30) = (  -0.3749978   0.7938641  -0.0002041  )
        31        S      tau(  31) = (  -0.3750004   0.6495201  -0.6064556  )
        32        S      tau(  32) = (  -0.2499890   0.7216755  -0.1242803  )
        33        S      tau(  33) = (  -0.3749740   0.7932749   0.3566586  )
        34        S      tau(  34) = (  -0.3750004   0.6495200  -0.3584711  )
        35        S      tau(  35) = (  -0.2500089   0.7216778   0.1239952  )
        36        S      tau(  36) = (  -0.3749998   0.7939174   0.6051309  )
        37        Mo     tau(  37) = (   0.3753608   0.2157704   0.4822604  )
        38        Mo     tau(  38) = (   0.3750004   0.0721694  -0.4825273  )
        39        Mo     tau(  39) = (   0.2499960   0.1443611  -0.0001003  )
        40        S      tau(  40) = (   0.2500004   0.0000006  -0.6064556  )
        41        S      tau(  41) = (   0.3750017   0.0721909  -0.1242276  )
        42        S      tau(  42) = (   0.2507085   0.1439928   0.3565793  )
        43        S      tau(  43) = (   0.2500004   0.0000005  -0.3584711  )
        44        S      tau(  44) = (   0.3750105   0.0721153   0.1240138  )
        45        S      tau(  45) = (   0.2503040   0.1425185   0.6055897  )
        46        Mo     tau(  46) = (   0.2508295   0.4328457   0.4866827  )
        47        Mo     tau(  47) = (   0.2500001   0.2886759  -0.4825273  )
        48        Mo     tau(  48) = (   0.1249947   0.3608692  -0.0000343  )
        49        S      tau(  49) = (   0.1250001   0.2165071  -0.6064556  )
        50        S      tau(  50) = (   0.2499709   0.2887106  -0.1241515  )
        51        S      tau(  51) = (   0.1248475   0.3620695   0.3632119  )
        52        S      tau(  52) = (   0.1250002   0.2165070  -0.3584711  )
        53        S      tau(  53) = (   0.2499461   0.2887051   0.1242364  )
        54        S      tau(  54) = (   0.1248217   0.3502704   0.6102012  )
        55        Mo     tau(  55) = (   0.1249300   0.6515066   0.4828014  )
        56        Mo     tau(  56) = (   0.1249998   0.5051824  -0.4825273  )
        57        Mo     tau(  57) = (   0.0000129   0.5773133  -0.0000993  )
        58        S      tau(  58) = (  -0.0000002   0.4330136  -0.6064556  )
        59        S      tau(  59) = (   0.1250046   0.5051576  -0.1241791  )
        60        S      tau(  60) = (   0.0000991   0.5758547   0.3610070  )
        61        S      tau(  61) = (  -0.0000001   0.4330135  -0.3584711  )
        62        S      tau(  62) = (   0.1249978   0.5051967   0.1242137  )
        63        S      tau(  63) = (  -0.0004561   0.5855879   0.6099183  )
        64        Mo     tau(  64) = (   0.4999896   0.0002543   0.4809432  )
        65        Mo     tau(  65) = (  -0.0000004   0.7216889  -0.4825273  )
        66        Mo     tau(  66) = (  -0.1249822   0.7938260  -0.0001787  )
        67        S      tau(  67) = (  -0.1250004   0.6495201  -0.6064556  )
        68        S      tau(  68) = (   0.0000560   0.7216541  -0.1241922  )
        69        S      tau(  69) = (  -0.1247643   0.7934174   0.3566857  )
        70        S      tau(  70) = (  -0.1250004   0.6495200  -0.3584711  )
        71        S      tau(  71) = (  -0.0000442   0.7215876   0.1241439  )
        72        S      tau(  72) = (  -0.1253483   0.7949346   0.6057201  )
        73        Mo     tau(  73) = (   0.6249017   0.2165129   0.4812697  )
        74        Mo     tau(  74) = (   0.6250004   0.0721694  -0.4825273  )
        75        Mo     tau(  75) = (   0.4999952   0.1443533  -0.0001098  )
        76        S      tau(  76) = (   0.5000004   0.0000006  -0.6064556  )
        77        S      tau(  77) = (   0.6250318   0.0721540  -0.1241362  )
        78        S      tau(  78) = (   0.4996954   0.1447446   0.3570727  )
        79        S      tau(  79) = (   0.5000004   0.0000005  -0.3584711  )
        80        S      tau(  80) = (   0.6249569   0.0721720   0.1241430  )
        81        S      tau(  81) = (   0.5006050   0.1436236   0.6059489  )
        82        Mo     tau(  82) = (   0.5006857   0.4329470   0.4824369  )
        83        Mo     tau(  83) = (   0.5000001   0.2886759  -0.4825273  )
        84        Mo     tau(  84) = (   0.3749597   0.3608609  -0.0000517  )
        85        S      tau(  85) = (   0.3750001   0.2165071  -0.6064556  )
        86        S      tau(  86) = (   0.4999928   0.2887170  -0.1241435  )
        87        S      tau(  87) = (   0.3733222   0.3618437   0.3607838  )
        88        S      tau(  88) = (   0.3750002   0.2165070  -0.3584711  )
        89        S      tau(  89) = (   0.4999211   0.2887076   0.1241935  )
        90        S      tau(  90) = (   0.3816191   0.3573238   0.6109900  )
        91        Mo     tau(  91) = (   0.3756235   0.6503811   0.4821918  )
        92        Mo     tau(  92) = (   0.3749998   0.5051824  -0.4825273  )
        93        Mo     tau(  93) = (   0.2499864   0.5773188  -0.0000834  )
        94        S      tau(  94) = (   0.2499998   0.4330136  -0.6064556  )
        95        S      tau(  95) = (   0.3749642   0.5051523  -0.1241979  )
        96        S      tau(  96) = (   0.2498138   0.5757592   0.3610614  )
        97        S      tau(  97) = (   0.2499999   0.4330135  -0.3584711  )
        98        S      tau(  98) = (   0.3750061   0.5052047   0.1241511  )
        99        S      tau(  99) = (   0.2502814   0.5855194   0.6099661  )
       100        Mo     tau( 100) = (   0.7499287   0.0002139   0.4807633  )
       101        Mo     tau( 101) = (   0.2499996   0.7216889  -0.4825273  )
       102        Mo     tau( 102) = (   0.1249938   0.7938245  -0.0000338  )
       103        S      tau( 103) = (   0.1249996   0.6495201  -0.6064556  )
       104        S      tau( 104) = (   0.2499613   0.7216724  -0.1241590  )
       105        S      tau( 105) = (   0.1248898   0.7937393   0.3567607  )
       106        S      tau( 106) = (   0.1249996   0.6495200  -0.3584711  )
       107        S      tau( 107) = (   0.2500082   0.7215902   0.1241792  )
       108        S      tau( 108) = (   0.1250505   0.7963098   0.6059971  )
       109        Mo     tau( 109) = (  -0.1255078   0.2157673   0.4820262  )
       110        Mo     tau( 110) = (   0.8750004   0.0721694  -0.4825273  )
       111        Mo     tau( 111) = (   0.7499955   0.1443569  -0.0000274  )
       112        S      tau( 112) = (   0.7500004   0.0000006  -0.6064556  )
       113        S      tau( 113) = (   0.8749777   0.0721989  -0.1241465  )
       114        S      tau( 114) = (   0.7500467   0.1447298   0.3568874  )
       115        S      tau( 115) = (   0.7500004   0.0000005  -0.3584711  )
       116        S      tau( 116) = (   0.8749903   0.0721117   0.1240970  )
       117        S      tau( 117) = (   0.7493677   0.1435906   0.6057073  )
       118        Mo     tau( 118) = (  -0.2508787   0.4328922   0.4823938  )
       119        Mo     tau( 119) = (   0.7500001   0.2886759  -0.4825273  )
       120        Mo     tau( 120) = (   0.6249968   0.3608571  -0.0000279  )
       121        S      tau( 121) = (   0.6250001   0.2165071  -0.6064556  )
       122        S      tau( 122) = (   0.7500208   0.2886896  -0.1240956  )
       123        S      tau( 123) = (   0.6248005   0.3612471   0.3574315  )
       124        S      tau( 124) = (   0.6250002   0.2165070  -0.3584711  )
       125        S      tau( 125) = (   0.7500493   0.2887427   0.1242427  )
       126        S      tau( 126) = (   0.6249033   0.3601959   0.6065890  )
       127        Mo     tau( 127) = (  -0.3750379   0.6494479   0.4815491  )
       128        Mo     tau( 128) = (   0.6249998   0.5051824  -0.4825273  )
       129        Mo     tau( 129) = (   0.4999893   0.5773309  -0.0001634  )
       130        S      tau( 130) = (   0.4999998   0.4330136  -0.6064556  )
       131        S      tau( 131) = (   0.6249961   0.5051217  -0.1242214  )
       132        S      tau( 132) = (   0.4998255   0.5770883   0.3576879  )
       133        S      tau( 133) = (   0.4999999   0.4330135  -0.3584711  )
       134        S      tau( 134) = (   0.6249981   0.5052504   0.1240736  )
       135        S      tau( 135) = (   0.5003122   0.5776902   0.6062470  )
       136        Mo     tau( 136) = (  -0.0002805  -0.0004824   0.4806096  )
       137        Mo     tau( 137) = (   0.4999996   0.7216889  -0.4825273  )
       138        Mo     tau( 138) = (   0.3749756   0.7938309  -0.0001159  )
       139        S      tau( 139) = (   0.3749996   0.6495201  -0.6064556  )
       140        S      tau( 140) = (   0.4999628   0.7216864  -0.1242513  )
       141        S      tau( 141) = (   0.3747357   0.7932164   0.3566619  )
       142        S      tau( 142) = (   0.3749996   0.6495200  -0.3584711  )
       143        S      tau( 143) = (   0.5000348   0.7216656   0.1240143  )
       144        S      tau( 144) = (   0.3751928   0.7949639   0.6056664  )
       145        Pd     tau( 145) = (   0.2448410   0.4348549   0.7173028  )
       146        Pd     tau( 146) = (   0.0055759   0.4353384   0.7172832  )
       147        Pt     tau( 147) = (   0.3753372   0.2157694   0.7299061  )

     --------------------------------------------
     DFT-D3 Dispersion Correction (3-body terms):
     --------------------------------------------
       Reference C6 values for interpolation: 

         atom   Coordination number   C6
         S          0.000           268.01
         S          0.995           261.99
         S          1.990           251.62
         Mo         0.000          1691.79
         Mo         1.942          1004.01
         Mo        11.056           674.22
         Pd         0.000          1217.01
         Pd         1.863           573.90
         Pd         5.710           531.75
         Pt         0.000           782.29
         Pt         1.919           692.72
         Pt         6.667           673.75

       Values used:

         atom   Coordination number  R0_AB[au]  C6      C8
         Mo        10.172            3.547    674.22  77634.20
         Mo        10.189            3.547    674.22  77634.20
         Mo        10.201            3.547    674.22  77634.20
         S          3.753            3.128    251.62  12327.25
         S          3.858            3.128    251.62  12327.25
         S          3.843            3.128    251.62  12327.25
         S          3.859            3.128    251.62  12327.25
         S          3.863            3.128    251.62  12327.25
         S          3.814            3.128    251.62  12327.25
         Mo        10.769            3.547    674.22  77634.20
         Mo        10.189            3.547    674.22  77634.20
         Mo        10.202            3.547    674.22  77634.20
         S          3.753            3.128    251.62  12327.25
         S          3.859            3.128    251.62  12327.25
         S          3.853            3.128    251.62  12327.25
         S          3.858            3.128    251.62  12327.25
         S          3.851            3.128    251.62  12327.25
         S          4.638            3.128    251.62  12327.25
         Mo        10.197            3.547    674.22  77634.20
         Mo        10.189            3.547    674.22  77634.20
         Mo        10.201            3.547    674.22  77634.20
         S          3.753            3.128    251.62  12327.25
         S          3.859            3.128    251.62  12327.25
         S          3.862            3.128    251.62  12327.25
         S          3.859            3.128    251.62  12327.25
         S          3.855            3.128    251.62  12327.25
         S          3.758            3.128    251.62  12327.25
         Mo        10.257            3.547    674.22  77634.20
         Mo        10.189            3.547    674.22  77634.20
         Mo        10.200            3.547    674.22  77634.20
         S          3.753            3.128    251.62  12327.25
         S          3.858            3.128    251.62  12327.25
         S          3.860            3.128    251.62  12327.25
         S          3.859            3.128    251.62  12327.25
         S          3.864            3.128    251.62  12327.25
         S          3.777            3.128    251.62  12327.25
         Mo        10.730            3.547    674.22  77634.20
         Mo        10.189            3.547    674.22  77634.20
         Mo        10.201            3.547    674.22  77634.20
         S          3.753            3.128    251.62  12327.25
         S          3.858            3.128    251.62  12327.25
         S          3.846            3.128    251.62  12327.25
         S          3.859            3.128    251.62  12327.25
         S          3.864            3.128    251.62  12327.25
         S          4.762            3.128    251.62  12327.25
         Mo        10.777            3.547    674.22  77634.20
         Mo        10.189            3.547    674.22  77634.20
         Mo        10.203            3.547    674.22  77634.20
         S          3.753            3.128    251.62  12327.25
         S          3.859            3.128    251.62  12327.25
         S          3.877            3.128    251.62  12327.25
         S          3.859            3.128    251.62  12327.25
         S          3.852            3.128    251.62  12327.25
         S          5.616            3.128    251.62  12327.25
         Mo        10.160            3.547    674.22  77634.20
         Mo        10.189            3.547    674.22  77634.20
         Mo        10.203            3.547    674.22  77634.20
         S          3.753            3.128    251.62  12327.25
         S          3.859            3.128    251.62  12327.25
         S          3.866            3.128    251.62  12327.25
         S          3.859            3.128    251.62  12327.25
         S          3.849            3.128    251.62  12327.25
         S          4.659            3.128    251.62  12327.25
         Mo        10.252            3.547    674.22  77634.20
         Mo        10.189            3.547    674.22  77634.20
         Mo        10.200            3.547    674.22  77634.20
         S          3.753            3.128    251.62  12327.25
         S          3.858            3.128    251.62  12327.25
         S          3.855            3.128    251.62  12327.25
         S          3.859            3.128    251.62  12327.25
         S          3.859            3.128    251.62  12327.25
         S          3.815            3.128    251.62  12327.25
         Mo        10.238            3.547    674.22  77634.20
         Mo        10.189            3.547    674.22  77634.20
         Mo        10.200            3.547    674.22  77634.20
         S          3.753            3.128    251.62  12327.25
         S          3.858            3.128    251.62  12327.25
         S          3.853            3.128    251.62  12327.25
         S          3.859            3.128    251.62  12327.25
         S          3.861            3.128    251.62  12327.25
         S          4.760            3.128    251.62  12327.25
         Mo        10.216            3.547    674.22  77634.20
         Mo        10.189            3.547    674.22  77634.20
         Mo        10.202            3.547    674.22  77634.20
         S          3.753            3.128    251.62  12327.25
         S          3.858            3.128    251.62  12327.25
         S          3.857            3.128    251.62  12327.25
         S          3.859            3.128    251.62  12327.25
         S          3.856            3.128    251.62  12327.25
         S          5.614            3.128    251.62  12327.25
         Mo        10.197            3.547    674.22  77634.20
         Mo        10.189            3.547    674.22  77634.20
         Mo        10.203            3.547    674.22  77634.20
         S          3.753            3.128    251.62  12327.25
         S          3.859            3.128    251.62  12327.25
         S          3.867            3.128    251.62  12327.25
         S          3.859            3.128    251.62  12327.25
         S          3.855            3.128    251.62  12327.25
         S          4.658            3.128    251.62  12327.25
         Mo        10.242            3.547    674.22  77634.20
         Mo        10.189            3.547    674.22  77634.20
         Mo        10.201            3.547    674.22  77634.20
         S          3.753            3.128    251.62  12327.25
         S          3.859            3.128    251.62  12327.25
         S          3.844            3.128    251.62  12327.25
         S          3.859            3.128    251.62  12327.25
         S          3.858            3.128    251.62  12327.25
         S          3.833            3.128    251.62  12327.25
         Mo        10.201            3.547    674.22  77634.20
         Mo        10.189            3.547    674.22  77634.20
         Mo        10.200            3.547    674.22  77634.20
         S          3.753            3.128    251.62  12327.25
         S          3.859            3.128    251.62  12327.25
         S          3.851            3.128    251.62  12327.25
         S          3.859            3.128    251.62  12327.25
         S          3.863            3.128    251.62  12327.25
         S          3.811            3.128    251.62  12327.25
         Mo        10.207            3.547    674.22  77634.20
         Mo        10.189            3.547    674.22  77634.20
         Mo        10.201            3.547    674.22  77634.20
         S          3.753            3.128    251.62  12327.25
         S          3.859            3.128    251.62  12327.25
         S          3.847            3.128    251.62  12327.25
         S          3.858            3.128    251.62  12327.25
         S          3.856            3.128    251.62  12327.25
         S          3.832            3.128    251.62  12327.25
         Mo        10.224            3.547    674.22  77634.20
         Mo        10.189            3.547    674.22  77634.20
         Mo        10.201            3.547    674.22  77634.20
         S          3.753            3.128    251.62  12327.25
         S          3.859            3.128    251.62  12327.25
         S          3.864            3.128    251.62  12327.25
         S          3.859            3.128    251.62  12327.25
         S          3.861            3.128    251.62  12327.25
         S          3.758            3.128    251.62  12327.25
         Mo        10.248            3.547    674.22  77634.20
         Mo        10.189            3.547    674.22  77634.20
         Mo        10.200            3.547    674.22  77634.20
         S          3.753            3.128    251.62  12327.25
         S          3.858            3.128    251.62  12327.25
         S          3.854            3.128    251.62  12327.25
         S          3.859            3.128    251.62  12327.25
         S          3.864            3.128    251.62  12327.25
         S          3.804            3.128    251.62  12327.25
         Pd         4.229            3.168    531.75  48720.73
         Pd         4.035            3.168    531.77  48722.47
         Pt         3.710            3.168    692.72  72035.25

         Molecular C6 ( Ry / a.u.^6 ) =   8063087.60


     number of k points=     4  Gaussian smearing, width (Ry)=  0.0100
                       cart. coord. in units 2pi/alat
        k(    1) = (   0.0000000   0.0000000   0.0000000), wk =   0.5000000
        k(    2) = (   0.0000000  -0.5773499   0.0000000), wk =   0.5000000
        k(    3) = (  -0.5000000  -0.2886755   0.0000000), wk =   0.5000000
        k(    4) = (  -0.5000000  -0.8660254   0.0000000), wk =   0.5000000

     Dense  grid:  5955087 G-vectors     FFT dimensions: ( 180, 180, 432)

     Smooth grid:  2572543 G-vectors     FFT dimensions: ( 135, 135, 320)

     Estimated max dynamical RAM per process >       3.08 GB

     Estimated total dynamical RAM >     110.88 GB

     Initial potential from superposition of free atoms

     starting charge    1315.9537, renormalised to    1316.0000

     negative rho (up, down):  1.032E-03 0.000E+00
     Starting wfcs are  901 randomized atomic wfcs
     Checking if some PAW data can be deallocated... 

     total cpu time spent up to now is      100.8 secs

     Self-consistent Calculation

     iteration #  1     ecut=    77.00 Ry     beta= 0.20
     Davidson diagonalization with overlap
     ethr =  1.00E-02,  avg # of iterations =  2.0

     Threshold (ethr) on eigenvalues was too large:
     Diagonalizing with lowered threshold

     Davidson diagonalization with overlap
     ethr =  2.26E-04,  avg # of iterations = 15.8

     negative rho (up, down):  3.339E-04 0.000E+00

     total cpu time spent up to now is     1067.2 secs

     total energy              =  -26543.55540704 Ry
     estimated scf accuracy    <       4.75116205 Ry

     iteration #  2     ecut=    77.00 Ry     beta= 0.20
     Davidson diagonalization with overlap
     ethr =  3.61E-04,  avg # of iterations =  3.0

     negative rho (up, down):  7.431E-05 0.000E+00

     total cpu time spent up to now is     1294.2 secs

     total energy              =  -26542.90386512 Ry
     estimated scf accuracy    <       2.36050019 Ry

     iteration #  3     ecut=    77.00 Ry     beta= 0.20
     Davidson diagonalization with overlap
     ethr =  1.79E-04,  avg # of iterations = 12.5

     negative rho (up, down):  3.821E-05 0.000E+00

     total cpu time spent up to now is     1567.7 secs

     total energy              =  -26543.10830050 Ry
     estimated scf accuracy    <       0.90117338 Ry

     iteration #  4     ecut=    77.00 Ry     beta= 0.20
     Davidson diagonalization with overlap
     c_bands:  1 eigenvalues not converged
     ethr =  6.85E-05,  avg # of iterations = 14.8

     negative rho (up, down):  3.738E-05 0.000E+00

     total cpu time spent up to now is     2002.6 secs

     total energy              =  -26543.40465705 Ry
     estimated scf accuracy    <       0.30371962 Ry

     iteration #  5     ecut=    77.00 Ry     beta= 0.20
     Davidson diagonalization with overlap
     ethr =  2.31E-05,  avg # of iterations =  9.8

     negative rho (up, down):  6.183E-05 0.000E+00

     total cpu time spent up to now is     2473.8 secs

     total energy              =  -26543.67188960 Ry
     estimated scf accuracy    <       0.11772382 Ry

     iteration #  6     ecut=    77.00 Ry     beta= 0.20
     Davidson diagonalization with overlap
     c_bands:  4 eigenvalues not converged
     c_bands:  1 eigenvalues not converged
     c_bands:  1 eigenvalues not converged
     c_bands:  4 eigenvalues not converged
     ethr =  8.95E-06,  avg # of iterations = 45.0

     negative rho (up, down):  1.277E-04 0.000E+00

     total cpu time spent up to now is     3256.1 secs

     total energy              =  -26543.71915794 Ry
     estimated scf accuracy    <       0.08852444 Ry

     iteration #  7     ecut=    77.00 Ry     beta= 0.20
     Davidson diagonalization with overlap
     c_bands:  1 eigenvalues not converged
     c_bands:  1 eigenvalues not converged
     ethr =  6.73E-06,  avg # of iterations = 12.0

     negative rho (up, down):  8.848E-04 0.000E+00

     total cpu time spent up to now is     3499.0 secs

     total energy              =  -26543.71802995 Ry
     estimated scf accuracy    <       0.05046915 Ry

     iteration #  8     ecut=    77.00 Ry     beta= 0.20
     Davidson diagonalization with overlap
     c_bands:  1 eigenvalues not converged
     c_bands:  1 eigenvalues not converged
     c_bands:  2 eigenvalues not converged
     c_bands:  1 eigenvalues not converged
     ethr =  3.84E-06,  avg # of iterations = 20.0

     negative rho (up, down):  6.271E-04 0.000E+00

     total cpu time spent up to now is     4049.1 secs

     total energy              =  -26543.72051902 Ry
     estimated scf accuracy    <       0.10693039 Ry

     iteration #  9     ecut=    77.00 Ry     beta= 0.20
     Davidson diagonalization with overlap
     c_bands:  2 eigenvalues not converged
     ethr =  3.84E-06,  avg # of iterations = 11.2

     negative rho (up, down):  5.150E-04 0.000E+00

     total cpu time spent up to now is     4311.9 secs

     total energy              =  -26543.71983878 Ry
     estimated scf accuracy    <       0.01552532 Ry

     iteration # 10     ecut=    77.00 Ry     beta= 0.20
     Davidson diagonalization with overlap
     c_bands:  4 eigenvalues not converged
     ethr =  1.18E-06,  avg # of iterations = 30.5

     negative rho (up, down):  6.078E-04 0.000E+00

     total cpu time spent up to now is     5138.5 secs

     total energy              =  -26543.74300425 Ry
     estimated scf accuracy    <       0.01578833 Ry

     iteration # 11     ecut=    77.00 Ry     beta= 0.20
     Davidson diagonalization with overlap
     ethr =  1.18E-06,  avg # of iterations =  1.5

     negative rho (up, down):  7.738E-04 0.000E+00

     total cpu time spent up to now is     5352.9 secs

     total energy              =  -26543.73941446 Ry
     estimated scf accuracy    <       0.00748858 Ry

     iteration # 12     ecut=    77.00 Ry     beta= 0.20
     Davidson diagonalization with overlap
     ethr =  5.69E-07,  avg # of iterations =  5.2

     negative rho (up, down):  8.427E-04 0.000E+00

     total cpu time spent up to now is     5625.3 secs

     total energy              =  -26543.74069718 Ry
     estimated scf accuracy    <       0.00084143 Ry

     iteration # 13     ecut=    77.00 Ry     beta= 0.20
     Davidson diagonalization with overlap
     c_bands:  1 eigenvalues not converged
     ethr =  6.39E-08,  avg # of iterations = 20.8

     negative rho (up, down):  8.332E-04 0.000E+00

     total cpu time spent up to now is     6782.0 secs

     total energy              =  -26543.74376491 Ry
     estimated scf accuracy    <       0.00069425 Ry

     iteration # 14     ecut=    77.00 Ry     beta= 0.20
     Davidson diagonalization with overlap
     ethr =  5.28E-08,  avg # of iterations =  1.2

     negative rho (up, down):  8.530E-04 0.000E+00

     total cpu time spent up to now is     6991.9 secs

     total energy              =  -26543.74360648 Ry
     estimated scf accuracy    <       0.00043146 Ry

     iteration # 15     ecut=    77.00 Ry     beta= 0.20
     Davidson diagonalization with overlap
     ethr =  3.28E-08,  avg # of iterations =  6.0

     negative rho (up, down):  9.036E-04 0.000E+00

     total cpu time spent up to now is     7249.8 secs

     total energy              =  -26543.74361703 Ry
     estimated scf accuracy    <       0.00010940 Ry

     iteration # 16     ecut=    77.00 Ry     beta= 0.20
     Davidson diagonalization with overlap
     c_bands:  1 eigenvalues not converged
     c_bands:  2 eigenvalues not converged
     ethr =  8.31E-09,  avg # of iterations = 25.5

     negative rho (up, down):  9.248E-04 0.000E+00

     total cpu time spent up to now is     8163.4 secs

     total energy              =  -26543.74380532 Ry
     estimated scf accuracy    <       0.00009206 Ry

     iteration # 17     ecut=    77.00 Ry     beta= 0.20
     Davidson diagonalization with overlap
     c_bands:  1 eigenvalues not converged
     ethr =  7.00E-09,  avg # of iterations =  9.8

     negative rho (up, down):  9.407E-04 0.000E+00

     total cpu time spent up to now is     8414.5 secs

     total energy              =  -26543.74380950 Ry
     estimated scf accuracy    <       0.00001563 Ry

     iteration # 18     ecut=    77.00 Ry     beta= 0.20
     Davidson diagonalization with overlap
     c_bands:  1 eigenvalues not converged
     c_bands:  1 eigenvalues not converged
     ethr =  1.19E-09,  avg # of iterations = 19.0

     negative rho (up, down):  9.406E-04 0.000E+00

     total cpu time spent up to now is     9516.4 secs

     total energy              =  -26543.74384760 Ry
     estimated scf accuracy    <       0.00018633 Ry

     iteration # 19     ecut=    77.00 Ry     beta= 0.20
     Davidson diagonalization with overlap
     ethr =  1.19E-09,  avg # of iterations =  5.0

     negative rho (up, down):  9.397E-04 0.000E+00

     total cpu time spent up to now is     9857.8 secs

     total energy              =  -26543.74382292 Ry
     estimated scf accuracy    <       0.00008044 Ry

     iteration # 20     ecut=    77.00 Ry     beta= 0.20
     Davidson diagonalization with overlap
     ethr =  1.19E-09,  avg # of iterations =  7.8

     negative rho (up, down):  9.441E-04 0.000E+00

     total cpu time spent up to now is    10297.9 secs

     total energy              =  -26543.74383397 Ry
     estimated scf accuracy    <       0.00000986 Ry

     iteration # 21     ecut=    77.00 Ry     beta= 0.20
     Davidson diagonalization with overlap
     ethr =  7.49E-10,  avg # of iterations =  5.0

     negative rho (up, down):  9.499E-04 0.000E+00

     total cpu time spent up to now is    10535.1 secs

     total energy              =  -26543.74382992 Ry
     estimated scf accuracy    <       0.00000802 Ry

     iteration # 22     ecut=    77.00 Ry     beta= 0.20
     Davidson diagonalization with overlap
     ethr =  6.10E-10,  avg # of iterations =  6.2

     negative rho (up, down):  9.503E-04 0.000E+00

     total cpu time spent up to now is    10799.9 secs

     total energy              =  -26543.74383015 Ry
     estimated scf accuracy    <       0.00000277 Ry

     iteration # 23     ecut=    77.00 Ry     beta= 0.20
     Davidson diagonalization with overlap
     c_bands:  2 eigenvalues not converged
     c_bands:  1 eigenvalues not converged
     ethr =  2.10E-10,  avg # of iterations = 15.5

     negative rho (up, down):  9.500E-04 0.000E+00

     total cpu time spent up to now is    11441.5 secs

     total energy              =  -26543.74383612 Ry
     estimated scf accuracy    <       0.00000338 Ry

     iteration # 24     ecut=    77.00 Ry     beta= 0.20
     Davidson diagonalization with overlap
     c_bands:  1 eigenvalues not converged
     c_bands:  1 eigenvalues not converged
     ethr =  2.10E-10,  avg # of iterations = 10.5

     negative rho (up, down):  9.504E-04 0.000E+00

     total cpu time spent up to now is    11671.0 secs

     total energy              =  -26543.74383538 Ry
     estimated scf accuracy    <       0.00000226 Ry

     iteration # 25     ecut=    77.00 Ry     beta= 0.20
     Davidson diagonalization with overlap
     c_bands:  1 eigenvalues not converged
     c_bands:  1 eigenvalues not converged
     ethr =  1.72E-10,  avg # of iterations = 10.8

     negative rho (up, down):  9.507E-04 0.000E+00

     total cpu time spent up to now is    11905.2 secs

     total energy              =  -26543.74383488 Ry
     estimated scf accuracy    <       0.00000112 Ry

     iteration # 26     ecut=    77.00 Ry     beta= 0.20
     Davidson diagonalization with overlap
     ethr =  8.54E-11,  avg # of iterations =  6.0

     negative rho (up, down):  9.504E-04 0.000E+00

     total cpu time spent up to now is    12254.1 secs

     End of self-consistent calculation

          k = 0.0000 0.0000 0.0000 (321495 PWs)   bands (ev):

  -102.1353 -88.8080 -88.7331 -70.4756 -70.4746 -70.4524 -70.4477 -70.4343
   -70.4211 -70.4096 -66.6825 -66.6615 -66.6615 -66.6614 -66.6614 -66.6614
   -66.6614 -66.6403 -66.6403 -66.6403 -66.6403 -66.6402 -66.6402 -66.6402
   -66.6402 -66.6402 -66.6165 -66.5959 -66.5958 -66.5957 -66.5953 -66.5951
   -66.5950 -66.5749 -66.5748 -66.5746 -66.5745 -66.5742 -66.5741 -66.5739
   -66.5738 -66.5734 -66.5409 -66.5285 -66.5215 -66.5161 -66.5104 -66.5057
   -66.5039 -66.4984 -66.4967 -66.4909 -66.4863 -66.4836 -66.4807 -66.4760
   -66.4584 -66.4514 -56.4257 -56.3564 -56.3063 -54.6269 -54.5997 -54.5873
   -54.5711 -54.5125 -54.4817 -41.0089 -41.0089 -41.0089 -40.9419 -40.9418
   -40.9417 -40.9341 -40.9341 -40.9341 -40.9341 -40.9341 -40.9341 -40.8673
   -40.8672 -40.8671 -40.8669 -40.8669 -40.8668 -40.8581 -40.8547 -40.8510
   -40.8426 -40.8086 -40.8086 -40.8086 -40.8086 -40.8086 -40.8086 -40.8012
   -40.8012 -40.8012 -40.8012 -40.8012 -40.8012 -40.7872 -40.7820 -40.7771
   -40.7751 -40.7737 -40.7737 -40.7737 -40.7737 -40.7737 -40.7737 -40.7714
   -40.7687 -40.7659 -40.7595 -40.7595 -40.7595 -40.7595 -40.7595 -40.7595
   -40.7595 -40.7595 -40.7595 -40.7419 -40.7418 -40.7417 -40.7415 -40.7414
   -40.7414 -40.7362 -40.7360 -40.7359 -40.7356 -40.7354 -40.7353 -40.7180
   -40.7071 -40.7070 -40.7069 -40.7067 -40.7066 -40.7065 -40.6959 -40.6959
   -40.6959 -40.6948 -40.6946 -40.6943 -40.6942 -40.6941 -40.6939 -40.6939
   -40.6938 -40.6937 -40.6933 -40.6780 -40.6720 -40.6680 -40.6619 -40.6607
   -40.6586 -40.6579 -40.6545 -40.6491 -40.6491 -40.6491 -40.6491 -40.6491
   -40.6491 -40.6491 -40.6456 -40.6412 -40.6352 -40.6341 -40.6292 -40.6291
   -40.6290 -40.6282 -40.6262 -40.6250 -40.6236 -40.6204 -40.6200 -40.6166
   -40.6153 -40.6136 -40.6088 -40.6083 -40.6018 -40.6018 -40.6018 -40.5982
   -40.5826 -40.5825 -40.5824 -40.5822 -40.5821 -40.5820 -40.5431 -40.5388
   -40.5350 -40.5350 -40.5348 -40.4963 -40.4919 -40.4894 -40.4866 -40.4821
   -40.4773 -40.4401 -40.4316 -20.1489 -20.0820 -19.9263 -19.4682 -19.4192
   -19.2668 -19.2515 -19.2502 -19.2482 -19.2398 -19.2386 -19.2145 -19.1749
   -19.1614 -19.1421 -19.0937 -19.0910 -19.0770 -19.0614 -19.0520 -19.0274
   -18.8818 -18.7342 -18.6906 -18.6032 -18.5211 -18.5107 -18.4914 -18.4801
   -18.4689 -18.4387 -18.4211 -18.3797 -18.3727 -18.3611 -18.3527 -18.3002
   -18.2841 -18.2246 -18.2178 -18.2070 -18.2043 -18.1852 -18.1535 -18.1425
   -18.1423 -18.1418 -18.1417 -18.1416 -18.1416 -18.1066 -18.1028 -18.1017
   -18.1015 -18.1003 -18.0687 -18.0616 -18.0593 -18.0567 -18.0562 -18.0519
   -18.0310 -18.0281 -18.0273 -18.0167 -17.9837 -17.9735 -17.9659 -17.9639
   -17.9483 -17.9447 -17.9442 -17.9382 -17.9329 -17.9244 -17.9178 -17.9167
   -17.9146 -17.8921 -17.8845 -17.8832 -17.8699 -17.8643 -17.8581 -17.8504
   -17.8486 -17.8433 -17.8225 -17.8157 -17.8142 -17.7942 -17.7881 -17.7768
   -17.7658 -17.7631 -17.7568 -12.0610 -11.9830 -11.9338 -11.8549 -11.7565
   -11.7555 -11.7540 -11.6881 -11.6711 -11.6697 -11.6574 -11.4794 -11.3725
   -11.2732 -11.2663 -11.2440 -11.2200 -11.2102 -11.2047 -11.2003 -11.1785
   -11.1476 -11.1400 -11.1333 -11.1255 -11.1246 -11.1220 -11.1146 -11.0954
   -11.0720 -11.0468 -11.0201 -11.0011 -10.9907 -10.9864 -10.9815 -10.9727
   -10.9664 -10.9407 -10.9366 -10.9262 -10.9221 -10.8980 -10.8870 -10.8667
   -10.8640 -10.8456 -10.8400 -10.8380 -10.8339 -10.8325 -10.8315 -10.8313
   -10.8250 -10.8219 -10.8097 -10.8046 -10.8024 -10.8007 -10.7887 -10.7831
   -10.7826 -10.7823 -10.7766 -10.7705 -10.7324 -10.7146 -10.7091 -10.6911
   -10.6856 -10.6630 -10.6543 -10.6198 -10.6151 -10.6060 -10.4681 -10.4152
   -10.2379 -10.1805 -10.1259 -10.0507 -10.0476 -10.0451  -9.9718  -9.9058
    -9.8883  -9.8785  -9.8443  -9.8118  -9.7920  -9.7827  -9.7804  -9.7722
    -9.7504  -9.7437  -9.7313  -9.7214  -9.7056  -9.7002  -9.6913  -9.6818
    -9.6562  -9.6467  -9.6313  -9.6247  -9.6218  -9.6188  -9.6097  -9.6052
    -9.5908  -9.5813  -9.5783  -9.5767  -9.5752  -9.5737  -9.5727  -9.5676
    -9.5500  -9.5392  -9.5268  -9.4766  -9.4686  -9.4530  -9.4471  -9.4402
    -9.4367  -9.4070  -9.3868  -9.3743  -9.3588  -9.3490  -9.3469  -9.3425
    -9.3300  -9.3168  -9.3085  -9.2785  -9.2495  -9.2374  -9.2219  -9.2082
    -9.2010  -9.2001  -9.1936  -9.1517  -9.1434  -9.0877  -9.0759  -9.0467
    -9.0375  -9.0232  -9.0212  -9.0204  -9.0201  -9.0196  -9.0132  -8.9819
    -8.9648  -8.9451  -8.9421  -8.9379  -8.9297  -8.9214  -8.8862  -8.8579
    -8.8351  -8.8215  -8.8092  -8.8066  -8.8027  -8.8001  -8.7932  -8.7911
    -8.7780  -8.7619  -8.7608  -8.7499  -8.7439  -8.7380  -8.7332  -8.7257
    -8.7199  -8.7117  -8.6169  -8.5358  -8.5059  -8.4494  -8.4317  -8.4316
    -8.4160  -8.3592  -8.3592  -8.3198  -8.3197  -8.3195  -8.3195  -8.3194
    -8.3193  -8.2995  -8.2968  -8.2753  -8.2642  -8.2502  -8.2464  -8.2426
    -8.2421  -8.2408  -8.2381  -8.2139  -8.1979  -8.1565  -8.0763  -8.0054
    -7.9799  -7.9401  -7.9236  -7.9171  -7.8870  -7.7223  -7.7063  -7.6705
    -7.6495  -7.6284  -7.6079  -7.5844  -7.5843  -7.5842  -7.5841  -7.5836
    -7.5832  -7.5594  -7.5465  -7.5381  -7.5376  -7.5374  -7.5372  -7.5366
    -7.5361  -7.5328  -7.5160  -7.5099  -7.5093  -7.5045  -7.5017  -7.4960
    -7.4841  -7.4796  -7.4699  -7.4662  -7.4631  -7.4602  -7.4590  -7.4575
    -7.4529  -7.4520  -7.4312  -7.4264  -7.4217  -7.4166  -7.4123  -7.3941
    -7.3607  -7.3204  -7.3030  -7.3028  -7.3007  -7.2765  -7.2520  -7.2348
    -7.2336  -7.2306  -7.2167  -7.2094  -7.1368  -7.1126  -7.0554  -7.0270
    -7.0069  -6.9887  -6.9725  -6.9226  -6.9139  -6.8819  -6.8551  -6.8346
    -6.7992  -6.7966  -6.7946  -6.7482  -6.6899  -6.6721  -6.6687  -6.6653
    -6.6636  -6.6459  -6.6257  -6.6242  -6.6194  -6.6034  -6.5840  -6.5630
    -6.5518  -6.5423  -6.5239  -6.5227  -6.5171  -6.5143  -6.5111  -6.4953
    -6.4839  -6.4739  -6.4687  -6.4616  -6.4453  -6.4440  -6.4325  -6.4229
    -6.4221  -6.3938  -6.3711  -6.3561  -6.3512  -6.3507  -6.3507  -6.3507
    -6.3507  -6.3506  -6.3480  -6.3030  -6.2818  -6.2765  -6.2736  -6.2724
    -6.2717  -6.2700  -6.2665  -6.2473  -6.2071  -6.2010  -6.1154  -6.0271
    -5.9203  -5.8735  -5.7120  -5.6371  -5.5731  -5.4276  -5.3983  -5.3072
    -5.2342  -5.1190  -4.2728  -3.9373  -3.8527  -3.8356  -3.8339  -3.8319
    -3.8175  -3.8083  -3.8068  -3.8021  -3.8007  -3.7980  -3.7801  -3.7458
    -3.6721  -3.6143  -3.6089  -3.5906  -3.5899  -3.5818  -3.5771  -3.5657
    -3.5644  -3.5599  -3.4914  -3.4913  -3.4912  -3.4752  -3.4736  -3.4728
    -3.4725  -3.4715  -3.4709  -3.4436  -3.4242  -3.4239  -3.4237  -3.4143
    -3.4058  -3.3947  -3.3807  -3.3760  -3.3732  -3.3696  -3.3660  -3.3640
    -3.3594  -3.3534  -3.3502  -3.3444  -3.3297  -3.3266  -3.3243  -3.2902
    -3.2776  -3.2650  -3.2577  -3.2453  -3.2295  -3.2258  -3.2166  -3.1942
    -3.1644  -3.0312  -3.0260  -3.0258  -3.0257  -3.0200  -3.0199  -2.9938
    -2.9558  -2.9533  -2.9530  -2.9528  -2.9525  -2.9524  -2.9522  -2.9519
    -2.9435  -2.9378  -2.9342  -2.9328  -2.9219  -2.9106  -2.9006  -2.8950
    -2.8904  -2.8884  -2.8849  -2.8834  -2.8785  -2.8704  -2.8683  -2.8648
    -2.8568  -2.8516  -2.8452  -2.8258  -2.8160  -2.8121  -2.8015  -2.7758
    -2.7664  -2.7650  -2.7487  -2.7445  -2.7441  -2.7433  -2.7421  -2.7395
    -2.7154  -2.6952  -2.6896  -2.6821  -2.6555  -2.6358  -2.6341  -2.6198
    -2.5945  -2.5897  -2.5600  -2.5413  -2.5381  -2.5334  -2.5236  -2.5225
    -2.5189  -2.4880  -2.4717  -2.4574  -2.4549  -2.4413

          k = 0.0000-0.5773 0.0000 (321564 PWs)   bands (ev):

  -102.1353 -88.8080 -88.7331 -70.4757 -70.4746 -70.4524 -70.4477 -70.4343
   -70.4211 -70.4096 -66.6764 -66.6764 -66.6658 -66.6658 -66.6509 -66.6509
   -66.6509 -66.6509 -66.6465 -66.6465 -66.6403 -66.6403 -66.6402 -66.6402
   -66.6359 -66.6359 -66.6107 -66.6100 -66.5999 -66.5998 -66.5851 -66.5850
   -66.5847 -66.5847 -66.5808 -66.5801 -66.5747 -66.5747 -66.5742 -66.5735
   -66.5699 -66.5698 -66.5394 -66.5314 -66.5215 -66.5155 -66.5108 -66.5042
   -66.5020 -66.5007 -66.4960 -66.4913 -66.4864 -66.4843 -66.4794 -66.4768
   -66.4584 -66.4513 -56.4257 -56.3564 -56.3063 -54.6269 -54.5997 -54.5873
   -54.5711 -54.5125 -54.4817 -40.9775 -40.9775 -40.9775 -40.9775 -40.9509
   -40.9509 -40.9390 -40.9390 -40.9108 -40.9107 -40.9102 -40.9099 -40.8885
   -40.8885 -40.8885 -40.8885 -40.8840 -40.8835 -40.8719 -40.8718 -40.8334
   -40.8322 -40.8306 -40.8305 -40.8215 -40.8215 -40.8215 -40.8214 -40.8206
   -40.8206 -40.8154 -40.8098 -40.8098 -40.8092 -40.8050 -40.7993 -40.7804
   -40.7804 -40.7804 -40.7804 -40.7771 -40.7717 -40.7717 -40.7660 -40.7653
   -40.7647 -40.7596 -40.7596 -40.7595 -40.7595 -40.7595 -40.7595 -40.7537
   -40.7536 -40.7509 -40.7509 -40.7444 -40.7443 -40.7329 -40.7288 -40.7288
   -40.7288 -40.7288 -40.7287 -40.7252 -40.7225 -40.7152 -40.7151 -40.7147
   -40.7147 -40.7137 -40.7066 -40.7060 -40.6959 -40.6946 -40.6944 -40.6943
   -40.6943 -40.6943 -40.6943 -40.6940 -40.6934 -40.6927 -40.6926 -40.6859
   -40.6855 -40.6854 -40.6823 -40.6822 -40.6798 -40.6631 -40.6631 -40.6624
   -40.6622 -40.6622 -40.6619 -40.6613 -40.6596 -40.6576 -40.6518 -40.6466
   -40.6462 -40.6462 -40.6430 -40.6382 -40.6355 -40.6292 -40.6275 -40.6275
   -40.6275 -40.6274 -40.6255 -40.6205 -40.6157 -40.6157 -40.6157 -40.6154
   -40.6151 -40.6125 -40.6077 -40.6045 -40.5985 -40.5966 -40.5959 -40.5794
   -40.5794 -40.5774 -40.5744 -40.5716 -40.5661 -40.5493 -40.5486 -40.5404
   -40.5378 -40.5330 -40.5285 -40.5249 -40.5110 -40.5048 -40.5006 -40.4842
   -40.4739 -40.4592 -40.4427 -20.0004 -19.8811 -19.8630 -19.7854 -19.7025
   -19.6647 -19.5001 -19.4532 -19.4258 -19.3947 -19.2755 -19.2647 -18.9702
   -18.9330 -18.8187 -18.7857 -18.7406 -18.7381 -18.7314 -18.7307 -18.7150
   -18.7039 -18.6410 -18.6177 -18.6118 -18.6071 -18.5886 -18.5851 -18.5753
   -18.5417 -18.5050 -18.4869 -18.4829 -18.4529 -18.4473 -18.4179 -18.4068
   -18.3917 -18.3719 -18.3618 -18.3124 -18.2785 -18.2765 -18.2622 -18.2324
   -18.2253 -18.1995 -18.1725 -18.1569 -18.1521 -18.1237 -18.1225 -18.1222
   -18.1222 -18.1216 -18.1074 -18.0875 -18.0751 -18.0655 -18.0477 -18.0474
   -18.0417 -18.0373 -18.0367 -18.0216 -18.0064 -17.9904 -17.9827 -17.9810
   -17.9630 -17.9474 -17.9417 -17.9386 -17.9318 -17.9202 -17.9151 -17.8862
   -17.8757 -17.8735 -17.8589 -17.8588 -17.8556 -17.8256 -17.8189 -17.8059
   -17.7992 -17.7989 -17.7858 -17.7827 -17.7816 -17.7752 -17.7632 -17.7399
   -17.7383 -17.6833 -17.6734 -11.9592 -11.8774 -11.7232 -11.6701 -11.6493
   -11.5094 -11.4834 -11.4711 -11.4667 -11.4652 -11.4615 -11.4488 -11.4394
   -11.4053 -11.4020 -11.3718 -11.3717 -11.3679 -11.3513 -11.3330 -11.3177
   -11.3010 -11.2964 -11.2795 -11.2574 -11.2517 -11.2517 -11.2475 -11.2065
   -11.2061 -11.1854 -11.1582 -11.1549 -11.1475 -11.1284 -11.0998 -11.0547
   -11.0244 -10.9964 -10.9776 -10.9681 -10.9359 -10.9294 -10.9155 -10.9105
   -10.9042 -10.8958 -10.8855 -10.8688 -10.8576 -10.8477 -10.8366 -10.8265
   -10.8251 -10.8245 -10.8233 -10.8153 -10.8106 -10.7874 -10.7723 -10.7593
   -10.7561 -10.7477 -10.7467 -10.7022 -10.6142 -10.5947 -10.5305 -10.4934
   -10.4858 -10.4150 -10.3756 -10.3677 -10.3110 -10.2750 -10.2354 -10.1580
   -10.1411 -10.1193 -10.1094 -10.0926 -10.0814 -10.0543 -10.0495 -10.0222
    -9.9868  -9.9632  -9.9542  -9.9385  -9.9332  -9.9277  -9.9205  -9.9165
    -9.8919  -9.8887  -9.8816  -9.8775  -9.8382  -9.8109  -9.7857  -9.7661
    -9.7570  -9.7485  -9.7374  -9.7110  -9.7082  -9.7070  -9.7011  -9.6916
    -9.6866  -9.6664  -9.6562  -9.6462  -9.6352  -9.6162  -9.6020  -9.5808
    -9.5505  -9.5458  -9.5311  -9.5231  -9.5167  -9.4776  -9.4680  -9.4653
    -9.4621  -9.3688  -9.3570  -9.3245  -9.3168  -9.2902  -9.2401  -9.2102
    -9.2023  -9.1907  -9.1756  -9.1619  -9.1499  -9.1344  -9.1305  -9.1126
    -9.1029  -9.0927  -9.0748  -9.0700  -9.0438  -9.0371  -9.0309  -9.0225
    -9.0152  -8.9948  -8.9887  -8.9742  -8.9564  -8.9544  -8.9479  -8.9455
    -8.9327  -8.9281  -8.9186  -8.9134  -8.9058  -8.8815  -8.8725  -8.8658
    -8.8543  -8.8526  -8.8504  -8.8435  -8.8346  -8.8339  -8.8283  -8.8207
    -8.8098  -8.8018  -8.7886  -8.7708  -8.7601  -8.7574  -8.7499  -8.7364
    -8.7168  -8.6414  -8.5940  -8.5428  -8.5110  -8.5068  -8.5053  -8.4317
    -8.4218  -8.4175  -8.3768  -8.3409  -8.2595  -8.2432  -8.1881  -8.1880
    -8.1782  -8.1503  -8.1339  -8.1163  -8.1150  -8.0806  -8.0431  -8.0071
    -7.9714  -7.9287  -7.9247  -7.9077  -7.8721  -7.8598  -7.8558  -7.8506
    -7.8417  -7.8414  -7.8414  -7.8405  -7.8344  -7.8273  -7.8132  -7.8023
    -7.7973  -7.7941  -7.7932  -7.7912  -7.7749  -7.7703  -7.7636  -7.7536
    -7.7446  -7.7422  -7.7342  -7.7312  -7.7197  -7.7186  -7.7118  -7.7059
    -7.7011  -7.6922  -7.6851  -7.6772  -7.6577  -7.6561  -7.6560  -7.6446
    -7.6374  -7.6209  -7.6095  -7.5916  -7.5855  -7.5788  -7.5678  -7.5591
    -7.5482  -7.5250  -7.5154  -7.5133  -7.4737  -7.4543  -7.4004  -7.3490
    -7.3010  -7.2540  -7.2448  -7.2361  -7.2179  -7.2123  -7.1911  -7.1575
    -7.1388  -7.1100  -7.0791  -7.0554  -7.0356  -7.0230  -7.0070  -7.0039
    -6.9985  -6.9816  -6.9500  -6.9477  -6.9386  -6.9072  -6.8977  -6.8922
    -6.8750  -6.8440  -6.8351  -6.8244  -6.7972  -6.7490  -6.7459  -6.7175
    -6.6911  -6.6802  -6.6707  -6.6531  -6.6531  -6.6530  -6.6530  -6.6341
    -6.6169  -6.6113  -6.5875  -6.5870  -6.5842  -6.5822  -6.5808  -6.5700
    -6.5556  -6.5009  -6.4673  -6.4387  -6.4210  -6.3815  -6.3707  -6.3220
    -6.3215  -6.3209  -6.3206  -6.2963  -6.2824  -6.2673  -6.2531  -6.2473
    -6.2383  -6.2374  -6.2359  -6.2332  -6.2051  -6.1967  -6.1656  -6.1041
    -6.0447  -5.9729  -5.9729  -5.9070  -5.8959  -5.8947  -5.8694  -5.8242
    -5.7459  -5.6991  -5.6521  -5.6008  -5.5651  -5.5560  -5.3964  -5.3372
    -5.3153  -5.2114  -4.2830  -4.0301  -4.0268  -4.0111  -3.9865  -3.8930
    -3.8885  -3.8884  -3.8567  -3.8377  -3.8243  -3.8230  -3.8115  -3.7694
    -3.7600  -3.7570  -3.7225  -3.6919  -3.6235  -3.6035  -3.5985  -3.5928
    -3.5876  -3.5847  -3.5741  -3.5738  -3.5641  -3.5466  -3.5169  -3.4988
    -3.4944  -3.4903  -3.4849  -3.4771  -3.4725  -3.4641  -3.4574  -3.4517
    -3.4177  -3.4094  -3.3940  -3.3777  -3.3616  -3.3547  -3.3412  -3.3406
    -3.3354  -3.3197  -3.3101  -3.3080  -3.3011  -3.2940  -3.2722  -3.2649
    -3.2646  -3.2643  -3.2641  -3.2475  -3.2320  -3.2259  -3.2177  -3.2101
    -3.2031  -3.1944  -3.1906  -3.1820  -3.1777  -3.1685  -3.1560  -3.1392
    -3.1254  -3.1129  -3.1032  -3.0675  -3.0618  -3.0593  -3.0391  -3.0249
    -3.0217  -3.0200  -3.0026  -3.0019  -3.0013  -3.0012  -2.9701  -2.9573
    -2.9523  -2.9502  -2.9417  -2.9390  -2.9188  -2.9169  -2.9091  -2.9071
    -2.9041  -2.8893  -2.8853  -2.8793  -2.8715  -2.8609  -2.8579  -2.8400
    -2.8322  -2.8062  -2.7980  -2.7930  -2.7872  -2.7765  -2.7310  -2.7264
    -2.6994  -2.6904  -2.6656  -2.6464  -2.6401  -2.6381  -2.6347  -2.6245
    -2.5662  -2.5584  -2.5525  -2.5056  -2.4963  -2.4943  -2.4819  -2.4692
    -2.4425  -2.3624  -2.3417  -2.3273  -2.2740  -2.2720

          k =-0.5000-0.2887 0.0000 (321564 PWs)   bands (ev):

  -102.1353 -88.8080 -88.7331 -70.4757 -70.4746 -70.4524 -70.4477 -70.4343
   -70.4211 -70.4096 -66.6764 -66.6764 -66.6658 -66.6658 -66.6509 -66.6509
   -66.6509 -66.6509 -66.6465 -66.6465 -66.6403 -66.6402 -66.6402 -66.6402
   -66.6359 -66.6359 -66.6105 -66.6102 -66.5999 -66.5997 -66.5851 -66.5849
   -66.5848 -66.5847 -66.5806 -66.5803 -66.5746 -66.5742 -66.5741 -66.5740
   -66.5699 -66.5698 -66.5401 -66.5289 -66.5226 -66.5183 -66.5091 -66.5044
   -66.5018 -66.4996 -66.4960 -66.4910 -66.4870 -66.4847 -66.4803 -66.4758
   -66.4583 -66.4513 -56.4257 -56.3564 -56.3063 -54.6270 -54.5997 -54.5873
   -54.5711 -54.5125 -54.4817 -40.9775 -40.9775 -40.9775 -40.9775 -40.9509
   -40.9509 -40.9390 -40.9390 -40.9107 -40.9104 -40.9103 -40.9102 -40.8885
   -40.8885 -40.8885 -40.8885 -40.8839 -40.8836 -40.8719 -40.8718 -40.8416
   -40.8310 -40.8305 -40.8305 -40.8216 -40.8215 -40.8215 -40.8214 -40.8206
   -40.8206 -40.8098 -40.8098 -40.8087 -40.8056 -40.8019 -40.7948 -40.7815
   -40.7804 -40.7804 -40.7804 -40.7804 -40.7717 -40.7717 -40.7698 -40.7652
   -40.7649 -40.7596 -40.7596 -40.7595 -40.7595 -40.7595 -40.7595 -40.7537
   -40.7536 -40.7509 -40.7509 -40.7444 -40.7443 -40.7364 -40.7317 -40.7288
   -40.7288 -40.7288 -40.7288 -40.7275 -40.7206 -40.7151 -40.7150 -40.7149
   -40.7148 -40.7129 -40.7065 -40.7061 -40.6998 -40.6945 -40.6943 -40.6943
   -40.6943 -40.6943 -40.6940 -40.6940 -40.6938 -40.6927 -40.6926 -40.6855
   -40.6854 -40.6823 -40.6823 -40.6820 -40.6769 -40.6653 -40.6631 -40.6631
   -40.6622 -40.6621 -40.6618 -40.6618 -40.6600 -40.6570 -40.6538 -40.6462
   -40.6462 -40.6443 -40.6414 -40.6384 -40.6331 -40.6298 -40.6276 -40.6275
   -40.6274 -40.6274 -40.6250 -40.6225 -40.6166 -40.6157 -40.6157 -40.6156
   -40.6152 -40.6112 -40.6080 -40.6040 -40.5976 -40.5964 -40.5961 -40.5811
   -40.5795 -40.5793 -40.5775 -40.5665 -40.5583 -40.5491 -40.5488 -40.5412
   -40.5333 -40.5332 -40.5317 -40.5291 -40.5079 -40.5069 -40.5010 -40.4835
   -40.4803 -40.4614 -40.4375 -19.9991 -19.8814 -19.8630 -19.7894 -19.7029
   -19.6690 -19.4724 -19.4609 -19.4172 -19.4076 -19.2720 -19.2677 -19.0319
   -18.9056 -18.7866 -18.7585 -18.7474 -18.7459 -18.7314 -18.7286 -18.7233
   -18.7132 -18.6393 -18.6202 -18.6064 -18.5996 -18.5961 -18.5897 -18.5649
   -18.5368 -18.5066 -18.4871 -18.4817 -18.4508 -18.4459 -18.4266 -18.3969
   -18.3939 -18.3722 -18.3600 -18.3217 -18.3139 -18.2703 -18.2595 -18.2329
   -18.2162 -18.1988 -18.1884 -18.1511 -18.1381 -18.1324 -18.1224 -18.1223
   -18.1221 -18.1220 -18.1118 -18.0875 -18.0847 -18.0531 -18.0468 -18.0466
   -18.0412 -18.0405 -18.0293 -18.0167 -18.0082 -17.9880 -17.9862 -17.9788
   -17.9643 -17.9429 -17.9416 -17.9378 -17.9332 -17.9219 -17.9171 -17.8834
   -17.8782 -17.8667 -17.8589 -17.8588 -17.8567 -17.8326 -17.8151 -17.8046
   -17.7992 -17.7989 -17.7836 -17.7832 -17.7801 -17.7772 -17.7665 -17.7395
   -17.7384 -17.6827 -17.6747 -11.9777 -11.8354 -11.7599 -11.6778 -11.6279
   -11.5056 -11.4742 -11.4714 -11.4673 -11.4667 -11.4619 -11.4408 -11.4379
   -11.4183 -11.4033 -11.3835 -11.3724 -11.3659 -11.3607 -11.3334 -11.3248
   -11.3009 -11.2858 -11.2784 -11.2545 -11.2517 -11.2517 -11.2425 -11.2066
   -11.2058 -11.1811 -11.1562 -11.1520 -11.1500 -11.1296 -11.0915 -11.0487
   -11.0252 -10.9979 -10.9838 -10.9700 -10.9515 -10.9231 -10.9215 -10.9145
   -10.9051 -10.8977 -10.8850 -10.8641 -10.8470 -10.8444 -10.8336 -10.8263
   -10.8250 -10.8237 -10.8233 -10.8231 -10.8020 -10.7992 -10.7687 -10.7602
   -10.7568 -10.7501 -10.7335 -10.6989 -10.6143 -10.5955 -10.5229 -10.4896
   -10.4809 -10.4551 -10.3836 -10.3450 -10.3373 -10.2853 -10.1976 -10.1725
   -10.1462 -10.1250 -10.1087 -10.1045 -10.0755 -10.0601 -10.0275 -10.0004
    -9.9751  -9.9585  -9.9444  -9.9315  -9.9311  -9.9232  -9.9188  -9.9071
    -9.8989  -9.8897  -9.8812  -9.8719  -9.8440  -9.8109  -9.7905  -9.7812
    -9.7624  -9.7593  -9.7403  -9.7177  -9.7098  -9.7065  -9.6998  -9.6947
    -9.6888  -9.6633  -9.6595  -9.6518  -9.6422  -9.6253  -9.6066  -9.5900
    -9.5691  -9.5473  -9.5337  -9.5286  -9.5211  -9.4968  -9.4664  -9.4661
    -9.4376  -9.3685  -9.3436  -9.3411  -9.3168  -9.2756  -9.2482  -9.2058
    -9.1992  -9.1824  -9.1634  -9.1457  -9.1428  -9.1392  -9.1278  -9.1075
    -9.0996  -9.0934  -9.0759  -9.0573  -9.0431  -9.0350  -9.0315  -9.0241
    -9.0151  -8.9994  -8.9776  -8.9762  -8.9671  -8.9503  -8.9438  -8.9419
    -8.9335  -8.9307  -8.9261  -8.9128  -8.9011  -8.8864  -8.8708  -8.8644
    -8.8563  -8.8525  -8.8510  -8.8424  -8.8345  -8.8338  -8.8304  -8.8191
    -8.8144  -8.8009  -8.7969  -8.7691  -8.7622  -8.7560  -8.7493  -8.7329
    -8.7189  -8.6366  -8.5859  -8.5365  -8.5077  -8.5065  -8.5054  -8.4448
    -8.4278  -8.4228  -8.3769  -8.3385  -8.2998  -8.2219  -8.1881  -8.1881
    -8.1715  -8.1405  -8.1370  -8.1162  -8.1157  -8.0647  -8.0515  -8.0020
    -7.9540  -7.9278  -7.9226  -7.8993  -7.8686  -7.8653  -7.8567  -7.8490
    -7.8447  -7.8414  -7.8413  -7.8407  -7.8365  -7.8285  -7.8214  -7.8025
    -7.7973  -7.7947  -7.7922  -7.7892  -7.7816  -7.7712  -7.7694  -7.7560
    -7.7472  -7.7377  -7.7362  -7.7226  -7.7218  -7.7175  -7.7145  -7.7010
    -7.6911  -7.6867  -7.6808  -7.6728  -7.6578  -7.6561  -7.6552  -7.6517
    -7.6371  -7.6192  -7.6132  -7.6057  -7.5897  -7.5828  -7.5801  -7.5485
    -7.5380  -7.5346  -7.5231  -7.4865  -7.4644  -7.4532  -7.4067  -7.3525
    -7.3162  -7.2963  -7.2413  -7.2356  -7.2256  -7.2116  -7.1725  -7.1501
    -7.1306  -7.1123  -7.0737  -7.0520  -7.0387  -7.0349  -7.0168  -7.0085
    -7.0028  -6.9849  -6.9668  -6.9518  -6.9457  -6.9136  -6.8977  -6.8901
    -6.8769  -6.8627  -6.8238  -6.8129  -6.7905  -6.7657  -6.7341  -6.7198
    -6.7023  -6.6794  -6.6635  -6.6531  -6.6530  -6.6530  -6.6530  -6.6380
    -6.6055  -6.5965  -6.5844  -6.5839  -6.5825  -6.5790  -6.5585  -6.5558
    -6.5268  -6.4935  -6.4851  -6.4670  -6.4291  -6.4273  -6.3286  -6.3221
    -6.3213  -6.3209  -6.3197  -6.2986  -6.2616  -6.2568  -6.2528  -6.2413
    -6.2392  -6.2359  -6.2314  -6.2234  -6.1976  -6.1893  -6.1538  -6.1360
    -6.0065  -5.9745  -5.9728  -5.9724  -5.8993  -5.8959  -5.8925  -5.7618
    -5.7584  -5.7044  -5.6837  -5.6150  -5.5807  -5.5309  -5.3858  -5.3598
    -5.2833  -5.2283  -4.2503  -4.0448  -4.0161  -4.0123  -3.9803  -3.9292
    -3.8885  -3.8885  -3.8612  -3.8356  -3.8237  -3.8234  -3.7909  -3.7706
    -3.7650  -3.7492  -3.7100  -3.7009  -3.6381  -3.6029  -3.5950  -3.5904
    -3.5880  -3.5825  -3.5740  -3.5737  -3.5558  -3.5465  -3.5108  -3.5044
    -3.4960  -3.4920  -3.4879  -3.4712  -3.4678  -3.4659  -3.4615  -3.4536
    -3.4307  -3.4069  -3.3866  -3.3732  -3.3641  -3.3510  -3.3460  -3.3408
    -3.3396  -3.3208  -3.3099  -3.3068  -3.3020  -3.2929  -3.2779  -3.2652
    -3.2645  -3.2643  -3.2636  -3.2525  -3.2344  -3.2238  -3.2193  -3.2097
    -3.2006  -3.1988  -3.1872  -3.1837  -3.1744  -3.1712  -3.1480  -3.1432
    -3.1261  -3.1086  -3.0964  -3.0807  -3.0616  -3.0596  -3.0365  -3.0289
    -3.0209  -3.0200  -3.0024  -3.0019  -3.0015  -3.0011  -2.9677  -2.9567
    -2.9527  -2.9517  -2.9412  -2.9335  -2.9268  -2.9160  -2.9128  -2.9053
    -2.8980  -2.8919  -2.8889  -2.8816  -2.8701  -2.8628  -2.8506  -2.8466
    -2.8211  -2.8145  -2.7993  -2.7934  -2.7896  -2.7781  -2.7318  -2.7297
    -2.7037  -2.6979  -2.6673  -2.6493  -2.6385  -2.6375  -2.6319  -2.6220
    -2.5665  -2.5579  -2.5518  -2.5101  -2.4978  -2.4848  -2.4772  -2.4738
    -2.4493  -2.3661  -2.3528  -2.2923  -2.2916  -2.2182

          k =-0.5000-0.8660 0.0000 (321564 PWs)   bands (ev):

  -102.1353 -88.8080 -88.7331 -70.4757 -70.4746 -70.4524 -70.4477 -70.4343
   -70.4211 -70.4096 -66.6764 -66.6764 -66.6658 -66.6658 -66.6509 -66.6509
   -66.6509 -66.6509 -66.6465 -66.6465 -66.6403 -66.6403 -66.6402 -66.6402
   -66.6359 -66.6359 -66.6104 -66.6103 -66.5999 -66.5997 -66.5851 -66.5849
   -66.5848 -66.5847 -66.5805 -66.5804 -66.5744 -66.5743 -66.5742 -66.5741
   -66.5699 -66.5697 -66.5391 -66.5324 -66.5189 -66.5162 -66.5129 -66.5047
   -66.5010 -66.4991 -66.4972 -66.4909 -66.4860 -66.4856 -66.4791 -66.4767
   -66.4583 -66.4514 -56.4257 -56.3564 -56.3063 -54.6270 -54.5997 -54.5873
   -54.5711 -54.5125 -54.4817 -40.9775 -40.9775 -40.9775 -40.9775 -40.9509
   -40.9509 -40.9390 -40.9390 -40.9105 -40.9104 -40.9104 -40.9103 -40.8885
   -40.8885 -40.8885 -40.8885 -40.8838 -40.8837 -40.8719 -40.8717 -40.8306
   -40.8305 -40.8278 -40.8267 -40.8221 -40.8216 -40.8215 -40.8214 -40.8214
   -40.8206 -40.8206 -40.8179 -40.8098 -40.8098 -40.8067 -40.7986 -40.7804
   -40.7804 -40.7804 -40.7804 -40.7790 -40.7717 -40.7717 -40.7651 -40.7650
   -40.7600 -40.7596 -40.7596 -40.7595 -40.7595 -40.7595 -40.7595 -40.7537
   -40.7536 -40.7509 -40.7509 -40.7444 -40.7443 -40.7303 -40.7288 -40.7288
   -40.7288 -40.7288 -40.7288 -40.7235 -40.7219 -40.7151 -40.7150 -40.7149
   -40.7148 -40.7131 -40.7064 -40.7062 -40.6985 -40.6943 -40.6943 -40.6943
   -40.6943 -40.6943 -40.6941 -40.6940 -40.6939 -40.6927 -40.6926 -40.6855
   -40.6854 -40.6853 -40.6823 -40.6822 -40.6746 -40.6654 -40.6648 -40.6631
   -40.6631 -40.6621 -40.6621 -40.6618 -40.6618 -40.6570 -40.6529 -40.6462
   -40.6462 -40.6444 -40.6415 -40.6391 -40.6365 -40.6276 -40.6276 -40.6274
   -40.6274 -40.6273 -40.6252 -40.6207 -40.6169 -40.6157 -40.6157 -40.6155
   -40.6154 -40.6136 -40.6068 -40.6059 -40.5985 -40.5964 -40.5961 -40.5795
   -40.5793 -40.5782 -40.5745 -40.5716 -40.5694 -40.5490 -40.5488 -40.5373
   -40.5357 -40.5332 -40.5280 -40.5237 -40.5158 -40.5069 -40.5014 -40.4792
   -40.4673 -40.4574 -40.4503 -19.9840 -19.8871 -19.8628 -19.8143 -19.7042
   -19.6801 -19.4588 -19.4517 -19.4062 -19.3888 -19.2686 -19.2613 -19.0546
   -18.9523 -18.7896 -18.7679 -18.7389 -18.7359 -18.7321 -18.7301 -18.7098
   -18.6674 -18.6541 -18.6245 -18.6113 -18.6026 -18.5943 -18.5875 -18.5704
   -18.5429 -18.5138 -18.4873 -18.4839 -18.4634 -18.4448 -18.4214 -18.4151
   -18.3929 -18.3753 -18.3517 -18.3116 -18.2893 -18.2642 -18.2497 -18.2277
   -18.2244 -18.1818 -18.1791 -18.1563 -18.1522 -18.1226 -18.1224 -18.1223
   -18.1221 -18.1198 -18.1057 -18.0922 -18.0826 -18.0537 -18.0524 -18.0473
   -18.0412 -18.0363 -18.0354 -18.0293 -18.0149 -17.9916 -17.9854 -17.9745
   -17.9725 -17.9488 -17.9429 -17.9346 -17.9320 -17.9314 -17.9166 -17.8826
   -17.8756 -17.8690 -17.8653 -17.8589 -17.8588 -17.8196 -17.8173 -17.8012
   -17.7991 -17.7987 -17.7947 -17.7843 -17.7824 -17.7778 -17.7499 -17.7396
   -17.7373 -17.6843 -17.6720 -11.9595 -11.8084 -11.7384 -11.6723 -11.6458
   -11.5563 -11.5268 -11.4787 -11.4699 -11.4662 -11.4652 -11.4583 -11.4441
   -11.4368 -11.4207 -11.3747 -11.3693 -11.3659 -11.3628 -11.3423 -11.3095
   -11.2895 -11.2827 -11.2816 -11.2564 -11.2517 -11.2517 -11.2066 -11.2061
   -11.2001 -11.1614 -11.1536 -11.1527 -11.1491 -11.0971 -11.0899 -11.0317
   -11.0181 -11.0110 -10.9782 -10.9725 -10.9516 -10.9383 -10.9093 -10.9057
   -10.9038 -10.8921 -10.8870 -10.8648 -10.8601 -10.8478 -10.8395 -10.8276
   -10.8247 -10.8242 -10.8234 -10.8196 -10.8190 -10.8111 -10.7822 -10.7592
   -10.7571 -10.7543 -10.7504 -10.6393 -10.6108 -10.5865 -10.5282 -10.4992
   -10.4853 -10.4427 -10.4250 -10.3519 -10.3235 -10.2589 -10.2278 -10.1574
   -10.1329 -10.1233 -10.1094 -10.1041 -10.0886 -10.0405 -10.0157 -10.0069
    -9.9948  -9.9530  -9.9423  -9.9384  -9.9258  -9.9233  -9.9152  -9.9035
    -9.8934  -9.8926  -9.8825  -9.8648  -9.8524  -9.8134  -9.7742  -9.7537
    -9.7510  -9.7409  -9.7297  -9.7274  -9.7123  -9.7045  -9.7037  -9.6880
    -9.6874  -9.6653  -9.6574  -9.6336  -9.6177  -9.6100  -9.6031  -9.5589
    -9.5521  -9.5364  -9.5299  -9.5196  -9.5159  -9.5066  -9.4901  -9.4664
    -9.4645  -9.4146  -9.4011  -9.3875  -9.3227  -9.2859  -9.2755  -9.2086
    -9.1938  -9.1908  -9.1692  -9.1587  -9.1552  -9.1372  -9.1274  -9.1088
    -9.1050  -9.0839  -9.0741  -9.0644  -9.0435  -9.0316  -9.0156  -9.0138
    -9.0063  -8.9981  -8.9880  -8.9816  -8.9645  -8.9568  -8.9447  -8.9396
    -8.9327  -8.9283  -8.9261  -8.9007  -8.8933  -8.8813  -8.8754  -8.8539
    -8.8515  -8.8507  -8.8450  -8.8367  -8.8346  -8.8336  -8.8296  -8.8245
    -8.8193  -8.8018  -8.7958  -8.7911  -8.7658  -8.7578  -8.7462  -8.7456
    -8.6989  -8.6357  -8.5760  -8.5333  -8.5075  -8.5065  -8.4970  -8.4573
    -8.4271  -8.4221  -8.4036  -8.3499  -8.3117  -8.2511  -8.1881  -8.1880
    -8.1645  -8.1462  -8.1172  -8.1161  -8.1155  -8.0711  -8.0225  -7.9893
    -7.9569  -7.9267  -7.9241  -7.8845  -7.8659  -7.8646  -7.8558  -7.8491
    -7.8458  -7.8417  -7.8413  -7.8412  -7.8383  -7.8257  -7.8023  -7.7974
    -7.7955  -7.7938  -7.7901  -7.7873  -7.7707  -7.7694  -7.7625  -7.7508
    -7.7421  -7.7401  -7.7326  -7.7286  -7.7232  -7.7151  -7.7139  -7.7079
    -7.6983  -7.6852  -7.6804  -7.6703  -7.6563  -7.6562  -7.6550  -7.6388
    -7.6332  -7.6317  -7.6143  -7.6013  -7.5903  -7.5888  -7.5789  -7.5658
    -7.5391  -7.5212  -7.5101  -7.5073  -7.4998  -7.4329  -7.3866  -7.3495
    -7.3133  -7.2616  -7.2434  -7.2292  -7.2237  -7.2068  -7.2016  -7.1538
    -7.1294  -7.1119  -7.0874  -7.0675  -7.0492  -7.0406  -7.0059  -7.0041
    -7.0021  -6.9978  -6.9648  -6.9561  -6.9285  -6.9115  -6.8974  -6.8930
    -6.8817  -6.8543  -6.8390  -6.8140  -6.7974  -6.7708  -6.7401  -6.7224
    -6.6870  -6.6764  -6.6633  -6.6531  -6.6530  -6.6529  -6.6526  -6.6356
    -6.6221  -6.5990  -6.5888  -6.5847  -6.5832  -6.5815  -6.5789  -6.5418
    -6.5142  -6.5041  -6.4686  -6.4462  -6.4376  -6.4335  -6.3770  -6.3238
    -6.3213  -6.3210  -6.3209  -6.3110  -6.2653  -6.2578  -6.2468  -6.2388
    -6.2372  -6.2362  -6.2326  -6.2059  -6.2009  -6.1827  -6.1500  -6.0361
    -6.0185  -5.9729  -5.9729  -5.9425  -5.8959  -5.8935  -5.8870  -5.8393
    -5.7517  -5.7074  -5.6743  -5.6046  -5.5972  -5.5403  -5.3830  -5.3589
    -5.3048  -5.2268  -4.2397  -4.0396  -4.0192  -4.0165  -3.9969  -3.9096
    -3.8884  -3.8884  -3.8691  -3.8357  -3.8236  -3.8235  -3.7909  -3.7834
    -3.7692  -3.7528  -3.7435  -3.6793  -3.6376  -3.6037  -3.5932  -3.5909
    -3.5881  -3.5839  -3.5741  -3.5738  -3.5577  -3.5489  -3.5345  -3.5077
    -3.4972  -3.4922  -3.4758  -3.4690  -3.4666  -3.4634  -3.4569  -3.4553
    -3.4150  -3.4113  -3.3751  -3.3715  -3.3624  -3.3493  -3.3417  -3.3409
    -3.3365  -3.3142  -3.3087  -3.3064  -3.3014  -3.2880  -3.2774  -3.2654
    -3.2650  -3.2645  -3.2635  -3.2503  -3.2297  -3.2239  -3.2186  -3.2072
    -3.2038  -3.1972  -3.1895  -3.1827  -3.1787  -3.1704  -3.1561  -3.1241
    -3.1179  -3.1100  -3.0954  -3.0853  -3.0612  -3.0598  -3.0361  -3.0328
    -3.0214  -3.0199  -3.0018  -3.0016  -3.0014  -3.0011  -2.9648  -2.9561
    -2.9533  -2.9520  -2.9391  -2.9266  -2.9216  -2.9174  -2.9146  -2.9081
    -2.9067  -2.8930  -2.8872  -2.8748  -2.8708  -2.8638  -2.8444  -2.8330
    -2.8192  -2.8151  -2.8102  -2.7987  -2.7895  -2.7875  -2.7305  -2.7270
    -2.7018  -2.6954  -2.6769  -2.6524  -2.6382  -2.6377  -2.6259  -2.6220
    -2.5797  -2.5595  -2.5530  -2.5128  -2.4981  -2.4853  -2.4765  -2.4710
    -2.4656  -2.3806  -2.3455  -2.2831  -2.2634  -2.2571

     the Fermi energy is    -4.7077 ev

!    total energy              =  -26543.74383542 Ry
     total all-electron energy =   -522376.340143 Ry
     estimated scf accuracy    <       0.00000003 Ry
     smearing contrib. (-TS)   =      -0.00000032 Ry
     internal energy E=F+TS    =  -26543.74383511 Ry

     The total energy is F=E-TS. E is the sum of the following terms:
     one-electron contribution =  511767.32531605 Ry
     hartree contribution      = -256027.85999125 Ry
     xc contribution           =   -1565.66763919 Ry
     ewald contribution        = -264269.50134559 Ry
     DFT-D3 Dispersion         =      -4.05898495 Ry
     one-center paw contrib.   =  -16443.98119017 Ry

     convergence has been achieved in  26 iterations

     negative rho (up, down):  9.504E-04 0.000E+00

     Forces acting on atoms (cartesian axes, Ry/au):

     atom    1 type  1   force =    -0.00520898   -0.00301697   -0.00109191
     atom    2 type  1   force =    -0.00000093    0.00000128    0.00190199
     atom    3 type  1   force =    -0.00004239    0.00003000    0.00000567
     atom    4 type  2   force =     0.00000032   -0.00000051   -0.00333623
     atom    5 type  2   force =    -0.00000087   -0.00000709   -0.00004916
     atom    6 type  2   force =     0.00048761    0.00129575   -0.00030284
     atom    7 type  2   force =    -0.00000190    0.00000363    0.00154335
     atom    8 type  2   force =    -0.00003185   -0.00003748    0.00013530
     atom    9 type  2   force =    -0.00070244   -0.00027005    0.00032871
     atom   10 type  1   force =     0.00104942    0.00047681   -0.00024381
     atom   11 type  1   force =    -0.00000129    0.00000121    0.00189790
     atom   12 type  1   force =    -0.00000176   -0.00005673   -0.00005916
     atom   13 type  2   force =    -0.00000082   -0.00000122   -0.00333562
     atom   14 type  2   force =    -0.00000670   -0.00001495   -0.00006689
     atom   15 type  2   force =     0.00016619   -0.00009111    0.00029336
     atom   16 type  2   force =    -0.00000081    0.00000559    0.00155260
     atom   17 type  2   force =    -0.00002390    0.00000202    0.00007906
     atom   18 type  2   force =    -0.00064965   -0.00163297   -0.00010779
     atom   19 type  1   force =    -0.00028420   -0.00029753    0.00058917
     atom   20 type  1   force =     0.00000289   -0.00000295    0.00189904
     atom   21 type  1   force =    -0.00001924    0.00002367   -0.00005108
     atom   22 type  2   force =     0.00000065   -0.00000139   -0.00333582
     atom   23 type  2   force =    -0.00000969   -0.00000542   -0.00007496
     atom   24 type  2   force =     0.00008768   -0.00015122   -0.00005285
     atom   25 type  2   force =     0.00000314   -0.00000766    0.00153986
     atom   26 type  2   force =     0.00001029   -0.00001039    0.00005942
     atom   27 type  2   force =    -0.00023996    0.00034774    0.00001022
     atom   28 type  1   force =    -0.00163683   -0.00263803   -0.00302385
     atom   29 type  1   force =     0.00000148    0.00000018    0.00190583
     atom   30 type  1   force =     0.00000006   -0.00006294   -0.00000556
     atom   31 type  2   force =     0.00000166   -0.00000151   -0.00333711
     atom   32 type  2   force =     0.00000804   -0.00000555   -0.00007569
     atom   33 type  2   force =    -0.00009694   -0.00026469   -0.00009035
     atom   34 type  2   force =    -0.00000144   -0.00000686    0.00153925
     atom   35 type  2   force =    -0.00000048   -0.00002297    0.00005908
     atom   36 type  2   force =    -0.00056458   -0.00011301    0.00099417
     atom   37 type  1   force =     0.00029330   -0.00001794   -0.03269398
     atom   38 type  1   force =     0.00000307   -0.00000172    0.00190623
     atom   39 type  1   force =     0.00002641   -0.00000126    0.00003539
     atom   40 type  2   force =     0.00000124   -0.00000100   -0.00333571
     atom   41 type  2   force =     0.00003562    0.00002213   -0.00000673
     atom   42 type  2   force =    -0.00028462   -0.00005304    0.00309457
     atom   43 type  2   force =    -0.00000324    0.00000214    0.00153795
     atom   44 type  2   force =    -0.00003342   -0.00004159    0.00020110
     atom   45 type  2   force =    -0.01173893   -0.01026370    0.02423477
     atom   46 type  1   force =     0.00007267    0.00255866   -0.00109137
     atom   47 type  1   force =    -0.00000046   -0.00000062    0.00189665
     atom   48 type  1   force =    -0.00003412    0.00000327    0.00000937
     atom   49 type  2   force =     0.00000164   -0.00000180   -0.00333655
     atom   50 type  2   force =     0.00002671   -0.00002839   -0.00004059
     atom   51 type  2   force =    -0.00135931    0.00073765   -0.00038750
     atom   52 type  2   force =    -0.00000151    0.00000988    0.00154168
     atom   53 type  2   force =    -0.00000130   -0.00000764    0.00007025
     atom   54 type  2   force =    -0.00311574    0.00406931   -0.00698606
     atom   55 type  1   force =    -0.00004458    0.00032299    0.00055017
     atom   56 type  1   force =    -0.00000193   -0.00000215    0.00189783
     atom   57 type  1   force =     0.00003661    0.00002740   -0.00006016
     atom   58 type  2   force =     0.00000022   -0.00000048   -0.00333691
     atom   59 type  2   force =    -0.00000379   -0.00003037   -0.00008244
     atom   60 type  2   force =     0.00011565   -0.00048305   -0.00019195
     atom   61 type  2   force =     0.00000541   -0.00000583    0.00154066
     atom   62 type  2   force =    -0.00002925    0.00000057    0.00003572
     atom   63 type  2   force =     0.00056463    0.00081496   -0.00135161
     atom   64 type  1   force =     0.00184562   -0.00364257   -0.00325652
     atom   65 type  1   force =     0.00000317   -0.00000008    0.00190250
     atom   66 type  1   force =     0.00000830   -0.00002255    0.00003692
     atom   67 type  2   force =     0.00000015   -0.00000059   -0.00333697
     atom   68 type  2   force =    -0.00001597    0.00002038   -0.00007689
     atom   69 type  2   force =    -0.00013719   -0.00099443   -0.00144742
     atom   70 type  2   force =     0.00000910   -0.00000439    0.00154655
     atom   71 type  2   force =     0.00002141    0.00000345    0.00004957
     atom   72 type  2   force =    -0.00009940    0.00114945   -0.00122858
     atom   73 type  1   force =     0.00371852   -0.00037961   -0.00046857
     atom   74 type  1   force =     0.00000008   -0.00000145    0.00190208
     atom   75 type  1   force =    -0.00003589    0.00002748    0.00011336
     atom   76 type  2   force =     0.00000084   -0.00000059   -0.00333474
     atom   77 type  2   force =    -0.00005227    0.00004739   -0.00003989
     atom   78 type  2   force =    -0.00039831    0.00020856    0.00329394
     atom   79 type  2   force =     0.00000353   -0.00000092    0.00154758
     atom   80 type  2   force =     0.00003690   -0.00002031    0.00013549
     atom   81 type  2   force =     0.01325894   -0.01098866    0.02364035
     atom   82 type  1   force =     0.00147989    0.00463893    0.00192164
     atom   83 type  1   force =     0.00000043   -0.00000240    0.00189806
     atom   84 type  1   force =     0.00000763   -0.00003203    0.00000783
     atom   85 type  2   force =     0.00000103   -0.00000204   -0.00333417
     atom   86 type  2   force =     0.00000482   -0.00004495   -0.00001883
     atom   87 type  2   force =     0.00060074   -0.00108456    0.00297368
     atom   88 type  2   force =     0.00000141    0.00000788    0.00154788
     atom   89 type  2   force =     0.00002829    0.00003566    0.00010395
     atom   90 type  2   force =    -0.00270695    0.02117154    0.01354076
     atom   91 type  1   force =     0.00025613   -0.00234288    0.00064148
     atom   92 type  1   force =    -0.00000050   -0.00000020    0.00189694
     atom   93 type  1   force =    -0.00005330   -0.00000556   -0.00003412
     atom   94 type  2   force =     0.00000023   -0.00000229   -0.00333664
     atom   95 type  2   force =     0.00000716   -0.00001278   -0.00006736
     atom   96 type  2   force =    -0.00051679   -0.00009601   -0.00009068
     atom   97 type  2   force =    -0.00000324   -0.00000423    0.00153429
     atom   98 type  2   force =    -0.00001054    0.00002248    0.00007927
     atom   99 type  2   force =    -0.00232573    0.00115270    0.00188312
     atom  100 type  1   force =    -0.00074185    0.00026180    0.00014546
     atom  101 type  1   force =    -0.00000219    0.00000039    0.00190047
     atom  102 type  1   force =    -0.00001610   -0.00005100   -0.00003341
     atom  103 type  2   force =     0.00000008   -0.00000010   -0.00333589
     atom  104 type  2   force =     0.00000594   -0.00001372   -0.00009760
     atom  105 type  2   force =    -0.00019698    0.00014693   -0.00019604
     atom  106 type  2   force =     0.00000316   -0.00000650    0.00153587
     atom  107 type  2   force =    -0.00000472   -0.00001238    0.00002916
     atom  108 type  2   force =     0.00021319    0.00001631    0.00100052
     atom  109 type  1   force =    -0.00037371   -0.00031090    0.00068646
     atom  110 type  1   force =    -0.00000105    0.00000235    0.00190346
     atom  111 type  1   force =     0.00004842    0.00002507   -0.00001699
     atom  112 type  2   force =    -0.00000061    0.00000012   -0.00333618
     atom  113 type  2   force =     0.00000002   -0.00000501   -0.00008353
     atom  114 type  2   force =    -0.00019111    0.00053176   -0.00011986
     atom  115 type  2   force =     0.00000159   -0.00000197    0.00154493
     atom  116 type  2   force =     0.00000453   -0.00000992    0.00005465
     atom  117 type  2   force =     0.00052063   -0.00013969    0.00100696
     atom  118 type  1   force =     0.00001645    0.00059550    0.00054098
     atom  119 type  1   force =     0.00000351   -0.00000251    0.00190054
     atom  120 type  1   force =     0.00002792   -0.00000753    0.00002056
     atom  121 type  2   force =     0.00000057   -0.00000135   -0.00333365
     atom  122 type  2   force =    -0.00004112   -0.00000750   -0.00007063
[...]
     atom   72 type  2   force =     0.00004190   -0.00000391    0.00002092
     atom   73 type  1   force =     0.00021090    0.00000367    0.00005963
     atom   74 type  1   force =    -0.00000168   -0.00000187    0.00189903
     atom   75 type  1   force =     0.00002096   -0.00001808   -0.00001094
     atom   76 type  2   force =     0.00000085   -0.00000217   -0.00327993
     atom   77 type  2   force =     0.00000833   -0.00000030   -0.00000133
     atom   78 type  2   force =     0.00019831    0.00010230    0.00001560
     atom   79 type  2   force =    -0.00000287    0.00000396    0.00149809
     atom   80 type  2   force =    -0.00000015    0.00001664    0.00000579
     atom   81 type  2   force =     0.00031112   -0.00037231    0.00017422
     atom   82 type  1   force =     0.00013483    0.00004314   -0.00023998
     atom   83 type  1   force =    -0.00000122   -0.00000229    0.00189416
     atom   84 type  1   force =    -0.00000113   -0.00000453    0.00000851
     atom   85 type  2   force =     0.00000055   -0.00000200   -0.00328053
     atom   86 type  2   force =     0.00000759    0.00001939   -0.00003288
     atom   87 type  2   force =     0.00035801    0.00078573   -0.00036180
     atom   88 type  2   force =     0.00000384    0.00000002    0.00150645
     atom   89 type  2   force =    -0.00001341    0.00000331   -0.00004523
     atom   90 type  2   force =    -0.00056129    0.00026238    0.00011302
     atom   91 type  1   force =    -0.00013891    0.00006353    0.00017994
     atom   92 type  1   force =    -0.00000026   -0.00000440    0.00189579
     atom   93 type  1   force =     0.00003331   -0.00001744   -0.00000304
     atom   94 type  2   force =     0.00000049   -0.00000149   -0.00328010
     atom   95 type  2   force =     0.00001704    0.00002935    0.00002384
     atom   96 type  2   force =    -0.00005873    0.00027035    0.00000691
     atom   97 type  2   force =     0.00000327   -0.00000935    0.00149273
     atom   98 type  2   force =    -0.00000291   -0.00004469    0.00003478
     atom   99 type  2   force =    -0.00017618   -0.00013812   -0.00016420
     atom  100 type  1   force =     0.00010016    0.00005881   -0.00002582
     atom  101 type  1   force =    -0.00000213   -0.00000256    0.00190083
     atom  102 type  1   force =     0.00000039    0.00003143   -0.00002300
     atom  103 type  2   force =     0.00000041   -0.00000162   -0.00327967
     atom  104 type  2   force =     0.00003165   -0.00002190    0.00002366
     atom  105 type  2   force =     0.00008275   -0.00002188   -0.00008165
     atom  106 type  2   force =    -0.00000740   -0.00000927    0.00148666
     atom  107 type  2   force =    -0.00004211   -0.00000658   -0.00003598
     atom  108 type  2   force =     0.00017990    0.00001212    0.00001221
     atom  109 type  1   force =     0.00005929    0.00001299    0.00003310
     atom  110 type  1   force =    -0.00000128   -0.00000012    0.00190406
     atom  111 type  1   force =    -0.00003368   -0.00002648   -0.00002274
     atom  112 type  2   force =     0.00000083   -0.00000200   -0.00327983
     atom  113 type  2   force =     0.00001275   -0.00002474   -0.00000514
     atom  114 type  2   force =     0.00013894    0.00004383   -0.00001766
     atom  115 type  2   force =    -0.00000420   -0.00000067    0.00150398
     atom  116 type  2   force =     0.00000786    0.00006375    0.00001409
     atom  117 type  2   force =     0.00016164    0.00004471    0.00010021
     atom  118 type  1   force =    -0.00024123   -0.00006593    0.00023143
     atom  119 type  1   force =    -0.00000070   -0.00000185    0.00189810
     atom  120 type  1   force =    -0.00003614   -0.00000459   -0.00002374
     atom  121 type  2   force =     0.00000097   -0.00000215   -0.00327998
     atom  122 type  2   force =     0.00000392    0.00002134   -0.00003586
     atom  123 type  2   force =     0.00021756    0.00005905   -0.00024460
     atom  124 type  2   force =    -0.00000874   -0.00000268    0.00150535
     atom  125 type  2   force =     0.00000774   -0.00002936   -0.00005970
     atom  126 type  2   force =    -0.00039264    0.00012778    0.00007397
     atom  127 type  1   force =    -0.00009427    0.00011946    0.00027585
     atom  128 type  1   force =    -0.00000094   -0.00000327    0.00189656
     atom  129 type  1   force =    -0.00001187   -0.00003797    0.00004166
     atom  130 type  2   force =     0.00000076   -0.00000130   -0.00328042
     atom  131 type  2   force =     0.00000447    0.00003309    0.00000434
     atom  132 type  2   force =    -0.00001964    0.00024778    0.00022147
     atom  133 type  2   force =    -0.00000440   -0.00000810    0.00149405
     atom  134 type  2   force =     0.00001595   -0.00000750    0.00003834
     atom  135 type  2   force =    -0.00016019   -0.00029091    0.00003595
     atom  136 type  1   force =     0.00009021    0.00000203   -0.00001198
     atom  137 type  1   force =     0.00000154   -0.00000237    0.00190375
     atom  138 type  1   force =    -0.00000867    0.00000825    0.00000641
     atom  139 type  2   force =     0.00000048   -0.00000146   -0.00327944
     atom  140 type  2   force =    -0.00001493   -0.00001411    0.00003241
     atom  141 type  2   force =     0.00010030    0.00000451    0.00012720
     atom  142 type  2   force =    -0.00000527   -0.00000790    0.00150911
     atom  143 type  2   force =     0.00001397    0.00000684   -0.00003536
     atom  144 type  2   force =     0.00002186    0.00004122    0.00000146
     atom  145 type  3   force =     0.00055604   -0.00058083    0.00015085
     atom  146 type  3   force =    -0.00006443   -0.00000005   -0.00004553
     atom  147 type  4   force =     0.00048325   -0.00000956    0.00039121

     Total force =     0.002815     Total SCF correction =     0.000310
     SCF correction compared to forces is large: reduce conv_thr to get better values
     Energy error            =      1.7E-05 Ry
     Gradient error          =      7.9E-04 Ry/Bohr

     bfgs converged in  22 scf cycles and  21 bfgs steps
     (criteria: energy <  1.0E-04 Ry, force <  1.0E-03 Ry/Bohr)

     End of BFGS Geometry Optimization

     Final energy             =  -26543.7707628183 Ry

     File ./outdir/pwscf.bfgs deleted, as requested
Begin final coordinates

ATOMIC_POSITIONS (angstrom)
Mo               1.5558271967        2.6899519177        6.0696337354
Mo               1.5769197498        0.9104407117       -6.0872367793    0   0   0
Mo              -0.0001147595        1.8208307229       -0.0008779579
S                0.0000044503        0.0000077495       -7.6506323570    0   0   0
S                1.5774287336        0.9111124378       -1.5661460046
S               -0.0182733511        1.8131739292        4.4906713396
S                0.0000053241        0.0000068460       -4.5222282367    0   0   0
S                1.5772167239        0.9106627431        1.5664354185
S               -0.0240086158        1.7984291035        7.6379418320
Mo              -0.0083227334        5.4611839460        6.1240280171
Mo               0.0000011799        3.6417399547       -6.0872367793    0   0   0
Mo              -1.5764545317        4.5519673828       -0.0018877552
S               -1.5769141197        2.7313069925       -7.6506323570    0   0   0
S                0.0006647200        3.6412967250       -1.5666068790
S               -1.5588343059        4.5614459691        4.5404358733
S               -1.5769132459        2.7313060890       -4.5222282367    0   0   0
S               -0.0000088259        3.6419531296        1.5661981762
S               -1.6461235552        4.5119502498        7.7005331419
Mo              -1.5823005888        8.2047019735        6.0801601557
Mo              -1.5769173901        6.3730391977       -6.0872367793    0   0   0
Mo              -3.1537771431        7.2832838729       -0.0019319702
S               -3.1538326896        5.4626062355       -7.6506323570    0   0   0
S               -1.5769154192        6.3727585369       -1.5675920348
S               -3.1425665807        7.2810150700        4.5004413357
S               -3.1538318159        5.4626053320       -4.5222282367    0   0   0
S               -1.5764756217        6.3728045387        1.5650108827
S               -3.1599606846        7.2902420703        7.6360129296
Mo               3.1501116814       -0.0216184440        6.0699883974
Mo              -3.1538359601        9.1043384407       -6.0872367793    0   0   0
Mo              -4.7306198370       10.0150167983       -0.0015956503
S               -4.7307512596        8.1939054785       -7.6506323570    0   0   0
S               -3.1536124825        9.1045533454       -1.5669549133
S               -4.7312335542       10.0174881130        4.4884096457
S               -4.7307503859        8.1939045750       -4.5222282367    0   0   0
S               -3.1538257916        9.1039586027        1.5652414344
S               -4.7436826778        9.9997679874        7.6301986986
Mo               4.7281436721        2.7314580751        6.1267479934
Mo               4.7307503218        0.9104407117       -6.0872367793    0   0   0
Mo               3.1541419166        1.8211678440        0.0000597587
S                3.1538350223        0.0000077495       -7.6506323570    0   0   0
S                4.7307222826        0.9106965203       -1.5658000604
S                3.1789380354        1.8230820470        4.5385289684
S                3.1538358961        0.0000068460       -4.5222282367    0   0   0
S                4.7309416058        0.9097961329        1.5669164296
S                3.0424997845        1.7327097750        7.6981205571
Mo               3.1635413265        5.4853423108        6.0844960496
Mo               3.1538317519        3.6417399547       -6.0872367793    0   0   0
Mo               1.5770445987        4.5520408717       -0.0006184812
S                1.5769164523        2.7313069925       -7.6506323570    0   0   0
S                3.1543150446        3.6416464928       -1.5653856970
S                1.5651584595        4.5540436235        4.5554802234
S                1.5769173261        2.7313060890       -4.5222282367    0   0   0
S                3.1530761376        3.6420716225        1.5684033302
S                1.6200979643        4.4570844921        7.6516337755
Mo               1.5815832148        8.2143003511        6.0883328852
Mo               1.5769131819        6.3730391977       -6.0872367793    0   0   0
Mo               0.0002144205        7.2830181018       -0.0020215295
S               -0.0000021176        5.4626062355       -7.6506323570    0   0   0
S                1.5773288298        6.3723617453       -1.5667709969
S                0.0036344591        7.2697563678        4.5458711389
S               -0.0000012439        5.4626053320       -4.5222282367    0   0   0
S                1.5764264671        6.3728825686        1.5663774926
S               -0.0026648477        7.3731399578        7.6885730952
Mo               6.3079605200       -0.0053996691        6.0965355803
Mo              -0.0000053881        9.1043384407       -6.0872367793    0   0   0
Mo              -1.5767312413       10.0145129764       -0.0009933186
S               -1.5769206876        8.1939054785       -7.6506323570    0   0   0
S                0.0000836318        9.1045006602       -1.5666625040
S               -1.5663710336       10.0159673913        4.5089603608
S               -1.5769198139        8.1939045750       -4.5222282367    0   0   0
S               -0.0002914068        9.1026337765        1.5661518360
S               -1.5887281317       10.0173548490        7.6522792494
Mo               7.8896719210        2.7344440692        6.0942420394
Mo               7.8845808939        0.9104407117       -6.0872367793    0   0   0
Mo               6.3073380049        1.8209468749       -0.0000878096
S                6.3076655943        0.0000077495       -7.6506323570    0   0   0
S                7.8839329827        0.9105611393       -1.5657465978
S                6.2839216744        1.8326092676        4.5612179520
S                6.3076664681        0.0000068460       -4.5222282367    0   0   0
S                7.8836633564        0.9105766591        1.5672240697
S                6.3818227671        1.7751316316        7.7363882228
Mo               6.3455395930        5.4841170452        6.0626577456
Mo               6.3076623239        3.6417399547       -6.0872367793    0   0   0
Mo               4.7306115201        4.5518516198        0.0005933786
S                4.7307470244        2.7313069925       -7.6506323570    0   0   0
S                6.3074494004        3.6417520525       -1.5651361266
S                4.7342170406        4.5335929775        4.5539344766
S                4.7307478981        2.7313060890       -4.5222282367    0   0   0
S                6.3078797270        3.6415791363        1.5679742991
S                4.8063199489        4.6981332197        7.6866208008
Mo               4.7311426700        8.1995289140        6.0735158317
Mo               4.7307437539        6.3730391977       -6.0872367793    0   0   0
Mo               3.1534834317        7.2831089587       -0.0008809210
S                3.1538284544        5.4626062355       -7.6506323570    0   0   0
S                4.7305312723        6.3721198267       -1.5657921895
S                3.1471941160        7.2888748618        4.5186751696
S                3.1538293281        5.4626053320       -4.5222282367    0   0   0
S                4.7302787724        6.3728712650        1.5671196096
S                3.1502958329        7.3321002385        7.6827186072
Mo               9.4571002624        0.0019591637        6.0740994693
Mo               3.1538251839        9.1043384407       -6.0872367793    0   0   0
Mo               1.5764016448       10.0146361286       -0.0005403031
S                1.5769098844        8.1939054785       -7.6506323570    0   0   0
S                3.1528352720        9.1040096491       -1.5667276363
S                1.5659934904       10.0217866516        4.5123180678
S                1.5769107581        8.1939045750       -4.5222282367    0   0   0
S                3.1536026943        9.1041546212        1.5656922336
S                1.5876183744       10.0260184425        7.6591042098
Mo              -1.5867967012        2.7218080105        6.0782278754
Mo              11.0384114659        0.9104407117       -6.0872367793    0   0   0
Mo               9.4611031298        1.8208664282       -0.0006342013
S                9.4614961663        0.0000077495       -7.6506323570    0   0   0
S               11.0379342488        0.9108740602       -1.5667322511
S                9.4488514680        1.8248350646        4.5103062466
S                9.4614970401        0.0000068460       -4.5222282367    0   0   0
S               11.0377446859        0.9095633720        1.5651428116
S                9.4652400556        1.8110825578        7.6526458179
Mo              -3.1557874188        5.4632617411        6.0798447417
Mo               9.4614928959        3.6417399547       -6.0872367793    0   0   0
Mo               7.8848082344        4.5519469825       -0.0000895201
S                7.8845775964        2.7313069925       -7.6506323570    0   0   0
S                9.4611183205        3.6414310498       -1.5662582131
S                7.9010163535        4.5440516304        4.5029243081
S                7.8845784701        2.7313060890       -4.5222282367    0   0   0
S                9.4631834383        3.6421708641        1.5663110248
S                7.8897779333        4.5615917474        7.6486928878
Mo              -4.7289015805        8.1982616750        6.0533686276
Mo               7.8845743259        6.3730391977       -6.0872367793    0   0   0
Mo               6.3074095699        7.2832512325       -0.0010357501
S                6.3076590264        5.4626062355       -7.6506323570    0   0   0
S                7.8841516792        6.3722796159       -1.5664390016
S                6.3070488417        7.2928541975        4.4868768726
S                6.3076599001        5.4626053320       -4.5222282367    0   0   0
S                7.8849462264        6.3734403226        1.5657704972
S                6.3258013249        7.3061141554        7.6295789186
Mo              -0.0075913034       -0.0067064125        6.0605562972
Mo               6.3076557559        9.1043384407       -6.0872367793    0   0   0
Mo               4.7301895521       10.0146162462       -0.0022921667
S                4.7307404564        8.1939054785       -7.6506323570    0   0   0
S                6.3077263184        9.1040694822       -1.5671066661
S                4.7191006293       10.0119147660        4.4999468089
S                4.7307413301        8.1939045750       -4.5222282367    0   0   0
S                6.3072494736        9.1049363423        1.5645203333
S                4.7323968497       10.0171144214        7.6385007876
Pd               3.1063577322        5.3179950249        9.2070327643
Pd               0.1291856875        5.4503114251        9.0414570367
Pt               4.6343427957        2.8364816329        8.9347961496
End final coordinates



     Writing all to output data dir ./outdir/pwscf.save/ :
     XML data file, charge density, pseudopotentials, collected wavefunctions
 
     init_run     :     97.86s CPU     99.97s WALL (       1 calls)
     electrons    : 104032.76s CPU 105572.44s WALL (      22 calls)
     update_pot   :     27.79s CPU     28.64s WALL (      21 calls)
     forces       :   1612.93s CPU   1648.02s WALL (      22 calls)
     force_dftd3  :      8.48s CPU      8.87s WALL (      22 calls)

     Called by init_run:
     wfcinit      :     79.67s CPU     80.62s WALL (       1 calls)
     potinit      :      1.10s CPU      1.20s WALL (       1 calls)
     hinit0       :      9.29s CPU      9.35s WALL (       1 calls)

     Called by electrons:
     c_bands      :  90742.83s CPU  91668.84s WALL (     305 calls)
     sum_band     :  11418.89s CPU  11729.80s WALL (     305 calls)
     v_of_rho     :     89.16s CPU     99.80s WALL (     311 calls)
     newd         :   1578.73s CPU   1876.17s WALL (     311 calls)
     PAW_pot      :    249.46s CPU    251.53s WALL (     332 calls)
     mix_rho      :     24.61s CPU     27.62s WALL (     305 calls)
     energy_dftd3 :      4.71s CPU      4.73s WALL (      22 calls)

     Called by c_bands:
     init_us_2    :    429.75s CPU    431.62s WALL (    2616 calls)
     init_us_2:cp :    429.74s CPU    431.61s WALL (    2616 calls)
     cegterg      :  88903.07s CPU  89821.73s WALL (    1243 calls)

     Called by *egterg:
     cdiaghg      :   4548.28s CPU   4754.50s WALL (   14635 calls)
     h_psi        :  46034.26s CPU  46326.52s WALL (   14796 calls)
     s_psi        :   9959.59s CPU  10002.19s WALL (   14796 calls)
     g_psi        :    101.24s CPU    101.69s WALL (   13549 calls)

     Called by h_psi:
     h_psi:calbec :   9673.28s CPU   9705.87s WALL (   14796 calls)
     vloc_psi     :  26128.77s CPU  26270.20s WALL (   14796 calls)
     add_vuspsi   :  10013.09s CPU  10058.70s WALL (   14796 calls)

     General routines
     calbec       :  13702.38s CPU  13748.07s WALL (   16452 calls)
     fft          :     74.18s CPU     83.97s WALL (    4278 calls)
     ffts         :      3.98s CPU      4.10s WALL (     616 calls)
     fftw         :  19959.22s CPU  20059.88s WALL ( 6863002 calls)
     interpolate  :      7.41s CPU      8.11s WALL (     311 calls)
 
     Parallel routines
 
     PWSCF        :   1d 5h31m CPU   1d 5h59m WALL

 
   This run was terminated on:  22:58:28  30Mar2024            

=------------------------------------------------------------------------------=
   JOB DONE.
=------------------------------------------------------------------------------=
