
     Program PWSCF v.7.3 starts on  5Apr2024 at 14:46: 6 

     This program is part of the open-source Quantum ESPRESSO suite
     for quantum simulation of materials; please cite
         "P. Giannozzi et al., J. Phys.:Condens. Matter 21 395502 (2009);
         "P. Giannozzi et al., J. Phys.:Condens. Matter 29 465901 (2017);
         "P. Giannozzi et al., J. Chem. Phys. 152 154105 (2020);
          URL http://www.quantum-espresso.org", 
     in publications or presentations arising from this work. More details at
     http://www.quantum-espresso.org/quote

     Parallel version (MPI & OpenMP), running on      36 processor cores
     Number of MPI processes:                36
     Threads/MPI process:                     1

     MPI processes distributed on     1 nodes
     552585 MiB available memory on the printing compute node when the environment starts
 
     Waiting for input...
     Reading input from standard input
Warning: card &CELL ignored
Warning: card / ignored

     Current dimensions of program PWSCF are:
     Max number of different atomic species (ntypx) = 10
     Max number of k-points (npk) =  40000
     Max angular momentum in pseudopotentials (lmaxx) =  4
     file Mo.pbe-spn-kjpaw_psl.1.0.0.UPF: wavefunction(s)  4S 4D renormalized
     file S.pbe-n-kjpaw_psl.1.0.0.UPF: wavefunction(s)  3S 3P renormalized
     file Pt.pbe-spfn-kjpaw_psl.1.0.0.UPF: wavefunction(s)  5P 4F renormalized
     file Pd.pbe-spn-kjpaw_psl.1.0.0.UPF: wavefunction(s)  4S 5S 4D renormalized
 
     R & G space division:  proc/nbgrp/npool/nimage =      36
     Subspace diagonalization in iterative solution of the eigenvalue problem:
     one sub-group per band group will be used
     scalapack distributed-memory algorithm (size of sub-group:  6*  6 procs)

 
     Parallelization info
     --------------------
     sticks:   dense  smooth     PW     G-vecs:    dense   smooth      PW
     Min         585     334     89               198743    85850   11735
     Max         586     335     90               198750    85861   11748
     Sum       21073   12049   3205              7154885  3090769  422587
 
     Using Slab Decomposition
 


     bravais-lattice index     =            0
     lattice parameter (alat)  =      23.8199  a.u.
     unit-cell volume          =   33861.0370 (a.u.)^3
     number of atoms/cell      =          195
     number of atomic types    =            4
     number of electrons       =      1746.00
     number of Kohn-Sham states=         1048
     kinetic-energy cutoff     =      77.0000  Ry
     charge density cutoff     =     539.0000  Ry
     scf convergence threshold =      1.0E-06
     mixing beta               =       0.2000
     number of iterations used =            8  plain     mixing
     energy convergence thresh.=      1.0E-04
     force convergence thresh. =      1.0E-03
     Exchange-correlation= SLA  PW   PBX  PBC
                           (   1   4   3   4   0   0   0)
     nstep                     =         1000


     Effective Screening Medium Method
     =================================
     Boundary Conditions: Vacuum-Slab-Vacuum
     total charge in unit cell        =   0.0000
     grid points for fit at edges     =        4 
 

     celldm(1)=  23.819920  celldm(2)=   0.000000  celldm(3)=   0.000000
     celldm(4)=   0.000000  celldm(5)=   0.000000  celldm(6)=   0.000000

     crystal axes: (cart. coord. in units of alat)
               a(1) = (   1.000000   0.000000   0.000000 )  
               a(2) = (  -0.499999   0.866026   0.000000 )  
               a(3) = (   0.000000   0.000000   2.893000 )  

     reciprocal axes: (cart. coord. in units 2 pi/alat)
               b(1) = (  1.000000  0.577349  0.000000 )  
               b(2) = (  0.000000  1.154700  0.000000 )  
               b(3) = (  0.000000  0.000000  0.345662 )  


     PseudoPot. # 1 for Mo read from file:
     ./pseudo/Mo.pbe-spn-kjpaw_psl.1.0.0.UPF
     MD5 check sum: 317bf72632116215fd98f72de1686f13
     Pseudo is Projector augmented-wave + core cor, Zval = 14.0
     Generated using 'atomic' code by A. Dal Corso  v.7.2
     Shape of augmentation charge: PSQ
     Using radial grid of 1229 points,  6 beta functions with: 
                l(1) =   0
                l(2) =   0
                l(3) =   1
                l(4) =   1
                l(5) =   2
                l(6) =   2
     Q(r) pseudized with 0 coefficients 


     PseudoPot. # 2 for S  read from file:
     ./pseudo/S.pbe-n-kjpaw_psl.1.0.0.UPF
     MD5 check sum: 8b7b5302570d38d5e87fed6a1065abda
     Pseudo is Projector augmented-wave + core cor, Zval =  6.0
     Generated using 'atomic' code by A. Dal Corso  v.7.2
     Shape of augmentation charge: PSQ
     Using radial grid of 1151 points,  6 beta functions with: 
                l(1) =   0
                l(2) =   0
                l(3) =   1
                l(4) =   1
                l(5) =   2
                l(6) =   2
     Q(r) pseudized with 0 coefficients 


     PseudoPot. # 3 for Pt read from file:
     ./pseudo/Pt.pbe-spfn-kjpaw_psl.1.0.0.UPF
     MD5 check sum: 620096ebf4e6ebacc94de60fd67efcb5
     Pseudo is Projector augmented-wave + core cor, Zval = 32.0
     Generated using 'atomic' code by A. Dal Corso  v.7.2
     Shape of augmentation charge: PSQ
     Using radial grid of 1277 points,  8 beta functions with: 
                l(1) =   0
                l(2) =   0
                l(3) =   1
                l(4) =   1
                l(5) =   2
                l(6) =   2
                l(7) =   3
                l(8) =   3
     Q(r) pseudized with 0 coefficients 


     PseudoPot. # 4 for Pd read from file:
     ./pseudo/Pd.pbe-spn-kjpaw_psl.1.0.0.UPF
     MD5 check sum: a60571a671f2502b8a6a4569d20a6edb
     Pseudo is Projector augmented-wave + core cor, Zval = 18.0
     Generated using 'atomic' code by A. Dal Corso  v.7.2
     Shape of augmentation charge: PSQ
     Using radial grid of 1235 points,  6 beta functions with: 
                l(1) =   0
                l(2) =   0
                l(3) =   1
                l(4) =   1
                l(5) =   2
                l(6) =   2
     Q(r) pseudized with 0 coefficients 


     atomic species   valence    mass     pseudopotential
     Mo               14.00    95.95000     Mo( 1.00)
     S                 6.00    32.06000     S ( 1.00)
     Pt               32.00   195.08400     Pt( 1.00)
     Pd               18.00   106.42000     Pd( 1.00)

     No symmetry found



   Cartesian axes

     site n.     atom                  positions (alat units)
         1        Mo     tau(   1) = (   0.0000010   0.1443372  -0.7272732  )
         2        Mo     tau(   2) = (   0.1249995   0.0721706  -0.2424038  )
         3        S      tau(   3) = (   0.0000015   0.1443386  -0.3667807  )
         4        S      tau(   4) = (   0.1250010   0.0721682  -0.6030489  )
         5        S      tau(   5) = (   0.1250010   0.0721683  -0.8514963  )
         6        S      tau(   6) = (   0.0000015   0.1443389  -0.1180260  )
         7        Mo     tau(   7) = (   0.0000165   0.1443639   0.2424458  )
         8        Mo     tau(   8) = (   0.1250235   0.0717246   0.7263406  )
         9        S      tau(   9) = (   0.0005369   0.1448386   0.6015218  )
        10        S      tau(  10) = (   0.1249954   0.0721618   0.3668135  )
        11        S      tau(  11) = (   0.1250195   0.0721779   0.1180823  )
        12        S      tau(  12) = (  -0.0003270   0.1431025   0.8512079  )
        13        Mo     tau(  13) = (  -0.1249989   0.3608437  -0.7272732  )
        14        Mo     tau(  14) = (   0.0000030   0.2886752  -0.2424042  )
        15        S      tau(  15) = (  -0.1249977   0.3608450  -0.3667802  )
        16        S      tau(  16) = (   0.0000012   0.2886747  -0.6030489  )
        17        S      tau(  17) = (   0.0000012   0.2886748  -0.8514963  )
        18        S      tau(  18) = (  -0.1249977   0.3608454  -0.1180274  )
        19        Mo     tau(  19) = (  -0.1249838   0.3608611   0.2424564  )
        20        Mo     tau(  20) = (  -0.0010112   0.2875499   0.7275042  )
        21        S      tau(  21) = (  -0.1249589   0.3614723   0.6028911  )
        22        S      tau(  22) = (   0.0000229   0.2887164   0.3668462  )
        23        S      tau(  23) = (   0.0000319   0.2887039   0.1180849  )
        24        S      tau(  24) = (  -0.1254179   0.3601432   0.8519775  )
        25        Mo     tau(  25) = (  -0.2499987   0.5773502  -0.7272732  )
        26        Mo     tau(  26) = (  -0.1249977   0.5051839  -0.2424055  )
        27        S      tau(  27) = (  -0.2499981   0.5773518  -0.3667809  )
        28        S      tau(  28) = (  -0.1249986   0.5051812  -0.6030489  )
        29        S      tau(  29) = (  -0.1249986   0.5051813  -0.8514963  )
        30        S      tau(  30) = (  -0.2499979   0.5773512  -0.1180266  )
        31        Mo     tau(  31) = (  -0.2499892   0.5773423   0.2424725  )
        32        Mo     tau(  32) = (  -0.1256606   0.5052028   0.7286154  )
        33        S      tau(  33) = (  -0.2498226   0.5768374   0.6031862  )
        34        S      tau(  34) = (  -0.1249521   0.5051863   0.3668519  )
        35        S      tau(  35) = (  -0.1249975   0.5051799   0.1180722  )
        36        S      tau(  36) = (  -0.2499767   0.5778459   0.8528940  )
        37        Mo     tau(  37) = (  -0.3749985   0.7938567  -0.7272732  )
        38        Mo     tau(  38) = (  -0.2500001   0.7216874  -0.2424031  )
        39        S      tau(  39) = (  -0.3749980   0.7938584  -0.3667800  )
        40        S      tau(  40) = (  -0.2499984   0.7216877  -0.6030489  )
        41        S      tau(  41) = (  -0.2499984   0.7216878  -0.8514963  )
        42        S      tau(  42) = (  -0.3749982   0.7938585  -0.1180264  )
        43        Mo     tau(  43) = (  -0.3749918   0.7938447   0.2424454  )
        44        Mo     tau(  44) = (  -0.2499337   0.7214685   0.7273252  )
        45        S      tau(  45) = (  -0.3749119   0.7930997   0.6024017  )
        46        S      tau(  46) = (  -0.2499835   0.7216794   0.3668152  )
        47        S      tau(  47) = (  -0.2499982   0.7216718   0.1180690  )
        48        S      tau(  48) = (  -0.3745581   0.7945239   0.8516564  )
        49        Mo     tau(  49) = (   0.2500010   0.1443372  -0.7272732  )
        50        Mo     tau(  50) = (   0.3750034   0.0721723  -0.2424032  )
        51        S      tau(  51) = (   0.2500017   0.1443391  -0.3667788  )
        52        S      tau(  52) = (   0.3750010   0.0721682  -0.6030489  )
        53        S      tau(  53) = (   0.3750010   0.0721683  -0.8514963  )
        54        S      tau(  54) = (   0.2500016   0.1443391  -0.1180271  )
        55        Mo     tau(  55) = (   0.2500049   0.1443558   0.2424800  )
        56        Mo     tau(  56) = (   0.3750695   0.0717200   0.7264262  )
        57        S      tau(  57) = (   0.2500704   0.1440362   0.6019475  )
        58        S      tau(  58) = (   0.3750099   0.0721483   0.3668106  )
        59        S      tau(  59) = (   0.3749948   0.0721851   0.1180824  )
        60        S      tau(  60) = (   0.2500131   0.1413211   0.8516135  )
        61        Mo     tau(  61) = (   0.1250012   0.3608437  -0.7272732  )
        62        Mo     tau(  62) = (   0.2500029   0.2886782  -0.2424031  )
        63        S      tau(  63) = (   0.1250024   0.3608455  -0.3667794  )
        64        S      tau(  64) = (   0.2500012   0.2886747  -0.6030489  )
        65        S      tau(  65) = (   0.2500012   0.2886748  -0.8514963  )
        66        S      tau(  66) = (   0.1250021   0.3608455  -0.1180270  )
        67        Mo     tau(  67) = (   0.1250220   0.3608739   0.2424909  )
        68        Mo     tau(  68) = (   0.2500516   0.2862417   0.7284634  )
        69        S      tau(  69) = (   0.1251493   0.3619302   0.6061672  )
        70        S      tau(  70) = (   0.2500021   0.2887137   0.3669053  )
        71        S      tau(  71) = (   0.2500084   0.2886924   0.1181099  )
        72        S      tau(  72) = (   0.1241634   0.3514816   0.8558063  )
        73        Mo     tau(  73) = (   0.0000014   0.5773502  -0.7272732  )
        74        Mo     tau(  74) = (   0.1250045   0.5051840  -0.2424036  )
        75        S      tau(  75) = (   0.0000030   0.5773520  -0.3667799  )
        76        S      tau(  76) = (   0.1250014   0.5051812  -0.6030489  )
        77        S      tau(  77) = (   0.1250014   0.5051813  -0.8514963  )
        78        S      tau(  78) = (   0.0000026   0.5773517  -0.1180274  )
        79        Mo     tau(  79) = (   0.0000298   0.5773239   0.2424318  )
        80        Mo     tau(  80) = (   0.1235562   0.5053489   0.7306566  )
        81        S      tau(  81) = (   0.0009343   0.5763644   0.6059345  )
        82        S      tau(  82) = (   0.1250078   0.5051967   0.3669171  )
        83        S      tau(  83) = (   0.1250403   0.5051743   0.1180834  )
        84        S      tau(  84) = (  -0.0065880   0.5806588   0.8588888  )
        85        Mo     tau(  85) = (  -0.1249984   0.7938567  -0.7272732  )
        86        Mo     tau(  86) = (   0.0000069   0.7216896  -0.2424039  )
        87        S      tau(  87) = (  -0.1249975   0.7938582  -0.3667782  )
        88        S      tau(  88) = (   0.0000016   0.7216877  -0.6030489  )
        89        S      tau(  89) = (   0.0000016   0.7216878  -0.8514963  )
        90        S      tau(  90) = (  -0.1249973   0.7938582  -0.1180279  )
        91        Mo     tau(  91) = (  -0.1249912   0.7938418   0.2424335  )
        92        Mo     tau(  92) = (  -0.0002856   0.7221962   0.7280430  )
        93        S      tau(  93) = (  -0.1248457   0.7930650   0.6025902  )
        94        S      tau(  94) = (  -0.0000060   0.7216208   0.3667980  )
        95        S      tau(  95) = (   0.0000209   0.7216773   0.1180639  )
        96        S      tau(  96) = (  -0.1254320   0.7945446   0.8518225  )
        97        Mo     tau(  97) = (   0.5000010   0.1443372  -0.7272732  )
        98        Mo     tau(  98) = (   0.6250001   0.0721662  -0.2424040  )
        99        S      tau(  99) = (   0.5000017   0.1443386  -0.3667801  )
       100        S      tau( 100) = (   0.6250010   0.0721682  -0.6030489  )
       101        S      tau( 101) = (   0.6250010   0.0721683  -0.8514963  )
       102        S      tau( 102) = (   0.5000020   0.1443388  -0.1180261  )
       103        Mo     tau( 103) = (   0.4999955   0.1443611   0.2424567  )
       104        Mo     tau( 104) = (   0.6246463   0.0728119   0.7256413  )
       105        S      tau( 105) = (   0.4995556   0.1446831   0.6015045  )
       106        S      tau( 106) = (   0.6250311   0.0722157   0.3667721  )
       107        S      tau( 107) = (   0.6249808   0.0721636   0.1180639  )
       108        S      tau( 108) = (   0.5004658   0.1432308   0.8511310  )
       109        Mo     tau( 109) = (   0.3750012   0.3608437  -0.7272732  )
       110        Mo     tau( 110) = (   0.4999991   0.2886761  -0.2424038  )
       111        S      tau( 111) = (   0.3750012   0.3608452  -0.3667804  )
       112        S      tau( 112) = (   0.5000012   0.2886747  -0.6030489  )
       113        S      tau( 113) = (   0.5000012   0.2886748  -0.8514963  )
       114        S      tau( 114) = (   0.3750014   0.3608455  -0.1180261  )
       115        Mo     tau( 115) = (   0.3749911   0.3608734   0.2424983  )
       116        Mo     tau( 116) = (   0.5011245   0.2875246   0.7272611  )
       117        S      tau( 117) = (   0.3748808   0.3618865   0.6059605  )
       118        S      tau( 118) = (   0.4999884   0.2887132   0.3668588  )
       119        S      tau( 119) = (   0.4999854   0.2887028   0.1180988  )
       120        S      tau( 120) = (   0.3760770   0.3514537   0.8556312  )
       121        Mo     tau( 121) = (   0.2500014   0.5773502  -0.7272732  )
       122        Mo     tau( 122) = (   0.3749983   0.5051825  -0.2424043  )
       123        S      tau( 123) = (   0.2500017   0.5773519  -0.3667810  )
       124        S      tau( 124) = (   0.3750014   0.5051812  -0.6030489  )
       125        S      tau( 125) = (   0.3750014   0.5051813  -0.8514963  )
       126        S      tau( 126) = (   0.2500018   0.5773519  -0.1180256  )
       127        Mo     tau( 127) = (   0.2500077   0.5773382   0.2424971  )
       128        Mo     tau( 128) = (   0.3766993   0.5053238   0.7304272  )
       129        S      tau( 129) = (   0.2500029   0.5764488   0.6074621  )
       130        S      tau( 130) = (   0.3750022   0.5051973   0.3669226  )
       131        S      tau( 131) = (   0.3749796   0.5051747   0.1180897  )
       132        S      tau( 132) = (   0.2502086   0.5906803   0.8517598  )
       133        Mo     tau( 133) = (   0.1250016   0.7938567  -0.7272732  )
       134        Mo     tau( 134) = (   0.2499995   0.7216883  -0.2424036  )
       135        S      tau( 135) = (   0.1250024   0.7938578  -0.3667813  )
       136        S      tau( 136) = (   0.2500016   0.7216877  -0.6030489  )
       137        S      tau( 137) = (   0.2500016   0.7216878  -0.8514963  )
       138        S      tau( 138) = (   0.1250024   0.7938579  -0.1180253  )
       139        Mo     tau( 139) = (   0.1250030   0.7938506   0.2424689  )
       140        Mo     tau( 140) = (   0.2500869   0.7270239   0.7252501  )
       141        S      tau( 141) = (   0.1234110   0.7947569   0.6009716  )
       142        S      tau( 142) = (   0.2500041   0.7216753   0.3668766  )
       143        S      tau( 143) = (   0.2500092   0.7216778   0.1181077  )
       144        S      tau( 144) = (   0.1247568   0.7963642   0.8506634  )
       145        Mo     tau( 145) = (   0.7500010   0.1443372  -0.7272732  )
       146        Mo     tau( 146) = (   0.8750038   0.0721696  -0.2424038  )
       147        S      tau( 147) = (   0.7500016   0.1443382  -0.3667789  )
       148        S      tau( 148) = (   0.8750010   0.0721682  -0.6030489  )
       149        S      tau( 149) = (   0.8750010   0.0721683  -0.8514963  )
       150        S      tau( 150) = (   0.7500016   0.1443384  -0.1180279  )
       151        Mo     tau( 151) = (   0.7500056   0.1443690   0.2423906  )
       152        Mo     tau( 152) = (   0.8754762   0.0728639   0.7256129  )
       153        S      tau( 153) = (   0.7500308   0.1452012   0.6014640  )
       154        S      tau( 154) = (   0.8749862   0.0722263   0.3667681  )
       155        S      tau( 155) = (   0.8750254   0.0721591   0.1180621  )
       156        S      tau( 156) = (   0.7500441   0.1442691   0.8503988  )
       157        Mo     tau( 157) = (   0.6250012   0.3608437  -0.7272732  )
       158        Mo     tau( 158) = (   0.7500028   0.2886769  -0.2424041  )
       159        S      tau( 159) = (   0.6250015   0.3608451  -0.3667792  )
       160        S      tau( 160) = (   0.7500012   0.2886747  -0.6030489  )
       161        S      tau( 161) = (   0.7500012   0.2886748  -0.8514963  )
       162        S      tau( 162) = (   0.6250016   0.3608454  -0.1180280  )
       163        Mo     tau( 163) = (   0.6249990   0.3608612   0.2424707  )
       164        Mo     tau( 164) = (   0.7500746   0.2887820   0.7269162  )
       165        S      tau( 165) = (   0.6251905   0.3614018   0.6027475  )
       166        S      tau( 166) = (   0.7500151   0.2886908   0.3668035  )
       167        S      tau( 167) = (   0.7499992   0.2887185   0.1180565  )
       168        S      tau( 168) = (   0.6254399   0.3601689   0.8517611  )
       169        Mo     tau( 169) = (   0.5000014   0.5773502  -0.7272732  )
       170        Mo     tau( 170) = (   0.6250029   0.5051841  -0.2424047  )
       171        S      tau( 171) = (   0.5000014   0.5773518  -0.3667794  )
       172        S      tau( 172) = (   0.6250014   0.5051812  -0.6030489  )
       173        S      tau( 173) = (   0.6250014   0.5051813  -0.8514963  )
       174        S      tau( 174) = (   0.5000016   0.5773516  -0.1180277  )
       175        Mo     tau( 175) = (   0.4999861   0.5773259   0.2424414  )
       176        Mo     tau( 176) = (   0.6258514   0.5052144   0.7284022  )
       177        S      tau( 177) = (   0.4992455   0.5763364   0.6056359  )
       178        S      tau( 178) = (   0.6249791   0.5051944   0.3668559  )
       179        S      tau( 179) = (   0.6250105   0.5051778   0.1180820  )
       180        S      tau( 180) = (   0.5069392   0.5807955   0.8586037  )
       181        Mo     tau( 181) = (   0.3750016   0.7938567  -0.7272732  )
       182        Mo     tau( 182) = (   0.5000025   0.7216901  -0.2424039  )
       183        S      tau( 183) = (   0.3750019   0.7938578  -0.3667793  )
       184        S      tau( 184) = (   0.5000016   0.7216877  -0.6030489  )
       185        S      tau( 185) = (   0.5000016   0.7216878  -0.8514963  )
       186        S      tau( 186) = (   0.3750020   0.7938579  -0.1180272  )
       187        Mo     tau( 187) = (   0.3750095   0.7938535   0.2424732  )
       188        Mo     tau( 188) = (   0.5004392   0.7222160   0.7277389  )
       189        S      tau( 189) = (   0.3766340   0.7948794   0.6008559  )
       190        S      tau( 190) = (   0.5000179   0.7216263   0.3668038  )
       191        S      tau( 191) = (   0.4999965   0.7216810   0.1180753  )
       192        S      tau( 192) = (   0.3755295   0.7963504   0.8505132  )
       193        Pt     tau( 193) = (   0.1371069   0.5032381   0.9573497  )
       194        Pt     tau( 194) = (   0.3635722   0.5033563   0.9571359  )
       195        Pd     tau( 195) = (  -0.0010313   0.2875852   0.9827085  )

     --------------------------------------------
     DFT-D3 Dispersion Correction (3-body terms):
     --------------------------------------------
       Reference C6 values for interpolation: 

         atom   Coordination number   C6
         S          0.000           268.01
         S          0.995           261.99
         S          1.990           251.62
         Mo         0.000          1691.79
         Mo         1.942          1004.01
         Mo        11.056           674.22
         Pd         0.000          1217.01
         Pd         1.863           573.90
         Pd         5.710           531.75
         Pt         0.000           782.29
         Pt         1.919           692.72
         Pt         6.667           673.75

       Values used:

         atom   Coordination number  R0_AB[au]  C6      C8
         Mo        10.208            3.547    674.22  77634.20
         Mo        10.221            3.547    674.22  77634.20
         S          3.858            3.128    251.62  12327.25
         S          3.859            3.128    251.62  12327.25
         S          3.758            3.128    251.62  12327.25
         S          3.859            3.128    251.62  12327.25
         Mo        10.220            3.547    674.22  77634.20
         Mo        10.271            3.547    674.21  77634.20
         S          3.855            3.128    251.62  12327.25
         S          3.861            3.128    251.62  12327.25
         S          3.859            3.128    251.62  12327.25
         S          4.723            3.128    251.62  12327.25
         Mo        10.208            3.547    674.22  77634.20
         Mo        10.221            3.547    674.22  77634.20
         S          3.858            3.128    251.62  12327.25
         S          3.859            3.128    251.62  12327.25
         S          3.758            3.128    251.62  12327.25
         S          3.859            3.128    251.62  12327.25
         Mo        10.221            3.547    674.22  77634.20
         Mo        10.577            3.547    674.22  77634.20
         S          3.866            3.128    251.62  12327.25
         S          3.857            3.128    251.62  12327.25
         S          3.859            3.128    251.62  12327.25
         S          4.675            3.128    251.62  12327.25
         Mo        10.208            3.547    674.21  77634.20
         Mo        10.221            3.547    674.22  77634.20
         S          3.858            3.128    251.62  12327.25
         S          3.859            3.128    251.62  12327.25
         S          3.758            3.128    251.62  12327.25
         S          3.859            3.128    251.62  12327.25
         Mo        10.221            3.547    674.22  77634.20
         Mo        10.246            3.547    674.22  77634.20
         S          3.856            3.128    251.62  12327.25
         S          3.856            3.128    251.62  12327.25
         S          3.859            3.128    251.62  12327.25
         S          3.826            3.128    251.62  12327.25
         Mo        10.208            3.547    674.22  77634.20
         Mo        10.221            3.547    674.22  77634.20
         S          3.858            3.128    251.62  12327.25
         S          3.859            3.128    251.62  12327.25
         S          3.758            3.128    251.62  12327.25
         S          3.859            3.128    251.62  12327.25
         Mo        10.220            3.547    674.22  77634.20
         Mo        10.248            3.547    674.22  77634.20
         S          3.856            3.128    251.62  12327.25
         S          3.859            3.128    251.62  12327.25
         S          3.859            3.128    251.62  12327.25
         S          3.818            3.128    251.62  12327.25
         Mo        10.208            3.547    674.22  77634.20
         Mo        10.221            3.547    674.22  77634.20
         S          3.858            3.128    251.62  12327.25
         S          3.859            3.128    251.62  12327.25
         S          3.758            3.128    251.62  12327.25
         S          3.859            3.128    251.62  12327.25
         Mo        10.220            3.547    674.22  77634.20
         Mo        10.265            3.547    674.22  77634.20
         S          3.844            3.128    251.62  12327.25
         S          3.861            3.128    251.62  12327.25
         S          3.859            3.128    251.62  12327.25
         S          3.853            3.128    251.62  12327.25
         Mo        10.208            3.547    674.22  77634.20
         Mo        10.221            3.547    674.22  77634.20
         S          3.858            3.128    251.62  12327.25
         S          3.859            3.128    251.62  12327.25
         S          3.758            3.128    251.62  12327.25
         S          3.859            3.128    251.62  12327.25
         Mo        10.222            3.547    674.22  77634.20
         Mo        10.168            3.547    674.22  77634.20
         S          3.859            3.128    251.62  12327.25
         S          3.852            3.128    251.62  12327.25
         S          3.859            3.128    251.62  12327.25
         S          5.617            3.128    251.62  12327.25
         Mo        10.208            3.547    674.22  77634.20
         Mo        10.221            3.547    674.22  77634.20
         S          3.858            3.128    251.62  12327.25
         S          3.859            3.128    251.62  12327.25
         S          3.758            3.128    251.62  12327.25
         S          3.859            3.128    251.62  12327.25
         Mo        10.221            3.547    674.22  77634.20
         Mo        10.846            3.547    674.22  77634.20
         S          3.845            3.128    251.62  12327.25
         S          3.850            3.128    251.62  12327.25
         S          3.859            3.128    251.62  12327.25
         S          4.637            3.128    251.62  12327.25
         Mo        10.208            3.547    674.22  77634.20
         Mo        10.221            3.547    674.22  77634.20
         S          3.858            3.128    251.62  12327.25
         S          3.859            3.128    251.62  12327.25
         S          3.758            3.128    251.62  12327.25
         S          3.859            3.128    251.62  12327.25
         Mo        10.220            3.547    674.22  77634.20
         Mo        10.227            3.547    674.22  77634.20
         S          3.858            3.128    251.62  12327.25
         S          3.859            3.128    251.62  12327.25
         S          3.859            3.128    251.62  12327.25
         S          3.813            3.128    251.62  12327.25
         Mo        10.208            3.547    674.22  77634.20
         Mo        10.221            3.547    674.22  77634.20
         S          3.858            3.128    251.62  12327.25
         S          3.859            3.128    251.62  12327.25
         S          3.758            3.128    251.62  12327.25
         S          3.859            3.128    251.62  12327.25
         Mo        10.220            3.547    674.22  77634.20
         Mo        10.292            3.547    674.22  77634.20
         S          3.855            3.128    251.62  12327.25
         S          3.864            3.128    251.62  12327.25
         S          3.859            3.128    251.62  12327.25
         S          3.824            3.128    251.62  12327.25
         Mo        10.208            3.547    674.22  77634.20
         Mo        10.221            3.547    674.22  77634.20
         S          3.858            3.128    251.62  12327.25
         S          3.859            3.128    251.62  12327.25
         S          3.758            3.128    251.62  12327.25
         S          3.859            3.128    251.62  12327.25
         Mo        10.222            3.547    674.21  77634.20
         Mo        10.225            3.547    674.22  77634.20
         S          3.856            3.128    251.62  12327.25
         S          3.857            3.128    251.62  12327.25
         S          3.859            3.128    251.62  12327.25
         S          4.678            3.128    251.62  12327.25
         Mo        10.208            3.547    674.22  77634.20
         Mo        10.221            3.547    674.22  77634.20
         S          3.858            3.128    251.62  12327.25
         S          3.859            3.128    251.62  12327.25
         S          3.758            3.128    251.62  12327.25
         S          3.859            3.128    251.62  12327.25
         Mo        10.222            3.547    674.22  77634.20
         Mo        10.839            3.547    674.22  77634.20
         S          3.874            3.128    251.62  12327.25
         S          3.850            3.128    251.62  12327.25
         S          3.859            3.128    251.62  12327.25
         S          5.677            3.128    251.62  12327.25
         Mo        10.208            3.547    674.22  77634.20
         Mo        10.221            3.547    674.22  77634.20
         S          3.858            3.128    251.62  12327.25
         S          3.859            3.128    251.62  12327.25
         S          3.758            3.128    251.62  12327.25
         S          3.859            3.128    251.62  12327.25
         Mo        10.220            3.547    674.22  77634.20
         Mo        10.170            3.547    674.22  77634.20
         S          3.838            3.128    251.62  12327.25
         S          3.855            3.128    251.62  12327.25
         S          3.859            3.128    251.62  12327.25
         S          3.839            3.128    251.62  12327.25
         Mo        10.208            3.547    674.22  77634.20
         Mo        10.221            3.547    674.22  77634.20
         S          3.858            3.128    251.62  12327.25
         S          3.859            3.128    251.62  12327.25
         S          3.758            3.128    251.62  12327.25
         S          3.859            3.128    251.62  12327.25
         Mo        10.220            3.547    674.22  77634.20
         Mo        10.299            3.547    674.22  77634.20
         S          3.857            3.128    251.62  12327.25
         S          3.864            3.128    251.62  12327.25
         S          3.859            3.128    251.62  12327.25
         S          3.804            3.128    251.62  12327.25
         Mo        10.208            3.547    674.21  77634.20
         Mo        10.220            3.547    674.22  77634.20
         S          3.858            3.128    251.62  12327.25
         S          3.859            3.128    251.62  12327.25
         S          3.758            3.128    251.62  12327.25
         S          3.859            3.128    251.62  12327.25
         Mo        10.221            3.547    674.22  77634.20
         Mo        10.266            3.547    674.22  77634.20
         S          3.864            3.128    251.62  12327.25
         S          3.861            3.128    251.62  12327.25
         S          3.859            3.128    251.62  12327.25
         S          3.772            3.128    251.62  12327.25
         Mo        10.208            3.547    674.22  77634.20
         Mo        10.221            3.547    674.22  77634.20
         S          3.858            3.128    251.62  12327.25
         S          3.859            3.128    251.62  12327.25
         S          3.758            3.128    251.62  12327.25
         S          3.859            3.128    251.62  12327.25
         Mo        10.221            3.547    674.22  77634.20
         Mo        10.240            3.547    674.22  77634.20
         S          3.842            3.128    251.62  12327.25
         S          3.856            3.128    251.62  12327.25
         S          3.859            3.128    251.62  12327.25
         S          4.635            3.128    251.62  12327.25
         Mo        10.208            3.547    674.22  77634.20
         Mo        10.221            3.547    674.21  77634.20
         S          3.858            3.128    251.62  12327.25
         S          3.859            3.128    251.62  12327.25
         S          3.758            3.128    251.62  12327.25
         S          3.859            3.128    251.62  12327.25
         Mo        10.220            3.547    674.22  77634.20
         Mo        10.228            3.547    674.22  77634.20
         S          3.837            3.128    251.62  12327.25
         S          3.859            3.128    251.62  12327.25
         S          3.859            3.128    251.62  12327.25
         S          3.843            3.128    251.62  12327.25
         Pt         4.750            3.168    673.75  70061.90
         Pt         4.574            3.168    673.75  70061.94
         Pd         3.356            3.168    573.90  52583.07

         Molecular C6 ( Ry / a.u.^6 ) =  14177966.40


     number of k points=     4  Gaussian smearing, width (Ry)=  0.0100
                       cart. coord. in units 2pi/alat
        k(    1) = (   0.0000000   0.0000000   0.0000000), wk =   0.5000000
        k(    2) = (   0.0000000  -0.5773499   0.0000000), wk =   0.5000000
        k(    3) = (  -0.5000000  -0.2886744   0.0000000), wk =   0.5000000
        k(    4) = (  -0.5000000  -0.8660242   0.0000000), wk =   0.5000000

     Dense  grid:  7154885 G-vectors     FFT dimensions: ( 180, 180, 512)

     Smooth grid:  3090769 G-vectors     FFT dimensions: ( 135, 135, 400)

     Estimated max dynamical RAM per process >       4.33 GB

     Estimated total dynamical RAM >     155.86 GB

     Initial potential from superposition of free atoms

     starting charge    1745.9388, renormalised to    1746.0000

     negative rho (up, down):  8.837E-04 0.000E+00
     Starting wfcs are 1196 randomized atomic wfcs
     Checking if some PAW data can be deallocated... 

     total cpu time spent up to now is      182.2 secs

     Self-consistent Calculation

     iteration #  1     ecut=    77.00 Ry     beta= 0.20
     Davidson diagonalization with overlap
     ethr =  1.00E-02,  avg # of iterations =  2.0

     Threshold (ethr) on eigenvalues was too large:
     Diagonalizing with lowered threshold

     Davidson diagonalization with overlap
     ethr =  1.71E-04,  avg # of iterations = 16.0

     negative rho (up, down):  2.445E-04 0.000E+00

     total cpu time spent up to now is     2243.3 secs

     total energy              =  -35654.84715053 Ry
     estimated scf accuracy    <       6.65135218 Ry

     iteration #  2     ecut=    77.00 Ry     beta= 0.20
     Davidson diagonalization with overlap
     ethr =  3.81E-04,  avg # of iterations =  2.0

     negative rho (up, down):  2.713E-05 0.000E+00

     total cpu time spent up to now is     2660.1 secs

     total energy              =  -35653.52278547 Ry
     estimated scf accuracy    <       3.45148803 Ry

     iteration #  3     ecut=    77.00 Ry     beta= 0.20
     Davidson diagonalization with overlap
     ethr =  1.98E-04,  avg # of iterations = 17.2

     negative rho (up, down):  2.233E-05 0.000E+00

     total cpu time spent up to now is     3200.8 secs

     total energy              =  -35653.89403483 Ry
     estimated scf accuracy    <       2.09564449 Ry

     iteration #  4     ecut=    77.00 Ry     beta= 0.20
     Davidson diagonalization with overlap
     ethr =  1.20E-04,  avg # of iterations =  8.0

     negative rho (up, down):  1.529E-05 0.000E+00

     total cpu time spent up to now is     3685.2 secs

     total energy              =  -35654.13185858 Ry
     estimated scf accuracy    <       0.56856192 Ry

     iteration #  5     ecut=    77.00 Ry     beta= 0.20
     Davidson diagonalization with overlap
     c_bands:  1 eigenvalues not converged
     c_bands:  2 eigenvalues not converged
     ethr =  3.26E-05,  avg # of iterations = 19.2

     negative rho (up, down):  2.720E-05 0.000E+00

     total cpu time spent up to now is     5329.8 secs

     total energy              =  -35654.83981934 Ry
     estimated scf accuracy    <       0.46902665 Ry

     iteration #  6     ecut=    77.00 Ry     beta= 0.20
     Davidson diagonalization with overlap
     ethr =  2.69E-05,  avg # of iterations =  5.8

     negative rho (up, down):  5.463E-05 0.000E+00

     total cpu time spent up to now is     5759.5 secs

     total energy              =  -35654.81538553 Ry
     estimated scf accuracy    <       0.25165429 Ry

     iteration #  7     ecut=    77.00 Ry     beta= 0.20
     Davidson diagonalization with overlap
     c_bands:  1 eigenvalues not converged
     ethr =  1.44E-05,  avg # of iterations = 19.5

     negative rho (up, down):  2.621E-04 0.000E+00

     total cpu time spent up to now is     6361.0 secs

     total energy              =  -35654.80834858 Ry
     estimated scf accuracy    <       0.12845351 Ry

     iteration #  8     ecut=    77.00 Ry     beta= 0.20
     Davidson diagonalization with overlap
     c_bands:  5 eigenvalues not converged
     c_bands:  1 eigenvalues not converged
     c_bands:  1 eigenvalues not converged
     ethr =  7.36E-06,  avg # of iterations = 19.2

     negative rho (up, down):  2.769E-04 0.000E+00

     total cpu time spent up to now is     7345.6 secs

     total energy              =  -35654.89366622 Ry
     estimated scf accuracy    <       0.19841185 Ry

     iteration #  9     ecut=    77.00 Ry     beta= 0.20
     Davidson diagonalization with overlap
     c_bands:  1 eigenvalues not converged
     c_bands:  1 eigenvalues not converged
     ethr =  7.36E-06,  avg # of iterations = 14.0

     negative rho (up, down):  2.458E-04 0.000E+00

     total cpu time spent up to now is     7808.8 secs

     total energy              =  -35654.88715912 Ry
     estimated scf accuracy    <       0.04337187 Ry

     iteration # 10     ecut=    77.00 Ry     beta= 0.20
     Davidson diagonalization with overlap
     c_bands:  3 eigenvalues not converged
     c_bands:  2 eigenvalues not converged
     c_bands:  4 eigenvalues not converged
     ethr =  2.48E-06,  avg # of iterations = 85.5

     negative rho (up, down):  2.666E-04 0.000E+00

     total cpu time spent up to now is    10313.5 secs

     total energy              =  -35654.92692484 Ry
     estimated scf accuracy    <       0.00699830 Ry

     iteration # 11     ecut=    77.00 Ry     beta= 0.20
     Davidson diagonalization with overlap
     c_bands:  3 eigenvalues not converged
     c_bands:  1 eigenvalues not converged
     c_bands:  1 eigenvalues not converged
     ethr =  4.01E-07,  avg # of iterations = 28.2

     negative rho (up, down):  3.514E-04 0.000E+00

     total cpu time spent up to now is    11455.3 secs

     total energy              =  -35654.93015017 Ry
     estimated scf accuracy    <       0.01398543 Ry

     iteration # 12     ecut=    77.00 Ry     beta= 0.20
     Davidson diagonalization with overlap
     c_bands:  1 eigenvalues not converged
     ethr =  4.01E-07,  avg # of iterations = 10.8

     negative rho (up, down):  6.577E-04 0.000E+00

     total cpu time spent up to now is    11924.3 secs

     total energy              =  -35654.92918829 Ry
     estimated scf accuracy    <       0.00341568 Ry

     iteration # 13     ecut=    77.00 Ry     beta= 0.20
     Davidson diagonalization with overlap
     c_bands:  3 eigenvalues not converged
     ethr =  1.96E-07,  avg # of iterations = 12.2

     negative rho (up, down):  6.988E-04 0.000E+00

     total cpu time spent up to now is    13299.8 secs

     total energy              =  -35654.93727938 Ry
     estimated scf accuracy    <       0.01681581 Ry

     iteration # 14     ecut=    77.00 Ry     beta= 0.20
     Davidson diagonalization with overlap
     c_bands:  4 eigenvalues not converged
     ethr =  1.96E-07,  avg # of iterations =  5.8

     negative rho (up, down):  6.031E-04 0.000E+00

     total cpu time spent up to now is    13698.9 secs

     total energy              =  -35654.92944488 Ry
     estimated scf accuracy    <       0.01451968 Ry

     iteration # 15     ecut=    77.00 Ry     beta= 0.20
     Davidson diagonalization with overlap
     ethr =  1.96E-07,  avg # of iterations =  8.5

     negative rho (up, down):  7.288E-04 0.000E+00

     total cpu time spent up to now is    14458.5 secs

     total energy              =  -35654.93165959 Ry
     estimated scf accuracy    <       0.00068881 Ry

     iteration # 16     ecut=    77.00 Ry     beta= 0.20
     Davidson diagonalization with overlap
     c_bands:  5 eigenvalues not converged
     c_bands:  3 eigenvalues not converged
     ethr =  3.95E-08,  avg # of iterations = 18.0

     negative rho (up, down):  7.875E-04 0.000E+00

     total cpu time spent up to now is    15978.4 secs

     total energy              =  -35654.93221879 Ry
     estimated scf accuracy    <       0.00481989 Ry

     iteration # 17     ecut=    77.00 Ry     beta= 0.20
     Davidson diagonalization with overlap
     ethr =  3.95E-08,  avg # of iterations =  5.8

     negative rho (up, down):  8.169E-04 0.000E+00

     total cpu time spent up to now is    16649.2 secs

     total energy              =  -35654.93212777 Ry
     estimated scf accuracy    <       0.00102921 Ry

     iteration # 18     ecut=    77.00 Ry     beta= 0.20
     Davidson diagonalization with overlap
     ethr =  3.95E-08,  avg # of iterations =  7.0

     negative rho (up, down):  8.479E-04 0.000E+00

     total cpu time spent up to now is    17381.6 secs

     total energy              =  -35654.93247712 Ry
     estimated scf accuracy    <       0.00002970 Ry

     iteration # 19     ecut=    77.00 Ry     beta= 0.20
     Davidson diagonalization with overlap
     ethr =  1.70E-09,  avg # of iterations = 28.0

     negative rho (up, down):  8.503E-04 0.000E+00

     total cpu time spent up to now is    20728.9 secs

     total energy              =  -35654.93260565 Ry
     estimated scf accuracy    <       0.00022671 Ry

     iteration # 20     ecut=    77.00 Ry     beta= 0.20
     Davidson diagonalization with overlap
     ethr =  1.70E-09,  avg # of iterations = 10.0

     negative rho (up, down):  8.641E-04 0.000E+00

     total cpu time spent up to now is    21534.8 secs

     total energy              =  -35654.93263200 Ry
     estimated scf accuracy    <       0.00001107 Ry

     iteration # 21     ecut=    77.00 Ry     beta= 0.20
     Davidson diagonalization with overlap
     ethr =  6.34E-10,  avg # of iterations = 15.8

     negative rho (up, down):  8.756E-04 0.000E+00

     total cpu time spent up to now is    22578.1 secs

     total energy              =  -35654.93264657 Ry
     estimated scf accuracy    <       0.00002051 Ry

     iteration # 22     ecut=    77.00 Ry     beta= 0.20
     Davidson diagonalization with overlap
     ethr =  6.34E-10,  avg # of iterations =  5.0

     negative rho (up, down):  8.835E-04 0.000E+00

     total cpu time spent up to now is    23016.4 secs

     total energy              =  -35654.93263454 Ry
     estimated scf accuracy    <       0.00002413 Ry

     iteration # 23     ecut=    77.00 Ry     beta= 0.20
     Davidson diagonalization with overlap
     ethr =  6.34E-10,  avg # of iterations =  1.2

     negative rho (up, down):  8.886E-04 0.000E+00

     total cpu time spent up to now is    23399.9 secs

     total energy              =  -35654.93262703 Ry
     estimated scf accuracy    <       0.00000950 Ry

     iteration # 24     ecut=    77.00 Ry     beta= 0.20
     Davidson diagonalization with overlap
     ethr =  5.44E-10,  avg # of iterations =  9.0

     negative rho (up, down):  8.935E-04 0.000E+00

     total cpu time spent up to now is    24086.7 secs

     End of self-consistent calculation

          k = 0.0000 0.0000 0.0000 (386245 PWs)   bands (ev):

  -103.0100-102.9336 -88.2592 -71.3612 -71.3513 -71.3327 -71.3135 -71.2988
   -71.2796 -71.2784 -71.2733 -71.2694 -71.2481 -71.2265 -71.2146 -71.2010
   -71.1914 -66.6637 -66.6636 -66.6624 -66.6612 -66.6501 -66.6428 -66.6426
   -66.6425 -66.6424 -66.6424 -66.6424 -66.6424 -66.6424 -66.6424 -66.6424
   -66.6423 -66.6422 -66.6420 -66.6411 -66.6411 -66.6411 -66.6411 -66.6411
   -66.6411 -66.6359 -66.6355 -66.6244 -66.6213 -66.6212 -66.6211 -66.6210
   -66.6210 -66.6210 -66.6210 -66.6210 -66.6210 -66.6210 -66.6210 -66.6210
   -66.6210 -66.6209 -66.6209 -66.6208 -66.6207 -66.6205 -66.6197 -66.6197
   -66.6197 -66.6197 -66.6197 -66.6197 -66.6197 -66.6197 -66.6197 -66.6187
   -66.6118 -66.6094 -66.6036 -66.5937 -66.5902 -66.5864 -66.5834 -66.5751
   -66.5699 -57.3498 -57.2660 -57.1682 -57.1538 -57.1016 -57.0642 -54.1128
   -54.0806 -53.9870 -40.9911 -40.9911 -40.9911 -40.9911 -40.9910 -40.9909
   -40.9905 -40.9905 -40.9905 -40.9805 -40.9742 -40.9709 -40.9159 -40.9158
   -40.9158 -40.9158 -40.9158 -40.9158 -40.9158 -40.9158 -40.9157 -40.9157
   -40.9156 -40.9155 -40.9151 -40.9151 -40.9151 -40.9151 -40.9151 -40.9151
   -40.9124 -40.9055 -40.8956 -40.8909 -40.8816 -40.8694 -40.8374 -40.8233
   -40.8233 -40.8227 -40.8088 -40.8070 -40.7973 -40.7896 -40.7895 -40.7894
   -40.7894 -40.7894 -40.7894 -40.7894 -40.7894 -40.7894 -40.7893 -40.7893
   -40.7891 -40.7890 -40.7887 -40.7887 -40.7887 -40.7887 -40.7887 -40.7886
   -40.7880 -40.7821 -40.7819 -40.7817 -40.7816 -40.7816 -40.7816 -40.7816
   -40.7816 -40.7816 -40.7816 -40.7815 -40.7814 -40.7813 -40.7810 -40.7810
   -40.7810 -40.7810 -40.7810 -40.7810 -40.7775 -40.7738 -40.7705 -40.7625
   -40.7608 -40.7571 -40.7548 -40.7545 -40.7544 -40.7544 -40.7544 -40.7544
   -40.7544 -40.7544 -40.7544 -40.7544 -40.7543 -40.7542 -40.7541 -40.7536
   -40.7536 -40.7536 -40.7536 -40.7536 -40.7536 -40.7503 -40.7490 -40.7447
   -40.7421 -40.7404 -40.7401 -40.7399 -40.7399 -40.7397 -40.7397 -40.7397
   -40.7396 -40.7396 -40.7396 -40.7396 -40.7396 -40.7396 -40.7396 -40.7396
   -40.7396 -40.7396 -40.7395 -40.7393 -40.7391 -40.7390 -40.7390 -40.7390
   -40.7390 -40.7390 -40.7390 -40.7389 -40.7389 -40.7389 -40.7376 -40.7313
   -40.7296 -40.7243 -40.7197 -40.7125 -40.7105 -40.7018 -40.6761 -40.6761
   -40.6761 -40.6761 -40.6760 -40.6759 -40.6752 -40.6752 -40.6752 -40.6636
   -40.6476 -40.6463 -40.6291 -40.6290 -40.6290 -40.6290 -40.6290 -40.6289
   -40.6289 -40.6289 -40.6289 -40.6288 -40.6288 -40.6286 -40.6280 -40.6280
   -40.6280 -40.6280 -40.6280 -40.6280 -40.6119 -40.6093 -40.5994 -40.5973
   -40.5928 -40.5864 -40.5813 -40.5813 -40.5813 -40.5813 -40.5804 -40.5803
   -40.5516 -40.5351 -20.3663 -20.1457 -20.0473 -19.9370 -19.8532 -19.5742
   -19.3869 -19.3198 -19.2991 -19.2915 -19.2779 -19.2765 -19.2722 -19.2627
   -19.2502 -19.2372 -19.1927 -19.1891 -19.1816 -19.1734 -19.1651 -19.1548
   -19.0874 -19.0847 -19.0801 -19.0773 -19.0745 -19.0709 -18.9681 -18.8831
   -18.8458 -18.7413 -18.6684 -18.6122 -18.5931 -18.5737 -18.5404 -18.5307
   -18.5065 -18.4924 -18.4636 -18.4599 -18.4545 -18.4367 -18.4156 -18.3934
   -18.3337 -18.3289 -18.3230 -18.3226 -18.3113 -18.2910 -18.2526 -18.2351
   -18.2265 -18.2236 -18.2218 -18.2146 -18.2084 -18.1996 -18.1735 -18.1616
   -18.1602 -18.1596 -18.1589 -18.1575 -18.1548 -18.1326 -18.1300 -18.1265
   -18.1222 -18.1176 -18.1168 -18.1155 -18.1148 -18.1138 -18.0939 -18.0923
   -18.0910 -18.0876 -18.0790 -18.0754 -18.0713 -18.0599 -18.0598 -18.0502
   -18.0466 -18.0454 -18.0427 -18.0334 -18.0310 -18.0273 -17.9971 -17.9946
   -17.9897 -17.9841 -17.9800 -17.9670 -17.9624 -17.9604 -17.9576 -17.9374
   -17.9348 -17.9327 -17.9234 -17.9225 -17.9147 -17.9133 -17.9083 -17.9065
   -17.9002 -17.8985 -17.8962 -17.8808 -17.8804 -17.8799 -17.8711 -17.8704
   -17.8673 -17.8649 -17.8612 -17.8610 -17.8371 -17.8369 -17.8361 -17.8353
   -17.8341 -17.8339 -12.4342 -12.3389 -12.0983 -12.0236 -11.9474 -11.8427
   -11.8407 -11.8347 -11.7373 -11.7313 -11.7151 -11.6947 -11.6215 -11.6068
   -11.6009 -11.5895 -11.5471 -11.4933 -11.4552 -11.3929 -11.3324 -11.2943
   -11.2826 -11.2771 -11.2744 -11.2596 -11.2468 -11.2167 -11.2105 -11.1729
   -11.1708 -11.1699 -11.1675 -11.1638 -11.1592 -11.1370 -11.1222 -11.1163
   -11.1046 -11.1027 -11.1014 -11.0967 -11.0908 -11.0856 -11.0706 -11.0680
   -11.0514 -11.0273 -11.0174 -11.0082 -10.9964 -10.9881 -10.9834 -10.9701
   -10.9606 -10.9436 -10.9401 -10.9331 -10.9309 -10.9232 -10.9148 -10.9040
   -10.8944 -10.8879 -10.8839 -10.8799 -10.8753 -10.8733 -10.8710 -10.8682
   -10.8667 -10.8641 -10.8561 -10.8537 -10.8508 -10.8459 -10.8268 -10.8223
   -10.8203 -10.8193 -10.8164 -10.8133 -10.8111 -10.8086 -10.8014 -10.7788
   -10.7777 -10.7773 -10.7769 -10.7760 -10.7744 -10.7433 -10.7105 -10.7032
   -10.6841 -10.6679 -10.6553 -10.6357 -10.6304 -10.6255 -10.6194 -10.5648
   -10.4887 -10.3871 -10.2828 -10.2151 -10.2010 -10.1220 -10.1172 -10.0396
   -10.0001  -9.9821  -9.9317  -9.8864  -9.8810  -9.8647  -9.8508  -9.8442
    -9.8339  -9.8209  -9.8190  -9.8139  -9.8132  -9.8106  -9.8055  -9.8051
    -9.7974  -9.7929  -9.7908  -9.7898  -9.7848  -9.7761  -9.7661  -9.7442
    -9.7402  -9.7355  -9.6905  -9.6777  -9.6733  -9.6718  -9.6652  -9.6619
    -9.6613  -9.6576  -9.6570  -9.6567  -9.6560  -9.6525  -9.6264  -9.6177
    -9.6108  -9.5903  -9.5837  -9.5811  -9.5810  -9.5808  -9.5806  -9.5803
    -9.5798  -9.5695  -9.5634  -9.5511  -9.5506  -9.5356  -9.5220  -9.5167
    -9.4989  -9.4417  -9.4197  -9.4139  -9.4091  -9.4036  -9.4001  -9.3976
    -9.3877  -9.3771  -9.3741  -9.3665  -9.3559  -9.3355  -9.3120  -9.3094
    -9.2878  -9.2827  -9.2799  -9.2580  -9.2540  -9.2389  -9.2245  -9.2232
    -9.2221  -9.2195  -9.2177  -9.2138  -9.1898  -9.1850  -9.1587  -9.1530
    -9.1487  -9.1184  -9.0821  -9.0508  -9.0380  -9.0287  -9.0221  -9.0192
    -9.0184  -9.0029  -8.9881  -8.9872  -8.9825  -8.9576  -8.9571  -8.9569
    -8.9564  -8.9512  -8.9466  -8.9403  -8.9374  -8.9284  -8.8945  -8.8616
    -8.8613  -8.8607  -8.8604  -8.8602  -8.8598  -8.8152  -8.8075  -8.7944
    -8.7934  -8.7832  -8.7788  -8.7349  -8.7216  -8.7125  -8.7084  -8.7009
    -8.6976  -8.6807  -8.6528  -8.6344  -8.6329  -8.6308  -8.6303  -8.6292
    -8.6199  -8.5749  -8.5170  -8.4919  -8.4515  -8.4129  -8.4059  -8.4059
    -8.4012  -8.4008  -8.3963  -8.3945  -8.3933  -8.3853  -8.3291  -8.3188
    -8.3153  -8.3151  -8.3150  -8.3146  -8.3113  -8.3060  -8.2890  -8.2884
    -8.2883  -8.2873  -8.2849  -8.2836  -8.2610  -8.2603  -8.2602  -8.2597
    -8.2590  -8.2588  -8.2255  -8.1055  -8.0812  -8.0464  -7.9448  -7.9270
    -7.9010  -7.8950  -7.8849  -7.8767  -7.8198  -7.8105  -7.7960  -7.7766
    -7.7494  -7.7108  -7.7053  -7.6898  -7.6833  -7.6781  -7.6715  -7.6604
    -7.6476  -7.6441  -7.6356  -7.6331  -7.6213  -7.6074  -7.5992  -7.5839
    -7.5744  -7.5741  -7.5738  -7.5735  -7.5725  -7.5676  -7.5618  -7.5493
    -7.5473  -7.5472  -7.5462  -7.5454  -7.5413  -7.5286  -7.5233  -7.5221
    -7.5217  -7.5213  -7.5211  -7.5197  -7.5133  -7.5005  -7.4951  -7.4850
    -7.4812  -7.4757  -7.4655  -7.4626  -7.4441  -7.4380  -7.4189  -7.4044
    -7.4014  -7.3957  -7.3945  -7.3662  -7.3626  -7.3492  -7.3443  -7.3414
    -7.3399  -7.3338  -7.3274  -7.3245  -7.3007  -7.2899  -7.2892  -7.2715
    -7.2711  -7.2693  -7.2531  -7.2529  -7.2259  -7.2148  -7.1825  -7.1701
    -7.1563  -7.1498  -7.1277  -7.0836  -7.0027  -7.0004  -6.9420  -6.9319
    -6.9274  -6.9059  -6.9012  -6.8647  -6.8204  -6.8193  -6.8183  -6.7808
    -6.7778  -6.7681  -6.7420  -6.7375  -6.7333  -6.7242  -6.7123  -6.6836
    -6.6649  -6.6622  -6.6610  -6.6596  -6.6369  -6.6299  -6.6207  -6.6104
    -6.6060  -6.5965  -6.5911  -6.5883  -6.5682  -6.5592  -6.5542  -6.5537
    -6.5518  -6.5507  -6.5486  -6.5462  -6.5432  -6.5391  -6.5371  -6.5367
    -6.5366  -6.5364  -6.5362  -6.5356  -6.5256  -6.5046  -6.4926  -6.4835
    -6.4804  -6.4538  -6.4492  -6.4489  -6.4354  -6.4217  -6.4034  -6.3979
    -6.3783  -6.3726  -6.3700  -6.3690  -6.3679  -6.3656  -6.3577  -6.3368
    -6.3300  -6.3287  -6.3278  -6.3254  -6.3229  -6.3001  -6.2959  -6.2920
    -6.2917  -6.2911  -6.2904  -6.2852  -6.2764  -6.1265  -6.0397  -6.0270
    -5.9201  -5.6990  -5.6620  -5.5965  -5.4836  -5.4549  -5.3236  -5.3039
    -5.1834  -4.3235  -4.1134  -3.9523  -3.8936  -3.8881  -3.8855  -3.8772
    -3.8717  -3.8688  -3.8668  -3.8644  -3.8620  -3.8435  -3.8341  -3.8012
    -3.7482  -3.7448  -3.7323  -3.7311  -3.7243  -3.7184  -3.7162  -3.7151
    -3.7121  -3.6239  -3.6123  -3.5876  -3.5605  -3.5549  -3.5488  -3.5431
    -3.5361  -3.5267  -3.5171  -3.5113  -3.5098  -3.5094  -3.5056  -3.5019
    -3.4982  -3.4932  -3.4859  -3.4817  -3.4812  -3.4806  -3.4769  -3.4720
    -3.4658  -3.4648  -3.4609  -3.4531  -3.4488  -3.4467  -3.4466  -3.4424
    -3.4395  -3.4370  -3.4259  -3.4236  -3.4202  -3.4017  -3.3976  -3.3944
    -3.3904  -3.3850  -3.3842  -3.3837  -3.3795  -3.3753  -3.3572  -3.3453
    -3.3404  -3.3361  -3.3286  -3.3270  -3.3214  -3.3158  -3.3106  -3.2874
    -3.2670  -3.2535  -3.2398  -3.2295  -3.2229  -3.1523  -3.1412  -3.1128
    -3.1055  -3.1038  -3.0977  -3.0953  -3.0887  -3.0865  -3.0837  -3.0768
    -3.0484  -3.0382  -3.0312  -3.0233  -3.0187  -3.0137  -3.0124  -3.0100
    -3.0085  -3.0058  -3.0014  -3.0010  -2.9968  -2.9943  -2.9916  -2.9908
    -2.9869  -2.9792  -2.9778  -2.9729  -2.9720  -2.9711  -2.9671  -2.9656
    -2.9645  -2.9641  -2.9597  -2.9463  -2.9377  -2.9311  -2.9232  -2.9201
    -2.9149  -2.9119  -2.9017  -2.8888  -2.8464  -2.8451  -2.8447  -2.8446
    -2.8445  -2.8430  -2.8420  -2.8417  -2.8412  -2.8269  -2.8244  -2.8189
    -2.8167  -2.7914  -2.7745  -2.7716  -2.7639  -2.7545  -2.7523  -2.7073
    -2.6990  -2.6782  -2.6768  -2.6738  -2.6659  -2.6621  -2.6612  -2.6551
    -2.6550  -2.6332  -2.6128  -2.5990  -2.5821  -2.5799  -2.5728  -2.5099
    -2.5036  -2.4995  -2.4650  -2.4589  -2.4527  -2.4468  -2.4457  -2.4422

          k = 0.0000-0.5773 0.0000 (386352 PWs)   bands (ev):

  -103.0100-102.9336 -88.2592 -71.3612 -71.3513 -71.3327 -71.3135 -71.2988
   -71.2796 -71.2784 -71.2733 -71.2694 -71.2481 -71.2265 -71.2146 -71.2010
   -71.1914 -66.6606 -66.6575 -66.6575 -66.6574 -66.6574 -66.6562 -66.6562
   -66.6503 -66.6468 -66.6468 -66.6468 -66.6467 -66.6455 -66.6455 -66.6436
   -66.6365 -66.6353 -66.6319 -66.6318 -66.6317 -66.6317 -66.6317 -66.6317
   -66.6315 -66.6314 -66.6304 -66.6304 -66.6304 -66.6304 -66.6273 -66.6272
   -66.6272 -66.6272 -66.6260 -66.6260 -66.6240 -66.6212 -66.6211 -66.6210
   -66.6210 -66.6210 -66.6210 -66.6208 -66.6206 -66.6197 -66.6197 -66.6197
   -66.6197 -66.6187 -66.6165 -66.6165 -66.6165 -66.6165 -66.6152 -66.6152
   -66.6110 -66.6096 -66.6026 -66.5947 -66.5907 -66.5864 -66.5832 -66.5751
   -66.5698 -57.3498 -57.2660 -57.1682 -57.1538 -57.1016 -57.0642 -54.1128
   -54.0806 -53.9870 -40.9681 -40.9596 -40.9595 -40.9595 -40.9595 -40.9595
   -40.9594 -40.9593 -40.9592 -40.9589 -40.9589 -40.9589 -40.9588 -40.9535
   -40.9334 -40.9327 -40.9327 -40.9327 -40.9325 -40.9320 -40.9320 -40.9294
   -40.9206 -40.9206 -40.9205 -40.9205 -40.9200 -40.9200 -40.9137 -40.9007
   -40.8964 -40.8891 -40.8699 -40.8699 -40.8699 -40.8699 -40.8699 -40.8699
   -40.8698 -40.8698 -40.8692 -40.8692 -40.8692 -40.8692 -40.8600 -40.8488
   -40.8428 -40.8371 -40.8264 -40.8200 -40.8112 -40.8111 -40.8111 -40.8110
   -40.8105 -40.8105 -40.8016 -40.8016 -40.8016 -40.8015 -40.8011 -40.8008
   -40.8008 -40.8005 -40.7903 -40.7903 -40.7902 -40.7902 -40.7896 -40.7896
   -40.7869 -40.7828 -40.7792 -40.7715 -40.7621 -40.7608 -40.7608 -40.7606
   -40.7606 -40.7606 -40.7606 -40.7606 -40.7605 -40.7604 -40.7600 -40.7600
   -40.7600 -40.7600 -40.7540 -40.7521 -40.7520 -40.7519 -40.7519 -40.7518
   -40.7513 -40.7512 -40.7477 -40.7412 -40.7401 -40.7401 -40.7401 -40.7401
   -40.7398 -40.7397 -40.7396 -40.7396 -40.7396 -40.7396 -40.7396 -40.7393
   -40.7393 -40.7392 -40.7389 -40.7389 -40.7389 -40.7389 -40.7385 -40.7311
   -40.7309 -40.7309 -40.7309 -40.7309 -40.7302 -40.7302 -40.7245 -40.7211
   -40.7114 -40.7107 -40.7094 -40.7092 -40.7092 -40.7092 -40.7092 -40.7091
   -40.7091 -40.7090 -40.7083 -40.7083 -40.7083 -40.7083 -40.7014 -40.6975
   -40.6745 -40.6745 -40.6745 -40.6745 -40.6744 -40.6744 -40.6744 -40.6743
   -40.6736 -40.6736 -40.6736 -40.6735 -40.6729 -40.6657 -40.6623 -40.6623
   -40.6623 -40.6622 -40.6614 -40.6614 -40.6600 -40.6555 -40.6438 -40.6431
   -40.6430 -40.6430 -40.6428 -40.6421 -40.6421 -40.6418 -40.6321 -40.6260
   -40.6260 -40.6260 -40.6259 -40.6251 -40.6251 -40.6240 -40.6210 -40.6066
   -40.5988 -40.5953 -40.5953 -40.5953 -40.5952 -40.5944 -40.5944 -40.5916
   -40.5756 -40.5380 -20.2899 -19.9894 -19.9103 -19.9009 -19.8165 -19.8018
   -19.7076 -19.6958 -19.6286 -19.5724 -19.4740 -19.4681 -19.3922 -19.3750
   -19.3180 -19.2709 -19.2600 -19.0470 -18.9009 -18.8800 -18.8327 -18.8124
   -18.7632 -18.7628 -18.7591 -18.7580 -18.7387 -18.7197 -18.6946 -18.6924
   -18.6869 -18.6845 -18.6524 -18.6321 -18.6264 -18.5966 -18.5935 -18.5918
   -18.5889 -18.5791 -18.5539 -18.5373 -18.5355 -18.5195 -18.5091 -18.4874
   -18.4693 -18.4512 -18.4499 -18.4415 -18.4367 -18.4253 -18.3969 -18.3735
   -18.3675 -18.3614 -18.3254 -18.3045 -18.2880 -18.2775 -18.2560 -18.2478
   -18.2210 -18.2173 -18.2082 -18.1860 -18.1774 -18.1635 -18.1445 -18.1412
   -18.1376 -18.1370 -18.1308 -18.1156 -18.1146 -18.1139 -18.1104 -18.1065
   -18.1020 -18.0997 -18.0967 -18.0878 -18.0806 -18.0767 -18.0510 -18.0487
   -18.0446 -18.0426 -18.0404 -18.0385 -18.0381 -18.0347 -18.0269 -18.0199
   -17.9944 -17.9884 -17.9798 -17.9756 -17.9711 -17.9683 -17.9475 -17.9341
   -17.9270 -17.9208 -17.9157 -17.8944 -17.8866 -17.8820 -17.8806 -17.8787
   -17.8586 -17.8580 -17.8572 -17.8567 -17.8565 -17.8561 -17.8445 -17.8421
   -17.8256 -17.8212 -17.8007 -17.7972 -17.7815 -17.7773 -17.7661 -17.7637
   -17.7580 -17.7577 -12.3803 -12.2790 -11.9417 -11.8765 -11.7702 -11.7219
   -11.6717 -11.6376 -11.5733 -11.5687 -11.5465 -11.5407 -11.5333 -11.5209
   -11.5123 -11.5024 -11.4705 -11.4520 -11.4379 -11.4300 -11.4144 -11.4040
   -11.3853 -11.3814 -11.3650 -11.3502 -11.3405 -11.3284 -11.3181 -11.3085
   -11.3022 -11.3002 -11.2945 -11.2925 -11.2763 -11.2522 -11.2444 -11.2394
   -11.2373 -11.2212 -11.2159 -11.2080 -11.2025 -11.1880 -11.1856 -11.1836
   -11.1768 -11.1624 -11.1449 -11.1298 -11.1212 -11.1069 -11.0699 -11.0432
   -11.0352 -11.0033 -10.9981 -10.9871 -10.9584 -10.9504 -10.9442 -10.9357
   -10.9212 -10.8958 -10.8807 -10.8760 -10.8730 -10.8680 -10.8600 -10.8510
   -10.8502 -10.8492 -10.8482 -10.8457 -10.8415 -10.8388 -10.8318 -10.8309
   -10.8298 -10.8229 -10.8211 -10.8193 -10.8167 -10.7825 -10.7819 -10.7814
   -10.7808 -10.7185 -10.6484 -10.6252 -10.5847 -10.5778 -10.5672 -10.5448
   -10.5098 -10.4632 -10.4539 -10.4015 -10.3352 -10.3050 -10.2971 -10.2598
   -10.2220 -10.1928 -10.1691 -10.1613 -10.1600 -10.1472 -10.1280 -10.1136
   -10.1023 -10.0905 -10.0832 -10.0737 -10.0678 -10.0659 -10.0561 -10.0510
   -10.0189 -10.0012  -9.9876  -9.9766  -9.9616  -9.9579  -9.9512  -9.9374
    -9.9323  -9.9294  -9.9172  -9.8925  -9.8851  -9.8737  -9.8500  -9.8465
    -9.8265  -9.8233  -9.8164  -9.7888  -9.7831  -9.7650  -9.7550  -9.7451
    -9.7316  -9.7063  -9.6995  -9.6739  -9.6620  -9.6579  -9.6446  -9.6284
    -9.6174  -9.6091  -9.5977  -9.5938  -9.5855  -9.5725  -9.5388  -9.5333
    -9.5301  -9.5286  -9.5190  -9.5088  -9.5046  -9.5015  -9.4977  -9.4934
    -9.4789  -9.4718  -9.4529  -9.4369  -9.4257  -9.4008  -9.3875  -9.3738
    -9.3473  -9.2881  -9.2843  -9.2640  -9.2590  -9.2538  -9.2397  -9.2331
    -9.2204  -9.2098  -9.1967  -9.1852  -9.1778  -9.1739  -9.1498  -9.1383
    -9.1104  -9.1033  -9.0983  -9.0949  -9.0857  -9.0789  -9.0709  -9.0543
    -9.0361  -9.0095  -9.0056  -9.0000  -8.9954  -8.9908  -8.9812  -8.9652
    -8.9589  -8.9490  -8.9333  -8.9321  -8.9282  -8.9260  -8.9247  -8.9243
    -8.9233  -8.9100  -8.9077  -8.9066  -8.8996  -8.8962  -8.8917  -8.8850
    -8.8787  -8.8779  -8.8752  -8.8647  -8.8362  -8.8335  -8.8322  -8.8306
    -8.8267  -8.8217  -8.8092  -8.8021  -8.8007  -8.7820  -8.7762  -8.7716
    -8.7708  -8.7650  -8.7587  -8.7369  -8.7133  -8.6962  -8.6919  -8.6720
    -8.6322  -8.5762  -8.5437  -8.5414  -8.5258  -8.4863  -8.4815  -8.4391
    -8.4126  -8.3987  -8.3822  -8.3698  -8.3165  -8.2517  -8.2436  -8.2176
    -8.1926  -8.1660  -8.1657  -8.1569  -8.1562  -8.1456  -8.1451  -8.1232
    -8.1120  -8.0805  -8.0722  -8.0287  -8.0070  -8.0042  -7.9865  -7.9162
    -7.9116  -7.8859  -7.8815  -7.8756  -7.8692  -7.8655  -7.8562  -7.8514
    -7.8486  -7.8424  -7.8400  -7.8380  -7.8344  -7.8313  -7.8278  -7.8203
    -7.8201  -7.8112  -7.8101  -7.8069  -7.8058  -7.8051  -7.8033  -7.8030
    -7.8013  -7.7964  -7.7961  -7.7884  -7.7826  -7.7744  -7.7719  -7.7658
    -7.7644  -7.7564  -7.7372  -7.7350  -7.7348  -7.7340  -7.7227  -7.7051
    -7.7048  -7.7037  -7.7027  -7.6933  -7.6860  -7.6777  -7.6625  -7.6505
    -7.6470  -7.6463  -7.6457  -7.6377  -7.6353  -7.6243  -7.6236  -7.6142
    -7.6057  -7.6024  -7.6020  -7.5965  -7.5869  -7.5768  -7.5514  -7.5175
    -7.5016  -7.4964  -7.4931  -7.4885  -7.4740  -7.4499  -7.3753  -7.3264
    -7.2992  -7.2470  -7.2159  -7.2074  -7.2068  -7.2055  -7.1986  -7.1617
    -7.1552  -7.1513  -7.1459  -7.1276  -7.1188  -7.1069  -7.0792  -7.0715
    -7.0687  -7.0637  -7.0499  -7.0380  -7.0355  -7.0143  -7.0105  -6.9825
    -6.9639  -6.9532  -6.9473  -6.9245  -6.9209  -6.9059  -6.8997  -6.8977
    -6.8958  -6.8686  -6.8374  -6.8252  -6.8051  -6.8005  -6.7802  -6.7667
    -6.7347  -6.7222  -6.7111  -6.6831  -6.6782  -6.6585  -6.6559  -6.6450
    -6.6432  -6.6427  -6.6425  -6.6281  -6.6259  -6.6258  -6.6251  -6.6212
    -6.6176  -6.6172  -6.6170  -6.6168  -6.6079  -6.5865  -6.5559  -6.5285
    -6.5103  -6.4659  -6.4620  -6.3964  -6.3876  -6.3830  -6.3673  -6.3568
    -6.3548  -6.3547  -6.3515  -6.3250  -6.3184  -6.3148  -6.3127  -6.3107
    -6.3095  -6.2991  -6.2933  -6.2904  -6.2743  -6.2607  -6.2494  -6.2429
    -6.2397  -6.2381  -6.2228  -6.1936  -6.1067  -6.0291  -6.0276  -6.0017
    -5.9662  -5.9645  -5.9052  -5.9015  -5.8943  -5.8614  -5.8444  -5.7859
    -5.7361  -5.7222  -5.6571  -5.6385  -5.6026  -5.5668  -5.4676  -5.3400
    -5.2902  -4.3066  -4.2095  -4.1402  -4.1237  -4.0967  -4.0744  -3.9865
    -3.9682  -3.9614  -3.9482  -3.9056  -3.8895  -3.8787  -3.8765  -3.8657
    -3.8616  -3.8501  -3.8479  -3.8363  -3.8359  -3.8033  -3.7737  -3.7569
    -3.7238  -3.6788  -3.6703  -3.6527  -3.6437  -3.6377  -3.6370  -3.6186
    -3.5974  -3.5899  -3.5857  -3.5773  -3.5682  -3.5638  -3.5522  -3.5452
    -3.5397  -3.5307  -3.5247  -3.5199  -3.5138  -3.5123  -3.5032  -3.4908
    -3.4881  -3.4861  -3.4816  -3.4722  -3.4681  -3.4623  -3.4485  -3.4411
    -3.4197  -3.4012  -3.3923  -3.3876  -3.3845  -3.3801  -3.3750  -3.3716
    -3.3642  -3.3547  -3.3412  -3.3286  -3.3232  -3.3153  -3.3141  -3.3133
    -3.3111  -3.3097  -3.3011  -3.2877  -3.2798  -3.2754  -3.2731  -3.2597
    -3.2588  -3.2498  -3.2476  -3.2459  -3.2430  -3.2298  -3.2255  -3.2220
    -3.2168  -3.2099  -3.2006  -3.1982  -3.1982  -3.1946  -3.1678  -3.1543
    -3.1392  -3.1343  -3.1262  -3.1196  -3.1076  -3.1033  -3.0942  -3.0724
    -3.0636  -3.0628  -3.0585  -3.0575  -3.0571  -3.0544  -3.0526  -3.0494
    -3.0426  -3.0396  -3.0375  -3.0353  -3.0265  -3.0191  -3.0174  -3.0156
    -3.0127  -3.0096  -3.0052  -3.0024  -2.9975  -2.9877  -2.9823  -2.9822
    -2.9761  -2.9728  -2.9681  -2.9593  -2.9488  -2.9452  -2.9334  -2.9236
    -2.9193  -2.9148  -2.9120  -2.9059  -2.8824  -2.8386  -2.8292  -2.8234
    -2.8160  -2.7886  -2.7651  -2.7641  -2.7583  -2.6680  -2.6504  -2.6407
    -2.6310  -2.6182  -2.5952  -2.5926  -2.5848  -2.5816  -2.5704  -2.5654
    -2.5632  -2.5591  -2.5540  -2.5261  -2.5131  -2.4750  -2.4449  -2.4360
    -2.4309  -2.4248  -2.4225  -2.4214  -2.4142  -2.3933  -2.3781  -2.3775

          k =-0.5000-0.2887 0.0000 (386352 PWs)   bands (ev):

  -103.0100-102.9336 -88.2592 -71.3612 -71.3513 -71.3327 -71.3135 -71.2988
   -71.2796 -71.2784 -71.2733 -71.2694 -71.2481 -71.2265 -71.2146 -71.2010
   -71.1914 -66.6590 -66.6575 -66.6575 -66.6574 -66.6573 -66.6562 -66.6562
   -66.6543 -66.6468 -66.6468 -66.6468 -66.6467 -66.6455 -66.6455 -66.6411
   -66.6366 -66.6336 -66.6317 -66.6317 -66.6317 -66.6317 -66.6317 -66.6317
   -66.6317 -66.6315 -66.6304 -66.6304 -66.6304 -66.6304 -66.6273 -66.6273
   -66.6272 -66.6271 -66.6260 -66.6260 -66.6260 -66.6210 -66.6210 -66.6210
   -66.6210 -66.6210 -66.6210 -66.6210 -66.6207 -66.6197 -66.6197 -66.6197
   -66.6197 -66.6180 -66.6165 -66.6165 -66.6165 -66.6164 -66.6152 -66.6152
   -66.6113 -66.6100 -66.6032 -66.5940 -66.5900 -66.5860 -66.5840 -66.5752
   -66.5698 -57.3498 -57.2660 -57.1682 -57.1538 -57.1016 -57.0642 -54.1128
   -54.0806 -53.9870 -40.9595 -40.9595 -40.9595 -40.9595 -40.9595 -40.9595
   -40.9594 -40.9593 -40.9589 -40.9589 -40.9589 -40.9589 -40.9508 -40.9466
   -40.9454 -40.9353 -40.9327 -40.9327 -40.9327 -40.9325 -40.9320 -40.9320
   -40.9307 -40.9213 -40.9206 -40.9206 -40.9205 -40.9205 -40.9200 -40.9200
   -40.8931 -40.8719 -40.8699 -40.8699 -40.8699 -40.8699 -40.8699 -40.8698
   -40.8698 -40.8698 -40.8692 -40.8692 -40.8692 -40.8692 -40.8509 -40.8425
   -40.8395 -40.8333 -40.8275 -40.8151 -40.8112 -40.8111 -40.8111 -40.8110
   -40.8105 -40.8105 -40.8085 -40.8016 -40.8016 -40.8016 -40.8015 -40.8008
   -40.8008 -40.8001 -40.7903 -40.7903 -40.7902 -40.7902 -40.7896 -40.7896
   -40.7857 -40.7776 -40.7754 -40.7715 -40.7683 -40.7671 -40.7607 -40.7607
   -40.7606 -40.7606 -40.7606 -40.7606 -40.7606 -40.7606 -40.7600 -40.7600
   -40.7600 -40.7600 -40.7585 -40.7520 -40.7519 -40.7519 -40.7518 -40.7512
   -40.7512 -40.7485 -40.7477 -40.7419 -40.7401 -40.7401 -40.7401 -40.7400
   -40.7397 -40.7397 -40.7396 -40.7396 -40.7396 -40.7396 -40.7396 -40.7393
   -40.7393 -40.7393 -40.7389 -40.7389 -40.7389 -40.7389 -40.7343 -40.7331
   -40.7309 -40.7309 -40.7309 -40.7309 -40.7302 -40.7302 -40.7251 -40.7219
   -40.7158 -40.7113 -40.7092 -40.7092 -40.7092 -40.7092 -40.7092 -40.7092
   -40.7091 -40.7090 -40.7083 -40.7083 -40.7083 -40.7083 -40.6947 -40.6924
   -40.6895 -40.6781 -40.6745 -40.6745 -40.6745 -40.6744 -40.6744 -40.6744
   -40.6743 -40.6743 -40.6736 -40.6736 -40.6736 -40.6736 -40.6623 -40.6623
   -40.6623 -40.6622 -40.6614 -40.6614 -40.6549 -40.6498 -40.6465 -40.6449
   -40.6430 -40.6430 -40.6430 -40.6429 -40.6421 -40.6421 -40.6347 -40.6260
   -40.6260 -40.6260 -40.6259 -40.6251 -40.6251 -40.6247 -40.6212 -40.6084
   -40.5953 -40.5953 -40.5953 -40.5952 -40.5944 -40.5944 -40.5851 -40.5774
   -40.5670 -40.5568 -20.2882 -19.9931 -19.9105 -19.9013 -19.8170 -19.8019
   -19.7086 -19.6957 -19.6413 -19.5567 -19.4742 -19.4670 -19.3912 -19.3739
   -19.3048 -19.2704 -19.2519 -19.0849 -18.9239 -18.8505 -18.8220 -18.7916
   -18.7649 -18.7634 -18.7593 -18.7535 -18.7479 -18.7228 -18.7053 -18.6910
   -18.6868 -18.6846 -18.6509 -18.6501 -18.6402 -18.5988 -18.5953 -18.5911
   -18.5859 -18.5727 -18.5596 -18.5428 -18.5358 -18.5206 -18.5103 -18.4940
   -18.4536 -18.4493 -18.4466 -18.4417 -18.4307 -18.4114 -18.3790 -18.3781
   -18.3671 -18.3561 -18.3039 -18.3008 -18.2923 -18.2891 -18.2542 -18.2538
   -18.2263 -18.2237 -18.2021 -18.1942 -18.1706 -18.1599 -18.1497 -18.1422
   -18.1375 -18.1373 -18.1349 -18.1285 -18.1139 -18.1118 -18.1063 -18.1052
   -18.1040 -18.1000 -18.0956 -18.0883 -18.0854 -18.0816 -18.0514 -18.0496
   -18.0461 -18.0445 -18.0405 -18.0396 -18.0358 -18.0348 -18.0296 -18.0202
   -17.9960 -17.9898 -17.9781 -17.9768 -17.9743 -17.9701 -17.9384 -17.9327
   -17.9259 -17.9248 -17.9090 -17.8946 -17.8853 -17.8837 -17.8790 -17.8743
   -17.8582 -17.8577 -17.8576 -17.8572 -17.8564 -17.8557 -17.8439 -17.8427
   -17.8248 -17.8222 -17.8003 -17.7978 -17.7811 -17.7777 -17.7660 -17.7637
   -17.7580 -17.7576 -12.3878 -12.2372 -11.9315 -11.9111 -11.7785 -11.7326
   -11.7204 -11.6385 -11.6092 -11.5512 -11.5433 -11.5382 -11.5345 -11.5300
   -11.5097 -11.4887 -11.4645 -11.4519 -11.4341 -11.4285 -11.4166 -11.4098
   -11.3904 -11.3740 -11.3675 -11.3484 -11.3265 -11.3226 -11.3129 -11.3099
   -11.3020 -11.2947 -11.2932 -11.2907 -11.2677 -11.2488 -11.2446 -11.2380
   -11.2262 -11.2188 -11.2131 -11.2119 -11.2001 -11.1892 -11.1858 -11.1802
   -11.1713 -11.1546 -11.1447 -11.1286 -11.1149 -11.1004 -11.0794 -11.0515
   -11.0202 -11.0009 -10.9899 -10.9830 -10.9692 -10.9672 -10.9499 -10.9440
   -10.9228 -10.8898 -10.8829 -10.8758 -10.8732 -10.8624 -10.8567 -10.8520
   -10.8504 -10.8493 -10.8488 -10.8481 -10.8455 -10.8378 -10.8316 -10.8310
   -10.8253 -10.8231 -10.8217 -10.8204 -10.7946 -10.7829 -10.7820 -10.7816
   -10.7790 -10.7525 -10.6817 -10.6152 -10.5853 -10.5740 -10.5701 -10.5508
   -10.5182 -10.4759 -10.4389 -10.4152 -10.3320 -10.3196 -10.2527 -10.2453
   -10.2072 -10.1900 -10.1740 -10.1659 -10.1544 -10.1490 -10.1404 -10.1140
   -10.0936 -10.0817 -10.0784 -10.0742 -10.0638 -10.0611 -10.0445 -10.0409
   -10.0214 -10.0155  -9.9780  -9.9758  -9.9700  -9.9443  -9.9387  -9.9340
    -9.9305  -9.9148  -9.9041  -9.8935  -9.8710  -9.8555  -9.8517  -9.8453
    -9.8377  -9.8149  -9.8099  -9.8002  -9.7735  -9.7582  -9.7366  -9.7324
    -9.7229  -9.7063  -9.6959  -9.6753  -9.6687  -9.6609  -9.6507  -9.6484
    -9.6321  -9.6169  -9.6096  -9.6007  -9.5868  -9.5784  -9.5609  -9.5359
    -9.5303  -9.5253  -9.5175  -9.5152  -9.5131  -9.5065  -9.4997  -9.4967
    -9.4901  -9.4801  -9.4648  -9.4503  -9.4405  -9.4141  -9.3977  -9.3766
    -9.3206  -9.3055  -9.2802  -9.2701  -9.2612  -9.2575  -9.2520  -9.2312
    -9.2282  -9.2041  -9.1977  -9.1843  -9.1728  -9.1558  -9.1460  -9.1406
    -9.1185  -9.1136  -9.0963  -9.0953  -9.0867  -9.0816  -9.0574  -9.0482
    -9.0318  -9.0252  -9.0092  -9.0022  -8.9910  -8.9850  -8.9815  -8.9789
    -8.9535  -8.9332  -8.9308  -8.9299  -8.9287  -8.9272  -8.9214  -8.9189
    -8.9147  -8.9111  -8.9077  -8.9062  -8.9044  -8.8978  -8.8929  -8.8920
    -8.8875  -8.8785  -8.8780  -8.8544  -8.8369  -8.8318  -8.8316  -8.8292
    -8.8256  -8.8225  -8.8143  -8.8037  -8.8010  -8.7991  -8.7769  -8.7722
    -8.7711  -8.7705  -8.7538  -8.7226  -8.7020  -8.6918  -8.6898  -8.6698
    -8.6306  -8.5897  -8.5493  -8.5425  -8.5290  -8.4914  -8.4847  -8.4702
    -8.4026  -8.3914  -8.3849  -8.3397  -8.3303  -8.3074  -8.2256  -8.1671
    -8.1661  -8.1651  -8.1579  -8.1566  -8.1494  -8.1455  -8.1442  -8.1132
    -8.1098  -8.0945  -8.0532  -8.0117  -8.0072  -8.0040  -7.9330  -7.9228
    -7.9151  -7.9006  -7.8942  -7.8838  -7.8772  -7.8692  -7.8600  -7.8566
    -7.8530  -7.8462  -7.8421  -7.8387  -7.8350  -7.8318  -7.8293  -7.8228
    -7.8199  -7.8184  -7.8124  -7.8078  -7.8070  -7.8039  -7.8032  -7.8019
    -7.7992  -7.7967  -7.7964  -7.7917  -7.7727  -7.7705  -7.7693  -7.7685
    -7.7520  -7.7381  -7.7355  -7.7351  -7.7340  -7.7207  -7.7079  -7.7053
    -7.7045  -7.7036  -7.7018  -7.6947  -7.6902  -7.6724  -7.6698  -7.6615
    -7.6514  -7.6467  -7.6456  -7.6412  -7.6401  -7.6272  -7.6235  -7.6213
    -7.6051  -7.6024  -7.6023  -7.5992  -7.5963  -7.5870  -7.5667  -7.5078
    -7.5005  -7.4988  -7.4963  -7.4771  -7.4619  -7.4420  -7.3892  -7.3565
    -7.2885  -7.2660  -7.2396  -7.2131  -7.2074  -7.2040  -7.2012  -7.1752
    -7.1584  -7.1492  -7.1470  -7.1427  -7.1205  -7.1117  -7.0858  -7.0718
    -7.0660  -7.0641  -7.0534  -7.0387  -7.0213  -7.0142  -6.9997  -6.9765
    -6.9529  -6.9481  -6.9415  -6.9250  -6.9200  -6.9001  -6.8978  -6.8949
    -6.8857  -6.8700  -6.8434  -6.8270  -6.8158  -6.7905  -6.7783  -6.7478
    -6.7214  -6.7184  -6.7092  -6.6958  -6.6629  -6.6586  -6.6476  -6.6439
    -6.6433  -6.6425  -6.6351  -6.6273  -6.6258  -6.6252  -6.6243  -6.6184
    -6.6171  -6.6171  -6.6170  -6.6139  -6.5983  -6.5926  -6.5615  -6.5273
    -6.5201  -6.4856  -6.4607  -6.4570  -6.4433  -6.3594  -6.3585  -6.3556
    -6.3547  -6.3495  -6.3448  -6.3154  -6.3152  -6.3108  -6.3105  -6.3056
    -6.2990  -6.2947  -6.2940  -6.2898  -6.2853  -6.2522  -6.2437  -6.2434
    -6.2427  -6.2252  -6.1625  -6.1212  -6.1108  -6.0343  -6.0273  -6.0117
    -5.9797  -5.9614  -5.9501  -5.9099  -5.8918  -5.8824  -5.8545  -5.7768
    -5.7351  -5.7115  -5.6618  -5.6369  -5.6204  -5.5442  -5.4878  -5.3480
    -5.3201  -4.3538  -4.1870  -4.1318  -4.1295  -4.1097  -4.0488  -3.9861
    -3.9699  -3.9602  -3.9524  -3.9200  -3.8860  -3.8792  -3.8717  -3.8639
    -3.8521  -3.8480  -3.8436  -3.8368  -3.8358  -3.8168  -3.7783  -3.7365
    -3.7332  -3.7204  -3.6594  -3.6473  -3.6393  -3.6360  -3.6353  -3.6046
    -3.5950  -3.5899  -3.5864  -3.5737  -3.5630  -3.5594  -3.5500  -3.5458
    -3.5431  -3.5307  -3.5241  -3.5186  -3.5122  -3.5110  -3.5051  -3.4994
    -3.4857  -3.4812  -3.4731  -3.4681  -3.4551  -3.4524  -3.4410  -3.4266
    -3.4214  -3.3960  -3.3884  -3.3855  -3.3833  -3.3824  -3.3795  -3.3722
    -3.3528  -3.3469  -3.3355  -3.3290  -3.3229  -3.3186  -3.3170  -3.3143
    -3.3122  -3.3072  -3.2940  -3.2872  -3.2864  -3.2764  -3.2746  -3.2739
    -3.2587  -3.2501  -3.2472  -3.2464  -3.2433  -3.2393  -3.2295  -3.2226
    -3.2116  -3.2084  -3.1986  -3.1981  -3.1967  -3.1905  -3.1763  -3.1513
    -3.1457  -3.1420  -3.1232  -3.1109  -3.1050  -3.1000  -3.0960  -3.0673
    -3.0620  -3.0605  -3.0587  -3.0585  -3.0571  -3.0552  -3.0494  -3.0438
    -3.0432  -3.0417  -3.0358  -3.0279  -3.0254  -3.0221  -3.0188  -3.0158
    -3.0122  -3.0078  -3.0034  -3.0001  -2.9961  -2.9841  -2.9838  -2.9808
    -2.9796  -2.9708  -2.9674  -2.9609  -2.9540  -2.9417  -2.9378  -2.9274
    -2.9232  -2.9170  -2.9137  -2.9061  -2.8895  -2.8397  -2.8375  -2.8267
    -2.8244  -2.7940  -2.7891  -2.7570  -2.7540  -2.6810  -2.6479  -2.6397
    -2.6307  -2.6222  -2.6032  -2.6003  -2.5896  -2.5790  -2.5775  -2.5660
    -2.5639  -2.5630  -2.5570  -2.5533  -2.5042  -2.4874  -2.4470  -2.4436
    -2.4355  -2.4329  -2.4262  -2.4223  -2.4195  -2.4030  -2.3791  -2.3784

          k =-0.5000-0.8660 0.0000 (386352 PWs)   bands (ev):

  -103.0100-102.9336 -88.2592 -71.3612 -71.3513 -71.3327 -71.3135 -71.2988
   -71.2796 -71.2784 -71.2733 -71.2694 -71.2481 -71.2265 -71.2146 -71.2010
   -71.1914 -66.6591 -66.6575 -66.6575 -66.6574 -66.6573 -66.6562 -66.6562
   -66.6542 -66.6468 -66.6468 -66.6468 -66.6467 -66.6455 -66.6455 -66.6407
   -66.6372 -66.6337 -66.6318 -66.6317 -66.6317 -66.6317 -66.6317 -66.6317
   -66.6316 -66.6315 -66.6304 -66.6304 -66.6304 -66.6304 -66.6273 -66.6273
   -66.6272 -66.6271 -66.6260 -66.6260 -66.6254 -66.6213 -66.6210 -66.6210
   -66.6210 -66.6210 -66.6209 -66.6208 -66.6208 -66.6197 -66.6197 -66.6197
   -66.6197 -66.6186 -66.6165 -66.6165 -66.6165 -66.6164 -66.6152 -66.6152
   -66.6114 -66.6090 -66.6042 -66.5935 -66.5900 -66.5860 -66.5841 -66.5752
   -66.5697 -57.3498 -57.2661 -57.1682 -57.1538 -57.1016 -57.0642 -54.1128
   -54.0806 -53.9870 -40.9596 -40.9595 -40.9595 -40.9595 -40.9595 -40.9594
   -40.9593 -40.9592 -40.9589 -40.9589 -40.9589 -40.9589 -40.9517 -40.9481
   -40.9441 -40.9339 -40.9327 -40.9327 -40.9327 -40.9325 -40.9320 -40.9320
   -40.9273 -40.9228 -40.9206 -40.9206 -40.9205 -40.9205 -40.9200 -40.9200
   -40.8933 -40.8748 -40.8699 -40.8699 -40.8699 -40.8699 -40.8699 -40.8698
   -40.8698 -40.8698 -40.8692 -40.8692 -40.8692 -40.8692 -40.8523 -40.8419
   -40.8408 -40.8317 -40.8280 -40.8184 -40.8113 -40.8111 -40.8111 -40.8109
   -40.8105 -40.8105 -40.8051 -40.8016 -40.8016 -40.8016 -40.8015 -40.8008
   -40.8008 -40.7987 -40.7903 -40.7903 -40.7902 -40.7902 -40.7896 -40.7896
   -40.7892 -40.7771 -40.7732 -40.7715 -40.7686 -40.7662 -40.7607 -40.7607
   -40.7606 -40.7606 -40.7606 -40.7606 -40.7605 -40.7605 -40.7600 -40.7600
   -40.7600 -40.7600 -40.7567 -40.7520 -40.7519 -40.7519 -40.7518 -40.7513
   -40.7512 -40.7504 -40.7475 -40.7401 -40.7401 -40.7401 -40.7400 -40.7399
   -40.7399 -40.7396 -40.7396 -40.7396 -40.7396 -40.7396 -40.7394 -40.7394
   -40.7393 -40.7393 -40.7389 -40.7389 -40.7389 -40.7389 -40.7367 -40.7321
   -40.7309 -40.7309 -40.7309 -40.7309 -40.7302 -40.7302 -40.7253 -40.7192
   -40.7167 -40.7112 -40.7093 -40.7092 -40.7092 -40.7092 -40.7092 -40.7091
   -40.7091 -40.7090 -40.7083 -40.7083 -40.7083 -40.7083 -40.6956 -40.6890
   -40.6884 -40.6828 -40.6745 -40.6745 -40.6745 -40.6745 -40.6744 -40.6744
   -40.6744 -40.6744 -40.6736 -40.6736 -40.6736 -40.6736 -40.6624 -40.6623
   -40.6623 -40.6621 -40.6614 -40.6614 -40.6571 -40.6487 -40.6479 -40.6430
   -40.6430 -40.6430 -40.6428 -40.6421 -40.6421 -40.6415 -40.6334 -40.6260
   -40.6260 -40.6260 -40.6259 -40.6251 -40.6251 -40.6239 -40.6199 -40.6129
   -40.5954 -40.5953 -40.5953 -40.5951 -40.5944 -40.5944 -40.5910 -40.5761
   -40.5646 -40.5552 -20.2988 -19.9345 -19.9111 -19.8792 -19.8310 -19.7906
   -19.7836 -19.6971 -19.6886 -19.5401 -19.4745 -19.4650 -19.3878 -19.3721
   -19.2838 -19.2698 -19.2132 -19.0826 -18.9322 -18.8698 -18.8188 -18.8013
   -18.7662 -18.7623 -18.7592 -18.7568 -18.7410 -18.7172 -18.7138 -18.6948
   -18.6851 -18.6808 -18.6757 -18.6318 -18.6264 -18.6005 -18.5949 -18.5922
   -18.5861 -18.5723 -18.5646 -18.5329 -18.5258 -18.5167 -18.5095 -18.4939
   -18.4768 -18.4526 -18.4478 -18.4455 -18.4215 -18.3997 -18.3953 -18.3745
   -18.3617 -18.3488 -18.3396 -18.3097 -18.2890 -18.2860 -18.2656 -18.2394
   -18.2298 -18.2211 -18.2057 -18.1778 -18.1757 -18.1682 -18.1500 -18.1395
   -18.1378 -18.1368 -18.1361 -18.1167 -18.1125 -18.1108 -18.1088 -18.1053
   -18.1028 -18.0972 -18.0957 -18.0946 -18.0809 -18.0684 -18.0511 -18.0489
   -18.0473 -18.0424 -18.0400 -18.0389 -18.0378 -18.0286 -18.0280 -18.0181
   -17.9919 -17.9896 -17.9854 -17.9757 -17.9729 -17.9601 -17.9455 -17.9337
   -17.9310 -17.9203 -17.9142 -17.9001 -17.8861 -17.8827 -17.8803 -17.8775
   -17.8582 -17.8578 -17.8575 -17.8572 -17.8568 -17.8555 -17.8434 -17.8430
   -17.8236 -17.8231 -17.7993 -17.7985 -17.7801 -17.7788 -17.7655 -17.7646
   -17.7579 -17.7578 -12.4004 -12.2409 -11.9665 -11.8901 -11.7714 -11.7183
   -11.7060 -11.5774 -11.5607 -11.5407 -11.5396 -11.5383 -11.5282 -11.5188
   -11.5165 -11.4995 -11.4736 -11.4629 -11.4481 -11.4319 -11.4293 -11.4180
   -11.3949 -11.3876 -11.3659 -11.3518 -11.3445 -11.3183 -11.3148 -11.3096
   -11.3063 -11.2981 -11.2950 -11.2945 -11.2832 -11.2496 -11.2452 -11.2388
   -11.2350 -11.2268 -11.2113 -11.2097 -11.2004 -11.1902 -11.1857 -11.1840
   -11.1735 -11.1608 -11.1317 -11.1189 -11.1158 -11.0830 -11.0773 -11.0455
   -11.0261 -11.0058 -10.9967 -10.9882 -10.9730 -10.9539 -10.9467 -10.9380
   -10.9234 -10.8880 -10.8819 -10.8776 -10.8767 -10.8698 -10.8617 -10.8507
[...]
     atom  172 type  2   force =    -0.00000181   -0.00000014    0.00161541
     atom  173 type  2   force =    -0.00000194   -0.00000061   -0.00236001
     atom  174 type  2   force =    -0.00000605   -0.00000238    0.00001517
     atom  175 type  1   force =    -0.00000288   -0.00001045    0.00003598
     atom  176 type  1   force =     0.00009658   -0.00003554   -0.00003278
     atom  177 type  2   force =     0.00031780    0.00021997    0.00004962
     atom  178 type  2   force =     0.00000532   -0.00002247    0.00003260
     atom  179 type  2   force =    -0.00002049   -0.00000106    0.00001229
     atom  180 type  2   force =    -0.00009053   -0.00002417   -0.00030475
     atom  181 type  1   force =    -0.00000065   -0.00000112    0.00068872
     atom  182 type  1   force =    -0.00001160   -0.00000688    0.00000418
     atom  183 type  2   force =    -0.00000343   -0.00000229    0.00000451
     atom  184 type  2   force =    -0.00000182   -0.00000011    0.00161547
     atom  185 type  2   force =    -0.00000201   -0.00000057   -0.00235998
     atom  186 type  2   force =    -0.00000525   -0.00000170    0.00000572
     atom  187 type  1   force =    -0.00000257    0.00000707    0.00000734
     atom  188 type  1   force =     0.00009396    0.00007922    0.00008006
     atom  189 type  2   force =    -0.00010549   -0.00034438   -0.00001691
     atom  190 type  2   force =    -0.00001266    0.00001460    0.00003110
     atom  191 type  2   force =    -0.00000467   -0.00001903    0.00001072
     atom  192 type  2   force =    -0.00022039   -0.00046350    0.00010919
     atom  193 type  3   force =     0.00047886   -0.00023130    0.00079847
     atom  194 type  3   force =     0.00028425    0.00036419   -0.00006275
     atom  195 type  4   force =     0.00057886   -0.00046551    0.00032005

     Total force =     0.003781     Total SCF correction =     0.000688
     SCF correction compared to forces is large: reduce conv_thr to get better values
     Energy error            =      3.3E-05 Ry
     Gradient error          =      9.7E-04 Ry/Bohr

     bfgs converged in  20 scf cycles and  19 bfgs steps
     (criteria: energy <  1.0E-04 Ry, force <  1.0E-03 Ry/Bohr)

     End of BFGS Geometry Optimization

     Final energy             =  -35654.9473266443 Ry

     File ./outdir/pwscf.bfgs deleted, as requested
Begin final coordinates

ATOMIC_POSITIONS (angstrom)
Mo               0.0000119917        1.8193638619       -9.1672481230    0   0   0
Mo               1.5756136568        0.9097075315       -3.0554901653    0   0   0
S                0.0000188998        1.8193822938       -4.6232556019    0   0   0
S                1.5756321638        0.9096773839       -7.6014065489    0   0   0
S                1.5756326175        0.9096785128      -10.7330757790    0   0   0
S                0.0000189190        1.8193860094       -1.4877129945    0   0   0
Mo               0.0000076007        1.8197938245        3.0569875161
Mo               1.5754849039        0.8998871002        9.1695281191
S               -0.0008504585        1.8294280432        7.6170420382
S                1.5748453202        0.9095005831        4.6248009669
S                1.5757644846        0.9099798549        1.4894697466
S                0.0003500904        1.7651659297       10.7881469073
Mo              -1.5756053507        4.5484193819       -9.1672481230    0   0   0
Mo               0.0000378379        3.6387394919       -3.0554952701    0   0   0
S               -1.5755913433        4.5484363582       -4.6232494962    0   0   0
S                0.0000148214        3.6387329039       -7.6014065489    0   0   0
S                0.0000152751        3.6387340328      -10.7330757790    0   0   0
S               -1.5755906502        4.5484413613       -1.4877305502    0   0   0
Mo              -1.5753978980        4.5486620808        3.0574347909
Mo              -0.0072947653        3.6245582578        9.1908594841
S               -1.5704656044        4.5495379029        7.6228828506
S               -0.0001622875        3.6387695334        4.6257980215
S                0.0005636724        3.6394052996        1.4898202939
S               -1.6378097233        4.5768478979       10.7674427360
Mo              -3.1512226931        7.2774749019       -9.1672481230    0   0   0
Mo              -1.5755910988        6.3678216792       -3.0555115988    0   0   0
S               -3.1512162438        7.2774954350       -4.6232578178    0   0   0
S               -1.5756025210        6.3677884239       -7.6014065489    0   0   0
S               -1.5756020673        6.3677895528      -10.7330757790    0   0   0
S               -3.1512127704        7.2774877076       -1.4877200710    0   0   0
Mo              -3.1513539061        7.2775581159        3.0572524435
Mo              -1.5942825476        6.3782550399        9.1835837282
S               -3.1645500664        7.2724878901        7.6064163161
S               -1.5759116580        6.3677137209        4.6254864020
S               -1.5753732939        6.3679261810        1.4896547732
S               -3.1579446322        7.2907573048       10.7549927958
Mo              -4.7268400355       10.0065304219       -9.1672481230    0   0   0
Mo              -3.1512405618        9.0968403586       -3.0554816746    0   0   0
S               -4.7268341792       10.0065523623       -4.6232463762    0   0   0
S               -3.1512198634        9.0968439439       -7.6014065489    0   0   0
S               -3.1512194097        9.0968450728      -10.7330757790    0   0   0
S               -4.7268370797       10.0065537885       -1.4877176751    0   0   0
Mo              -4.7269823047       10.0064544597        3.0569599976
Mo              -3.1561727426        9.0944792311        9.1712437575
S               -4.7385087146        9.9962305865        7.6051954255
S               -3.1512545909        9.0969733050        4.6246245718
S               -3.1513704569        9.0967099398        1.4890150312
S               -4.7192744871       10.0105163514       10.7473695914
Mo               3.1512517547        1.8193638619       -9.1672481230    0   0   0
Mo               4.7269020221        0.9097289540       -3.0554823951    0   0   0
S                3.1512612351        1.8193882564       -4.6232320683    0   0   0
S                4.7268719268        0.9096773839       -7.6014065489    0   0   0
S                4.7268723805        0.9096785128      -10.7330757790    0   0   0
S                3.1512592485        1.8193890201       -1.4877261251    0   0   0
Mo               3.1511910422        1.8194336429        3.0576839903
Mo               4.7303460243        0.8968712258        9.1506610731
S                3.1494389212        1.7904662711        7.5742353652
S                4.7274976359        0.9092072008        4.6240057978
S                4.7266299283        0.9100193732        1.4891626802
S                3.1620894545        1.7863872310       10.7249106692
Mo               1.5756344123        4.5484193819       -9.1672481230    0   0   0
Mo               3.1512756394        3.6387769522       -3.0554814834    0   0   0
S                1.5756504879        4.5484423799       -4.6232390542    0   0   0
S                3.1512545844        3.6387329039       -7.6014065489    0   0   0
S                3.1512550381        3.6387340328      -10.7330757790    0   0   0
S                1.5756466253        4.5484431864       -1.4877251801    0   0   0
Mo               1.5757913119        4.5486241383        3.0585212088
Mo               3.1848089325        3.5921378492        9.1485930324
S                1.5729679466        4.5432578685        7.6300570619
S                3.1518197928        3.6388899558        4.6261036271
S                3.1510442172        3.6389537047        1.4902408007
S                1.6650086844        4.5007567359       10.7080115734
Mo               0.0000170699        7.2774749019       -9.1672481230    0   0   0
Mo               1.5756764447        6.3678236689       -3.0554877708    0   0   0
S                0.0000381981        7.2774979204       -4.6232454413    0   0   0
S                1.5756372420        6.3677884239       -7.6014065489    0   0   0
S                1.5756376957        6.3677895528      -10.7330757790    0   0   0
S                0.0000328088        7.2774946042       -1.4877307940    0   0   0
Mo               0.0001624302        7.2772019054        3.0576498350
Mo               1.5560429279        6.3877129638        9.1684520215
S               -0.0138778974        7.2730948092        7.6146026824
S                1.5759274835        6.3681702529        4.6266889680
S                1.5756839385        6.3674907361        1.4901667248
S               -0.0557708586        7.2974645026       10.7976307864
Mo              -1.5756002725       10.0065304219       -9.1672481230    0   0   0
Mo               0.0000873425        9.0968676911       -3.0554912329    0   0   0
S               -1.5755883952       10.0065504530       -4.6232240150    0   0   0
S                0.0000198996        9.0968439439       -7.6014065489    0   0   0
S                0.0000203533        9.0968450728      -10.7330757790    0   0   0
S               -1.5755859047       10.0065492576       -1.4877362381    0   0   0
Mo              -1.5755851277       10.0063426719        3.0564293930
Mo              -0.0070371215        9.0972018492        9.1727878994
S               -1.5781638660        9.9893408403        7.5930123422
S               -0.0000051428        9.0968039113        4.6240847783
S                0.0003933422        9.0963788985        1.4892232038
S               -1.5788652074       10.0105862797       10.7355646438
Mo               6.3024915177        1.8193638619       -9.1672481230    0   0   0
Mo               7.8781001445        0.9096521684       -3.0554919963    0   0   0
S                6.3025008696        1.8193826232       -4.6232480596    0   0   0
S                7.8781116898        0.9096773839       -7.6014065489    0   0   0
S                7.8781121435        0.9096785128      -10.7330757790    0   0   0
S                6.3025042007        1.8193849068       -1.4877147524    0   0   0
Mo               6.3027416964        1.8196657355        3.0566410315
Mo               7.8731639588        0.9130598611        9.1456910307
S                6.3015149411        1.8181381354        7.5745892644
S                7.8785773242        0.9102618242        4.6242292482
S                7.8784804501        0.9099395913        1.4890276211
S                6.3077937406        1.8041617513       10.7212355378
Mo               4.7268741753        4.5484193819       -9.1672481230    0   0   0
Mo               6.3024679138        3.6387501714       -3.0554895197    0   0   0
S                4.7268748770        4.5484386753       -4.6232519432    0   0   0
S                6.3024943474        3.6387329039       -7.6014065489    0   0   0
S                6.3024948011        3.6387340328      -10.7330757790    0   0   0
S                4.7268770533        4.5484432419       -1.4877137856    0   0   0
Mo               4.7268816836        4.5488372772        3.0575318007
Mo               6.3224440820        3.6243999659        9.1562654359
S                4.7427214314        4.5697958435        7.6193719634
S                6.3027307275        3.6390056979        4.6248758118
S                6.3024573581        3.6393693274        1.4893799350
S                4.7507587967        4.4171577994       10.7747022214
Mo               3.1512568329        7.2774749019       -9.1672481230    0   0   0
Mo               4.7268384135        6.3678043337       -3.0554959052    0   0   0
S                3.1512606125        7.2774972547       -4.6232589675    0   0   0
S                4.7268770050        6.3677884239       -7.6014065489    0   0   0
S                4.7268774587        6.3677895528      -10.7330757790    0   0   0
S                3.1512629079        7.2774963749       -1.4877081835    0   0   0
Mo               3.1512207925        7.2775852315        3.0575586173
Mo               4.7284909008        6.3670229039        9.2135615212
S                3.1624631634        7.2776208149        7.6430787194
S                4.7270029916        6.3684279048        4.6251228470
S                4.7262941282        6.3677611656        1.4891864007
S                3.0872239970        7.4236397193       10.7591767628
Mo               1.5756394905       10.0065304219       -9.1672481230    0   0   0
Mo               3.1512330605        9.0968514907       -3.0554878870    0   0   0
S                1.5756499830       10.0065443759       -4.6232632674    0   0   0
S                3.1512596626        9.0968439439       -7.6014065489    0   0   0
S                3.1512601163        9.0968450728      -10.7330757790    0   0   0
S                1.5756503041       10.0065459699       -1.4877044377    0   0   0
Mo               1.5758654724       10.0067248940        3.0569964010
Mo               3.1508140522        9.1512351339        9.1541013212
S                1.5597315183       10.0109244986        7.5777683334
S                3.1513758720        9.0970953799        4.6253536256
S                3.1514670569        9.0968919927        1.4895507551
S                1.5644253651       10.0352387512       10.7242895688
Mo               9.4537312807        1.8193638619       -9.1672481230    0   0   0
Mo              11.0293863460        0.9096952246       -3.0554894007    0   0   0
S                9.4537395970        1.8193770750       -4.6232328036    0   0   0
S               11.0293514528        0.9096773839       -7.6014065489    0   0   0
S               11.0293519066        0.9096785128      -10.7330757790    0   0   0
S                9.4537393632        1.8193794783       -1.4877366147    0   0   0
Mo               9.4540230179        1.8198807197        3.0568722242
Mo              11.0312108560        0.9116311287        9.1722178890
S                9.4615321555        1.8237865074        7.5903166399
S               11.0295431376        0.9102699936        4.6247218644
S               11.0294993604        0.9098462212        1.4892992409
S                9.4437374908        1.8183612486       10.7270141095
Mo               7.8781139383        4.5484193819       -9.1672481230    0   0   0
Mo               9.4537539161        3.6387607911       -3.0554933032    0   0   0
S                7.8781175448        4.5484378232       -4.6232366318    0   0   0
S                9.4537341104        3.6387329039       -7.6014065489    0   0   0
S                9.4537345641        3.6387340328      -10.7330757790    0   0   0
S                7.8781194018        4.5484411585       -1.4877377057    0   0   0
Mo               7.8782098606        4.5489112929        3.0573087242
Mo               9.4434410457        3.6386106943        9.1675286977
S                7.8865899028        4.5609765806        7.5959061322
S                9.4539561907        3.6392303866        4.6250593647
S                9.4539486287        3.6393176916        1.4894100238
S                7.8740314281        4.5366802834       10.7421336132
Mo               6.3024965959        7.2774749019       -9.1672481230    0   0   0
Mo               7.8781361655        6.3678242352       -3.0555014130    0   0   0
S                6.3024973331        7.2774953556       -4.6232392528    0   0   0
S                7.8781167680        6.3677884239       -7.6014065489    0   0   0
S                7.8781172217        6.3677895528      -10.7330757790    0   0   0
S                6.3024989866        7.2774929744       -1.4877349119    0   0   0
Mo               6.3022021432        7.2775097367        3.0563747251
Mo               7.8803907203        6.3659181797        9.1913472677
S                6.2819722459        7.2662661136        7.6506543828
S                7.8773008271        6.3684966435        4.6249811809
S                7.8782844198        6.3678993031        1.4891015374
S                6.3741915693        7.3124664217       10.8396230100
Mo               4.7268792535       10.0065304219       -9.1672481230    0   0   0
Mo               6.3025111524        9.0968738021       -3.0554915260    0   0   0
S                4.7268840634       10.0065452125       -4.6232380477    0   0   0
S                6.3024994256        9.0968439439       -7.6014065489    0   0   0
S                6.3024998793        9.0968450728      -10.7330757790    0   0   0
S                4.7268847312       10.0065459141       -1.4877283294    0   0   0
Mo               4.7270599190       10.0066730577        3.0573651503
Mo               6.3001829537        9.1015549595        9.1919840946
S                4.7452568448       10.0204941396        7.5931720163
S                6.3025807611        9.0960304187        4.6247112348
S                6.3023427161        9.0971611194        1.4890004127
S                4.7219049878       10.0236772801       10.7434310372
Pt               1.7053156203        6.2398160779       12.1841272691
Pt               4.5662391996        6.3378045655       12.0503145831
Pd               0.1165217891        3.8148655319       12.1863177202
End final coordinates



     Writing all to output data dir ./outdir/pwscf.save/ :
     XML data file, charge density, pseudopotentials, collected wavefunctions
 
     init_run     :    177.29s CPU    180.98s WALL (       1 calls)
     electrons    : 168174.69s CPU 170324.40s WALL (      20 calls)
     update_pot   :     37.40s CPU     38.66s WALL (      19 calls)
     forces       :   2630.03s CPU   2675.82s WALL (      20 calls)
     force_dftd3  :     13.71s CPU     14.36s WALL (      20 calls)

     Called by init_run:
     wfcinit      :    153.34s CPU    155.08s WALL (       1 calls)
     potinit      :      1.57s CPU      2.04s WALL (       1 calls)
     hinit0       :     12.75s CPU     12.85s WALL (       1 calls)

     Called by electrons:
     c_bands      : 148711.33s CPU 150145.97s WALL (     270 calls)
     sum_band     :  17343.91s CPU  17728.59s WALL (     270 calls)
     v_of_rho     :     97.06s CPU    109.12s WALL (     273 calls)
     newd         :   1727.26s CPU   2048.79s WALL (     273 calls)
     PAW_pot      :    340.78s CPU    344.46s WALL (     292 calls)
     mix_rho      :     26.71s CPU     30.85s WALL (     270 calls)
     energy_dftd3 :      8.21s CPU      8.26s WALL (      20 calls)

     Called by c_bands:
     init_us_2    :    583.34s CPU    586.19s WALL (    2320 calls)
     init_us_2:cp :    583.32s CPU    586.18s WALL (    2320 calls)
     cegterg      : 146202.21s CPU 147620.77s WALL (    1105 calls)

     Called by *egterg:
     cdiaghg      :   8581.50s CPU   8888.90s WALL (   13373 calls)
     h_psi        :  73792.58s CPU  74264.16s WALL (   13525 calls)
     s_psi        :  16969.31s CPU  17075.05s WALL (   13525 calls)
     g_psi        :    132.19s CPU    132.80s WALL (   12416 calls)

     Called by h_psi:
     h_psi:calbec :  16754.55s CPU  16813.27s WALL (   13525 calls)
     vloc_psi     :  39714.70s CPU  39915.93s WALL (   13525 calls)
     add_vuspsi   :  17020.75s CPU  17128.17s WALL (   13525 calls)

     General routines
     calbec       :  24012.20s CPU  24094.94s WALL (   15001 calls)
     fft          :    106.84s CPU    117.87s WALL (    3765 calls)
     ffts         :      4.89s CPU      5.27s WALL (     543 calls)
     fftw         :  30020.52s CPU  30169.73s WALL ( 7854788 calls)
     interpolate  :      8.46s CPU      9.30s WALL (     273 calls)
 
     Parallel routines
 
     PWSCF        :   1d23h43m CPU   2d 0h22m WALL

 
   This run was terminated on:  15: 8: 6   7Apr2024            

=------------------------------------------------------------------------------=
   JOB DONE.
=------------------------------------------------------------------------------=
