
     Program PWSCF v.7.2 starts on  4Oct2023 at  5:35:26 

     This program is part of the open-source Quantum ESPRESSO suite
     for quantum simulation of materials; please cite
         "P. Giannozzi et al., J. Phys.:Condens. Matter 21 395502 (2009);
         "P. Giannozzi et al., J. Phys.:Condens. Matter 29 465901 (2017);
         "P. Giannozzi et al., J. Chem. Phys. 152 154105 (2020);
          URL http://www.quantum-espresso.org", 
     in publications or presentations arising from this work. More details at
     http://www.quantum-espresso.org/quote

     Parallel version (MPI), running on    36 processors

     MPI processes distributed on     1 nodes
     770176 MiB available memory on the printing compute node when the environment starts
 
     Waiting for input...
     Reading input from standard input
Warning: card &CELL ignored
Warning: card / ignored

     Current dimensions of program PWSCF are:
     Max number of different atomic species (ntypx) = 10
     Max number of k-points (npk) =  40000
     Max angular momentum in pseudopotentials (lmaxx) =  4
     file Mo.pbe-spn-kjpaw_psl.1.0.0.UPF: wavefunction(s)  4S 4D renormalized
     file S.pbe-n-kjpaw_psl.1.0.0.UPF: wavefunction(s)  3S 3P renormalized
     file Pd.pbe-spn-kjpaw_psl.1.0.0.UPF: wavefunction(s)  4S 5S 4D renormalized
 
     R & G space division:  proc/nbgrp/npool/nimage =      36
     Subspace diagonalization in iterative solution of the eigenvalue problem:
     one sub-group per band group will be used
     custom distributed-memory algorithm (size of sub-group:  6*  6 procs)

 
     Parallelization info
     --------------------
     sticks:   dense  smooth     PW     G-vecs:    dense   smooth      PW
     Min         586     335     89               165416    71459    9765
     Max         587     337     90               165425    71461    9778
     Sum       21109   12085   3205              5955087  2572543  351657
 
     Using Slab Decomposition
 


     bravais-lattice index     =            0
     lattice parameter (alat)  =      23.8395  a.u.
     unit-cell volume          =   28182.8498 (a.u.)^3
     number of atoms/cell      =          146
     number of atomic types    =            3
     number of electrons       =      1284.00
     number of Kohn-Sham states=          770
     kinetic-energy cutoff     =      77.0000  Ry
     charge density cutoff     =     539.0000  Ry
     scf convergence threshold =      1.0E-06
     mixing beta               =       0.2000
     number of iterations used =            8  plain     mixing
     energy convergence thresh.=      1.0E-04
     force convergence thresh. =      1.0E-03
     Exchange-correlation= SLA  PW   PBX  PBC
                           (   1   4   3   4   0   0   0)
     nstep                     =         1000


     Effective Screening Medium Method
     =================================
     Boundary Conditions: Vacuum-Slab-Vacuum
     total charge in unit cell        =   0.0000
     grid points for fit at edges     =        4 
 

     celldm(1)=  23.839504  celldm(2)=   0.000000  celldm(3)=   0.000000
     celldm(4)=   0.000000  celldm(5)=   0.000000  celldm(6)=   0.000000

     crystal axes: (cart. coord. in units of alat)
               a(1) = (   1.000000   0.000000   0.000000 )  
               a(2) = (  -0.500001   0.866026   0.000000 )  
               a(3) = (   0.000000   0.000000   2.401941 )  

     reciprocal axes: (cart. coord. in units 2 pi/alat)
               b(1) = (  1.000000  0.577351  0.000000 )  
               b(2) = (  0.000000  1.154700  0.000000 )  
               b(3) = (  0.000000  0.000000  0.416330 )  


     PseudoPot. # 1 for Mo read from file:
     ./pseudo/Mo.pbe-spn-kjpaw_psl.1.0.0.UPF
     MD5 check sum: 317bf72632116215fd98f72de1686f13
     Pseudo is Projector augmented-wave + core cor, Zval = 14.0
     Generated using 'atomic' code by A. Dal Corso  v.7.2
     Shape of augmentation charge: PSQ
     Using radial grid of 1229 points,  6 beta functions with: 
                l(1) =   0
                l(2) =   0
                l(3) =   1
                l(4) =   1
                l(5) =   2
                l(6) =   2
     Q(r) pseudized with 0 coefficients 


     PseudoPot. # 2 for S  read from file:
     ./pseudo/S.pbe-n-kjpaw_psl.1.0.0.UPF
     MD5 check sum: 8b7b5302570d38d5e87fed6a1065abda
     Pseudo is Projector augmented-wave + core cor, Zval =  6.0
     Generated using 'atomic' code by A. Dal Corso  v.7.2
     Shape of augmentation charge: PSQ
     Using radial grid of 1151 points,  6 beta functions with: 
                l(1) =   0
                l(2) =   0
                l(3) =   1
                l(4) =   1
                l(5) =   2
                l(6) =   2
     Q(r) pseudized with 0 coefficients 


     PseudoPot. # 3 for Pd read from file:
     ./pseudo/Pd.pbe-spn-kjpaw_psl.1.0.0.UPF
     MD5 check sum: a60571a671f2502b8a6a4569d20a6edb
     Pseudo is Projector augmented-wave + core cor, Zval = 18.0
     Generated using 'atomic' code by A. Dal Corso  v.7.2
     Shape of augmentation charge: PSQ
     Using radial grid of 1235 points,  6 beta functions with: 
                l(1) =   0
                l(2) =   0
                l(3) =   1
                l(4) =   1
                l(5) =   2
                l(6) =   2
     Q(r) pseudized with 0 coefficients 


     atomic species   valence    mass     pseudopotential
        Mo            14.00    95.95000     Mo( 1.00)
        S              6.00    32.06000     S ( 1.00)
        Pd            18.00   106.42000     Pd( 1.00)

     No symmetry found



   Cartesian axes

     site n.     atom                  positions (alat units)
         1           Mo  tau(   1) = (   0.1244805   0.2154429   0.4826124  )
         2           Mo  tau(   2) = (   0.1250004   0.0721694  -0.4825273  )
         3           Mo  tau(   3) = (   0.0000154   0.1443583  -0.0000534  )
         4           S   tau(   4) = (   0.0000004   0.0000006  -0.6064556  )
         5           S   tau(   5) = (   0.1249822   0.0722030  -0.1241916  )
         6           S   tau(   6) = (   0.0001873   0.1444894   0.3573292  )
         7           S   tau(   7) = (   0.0000004   0.0000005  -0.3584711  )
         8           S   tau(   8) = (   0.1250220   0.0721432   0.1241096  )
         9           S   tau(   9) = (  -0.0009222   0.1433430   0.6062350  )
        10           Mo  tau(  10) = (  -0.0011812   0.4330952   0.4826123  )
        11           Mo  tau(  11) = (   0.0000001   0.2886759  -0.4825273  )
        12           Mo  tau(  12) = (  -0.1249761   0.3608493  -0.0000533  )
        13           S   tau(  13) = (  -0.1249999   0.2165071  -0.6064556  )
        14           S   tau(  14) = (   0.0000232   0.2886904  -0.1241345  )
        15           S   tau(  15) = (  -0.1247753   0.3609305   0.3573291  )
        16           S   tau(  16) = (  -0.1249998   0.2165070  -0.3584711  )
        17           S   tau(  17) = (   0.0000901   0.2887289   0.1242236  )
        18           S   tau(  18) = (  -0.1263226   0.3605428   0.6062351  )
        19           Mo  tau(  19) = (  -0.1251400   0.6495983   0.4819363  )
        20           Mo  tau(  20) = (  -0.1250002   0.5051824  -0.4825273  )
        21           Mo  tau(  21) = (  -0.2500026   0.5773383  -0.0001491  )
        22           S   tau(  22) = (  -0.2500002   0.4330136  -0.6064556  )
        23           S   tau(  23) = (  -0.1249812   0.5051509  -0.1241919  )
        24           S   tau(  24) = (  -0.2500015   0.5775831   0.3575295  )
        25           S   tau(  25) = (  -0.2500001   0.4330135  -0.3584711  )
        26           S   tau(  26) = (  -0.1250129   0.5052153   0.1241101  )
        27           S   tau(  27) = (  -0.2500018   0.5771934   0.6060379  )
        28           Mo  tau(  28) = (   0.2499987  -0.0001601   0.4819365  )
        29           Mo  tau(  29) = (  -0.2500004   0.7216889  -0.4825273  )
        30           Mo  tau(  30) = (  -0.3750135   0.7938631  -0.0001491  )
        31           S   tau(  31) = (  -0.3750004   0.6495201  -0.6064556  )
        32           S   tau(  32) = (  -0.2500026   0.7216883  -0.1242347  )
        33           S   tau(  33) = (  -0.3747997   0.7937400   0.3575295  )
        34           S   tau(  34) = (  -0.3750004   0.6495200  -0.3584711  )
        35           S   tau(  35) = (  -0.2500029   0.7216883   0.1240299  )
        36           S   tau(  36) = (  -0.3751376   0.7939346   0.6060379  )
        37           Mo  tau(  37) = (   0.3755166   0.2154425   0.4826119  )
        38           Mo  tau(  38) = (   0.3750004   0.0721694  -0.4825273  )
        39           Mo  tau(  39) = (   0.2499990   0.1443474  -0.0000968  )
        40           S   tau(  40) = (   0.2500004   0.0000006  -0.6064556  )
        41           S   tau(  41) = (   0.3750152   0.0722028  -0.1241921  )
        42           S   tau(  42) = (   0.2499983   0.1443201   0.3580593  )
        43           S   tau(  43) = (   0.2500004   0.0000005  -0.3584711  )
        44           S   tau(  44) = (   0.3749754   0.0721432   0.1241106  )
        45           S   tau(  45) = (   0.2499987   0.1437775   0.6065499  )
        46           Mo  tau(  46) = (   0.2499984   0.4330123   0.4872880  )
        47           Mo  tau(  47) = (   0.2500001   0.2886759  -0.4825273  )
        48           Mo  tau(  48) = (   0.1250277   0.3608616  -0.0000572  )
        49           S   tau(  49) = (   0.1250001   0.2165071  -0.6064556  )
        50           S   tau(  50) = (   0.2499987   0.2886898  -0.1241693  )
        51           S   tau(  51) = (   0.1266397   0.3617911   0.3615924  )
        52           S   tau(  52) = (   0.1250002   0.2165070  -0.3584711  )
        53           S   tau(  53) = (   0.2499988   0.2886671   0.1241958  )
        54           S   tau(  54) = (   0.1173054   0.3564020   0.6108885  )
        55           Mo  tau(  55) = (   0.1243363   0.6504991   0.4826116  )
        56           Mo  tau(  56) = (   0.1249998   0.5051824  -0.4825273  )
        57           Mo  tau(  57) = (   0.0000060   0.5773464  -0.0000969  )
        58           S   tau(  58) = (  -0.0000002   0.4330136  -0.6064556  )
        59           S   tau(  59) = (   0.1250101   0.5051751  -0.1241696  )
        60           S   tau(  60) = (  -0.0000165   0.5773581   0.3580590  )
        61           S   tau(  61) = (  -0.0000001   0.4330135  -0.3584711  )
        62           S   tau(  62) = (   0.1249907   0.5051868   0.1241956  )
        63           S   tau(  63) = (  -0.0004863   0.5776299   0.6065497  )
        64           Mo  tau(  64) = (   0.5000682   0.0000393   0.4813064  )
        65           Mo  tau(  65) = (  -0.0000004   0.7216889  -0.4825273  )
        66           Mo  tau(  66) = (  -0.1249919   0.7938635  -0.0001489  )
        67           S   tau(  67) = (  -0.1250004   0.6495201  -0.6064556  )
        68           S   tau(  68) = (   0.0000350   0.7216859  -0.1241920  )
        69           S   tau(  69) = (  -0.1252051   0.7937392   0.3575294  )
        70           S   tau(  70) = (  -0.1250004   0.6495200  -0.3584711  )
        71           S   tau(  71) = (  -0.0000364   0.7216812   0.1241103  )
        72           S   tau(  72) = (  -0.1248667   0.7939344   0.6060378  )
        73           Mo  tau(  73) = (   0.6250985   0.2164481   0.4814760  )
        74           Mo  tau(  74) = (   0.6250004   0.0721694  -0.4825273  )
        75           Mo  tau(  75) = (   0.4999807   0.1443583  -0.0000532  )
        76           S   tau(  76) = (   0.5000004   0.0000006  -0.6064556  )
        77           S   tau(  77) = (   0.6249710   0.0721537  -0.1241599  )
        78           S   tau(  78) = (   0.4998101   0.1444887   0.3573287  )
        79           S   tau(  79) = (   0.5000004   0.0000005  -0.3584711  )
        80           S   tau(  80) = (   0.6250072   0.0721744   0.1241160  )
        81           S   tau(  81) = (   0.5009199   0.1433424   0.6062338  )
        82           Mo  tau(  82) = (   0.5011786   0.4330950   0.4826115  )
        83           Mo  tau(  83) = (   0.5000001   0.2886759  -0.4825273  )
        84           Mo  tau(  84) = (   0.3749686   0.3608615  -0.0000573  )
        85           S   tau(  85) = (   0.3750001   0.2165071  -0.6064556  )
        86           S   tau(  86) = (   0.4999725   0.2886900  -0.1241349  )
        87           S   tau(  87) = (   0.3733572   0.3617909   0.3615920  )
        88           S   tau(  88) = (   0.3750002   0.2165070  -0.3584711  )
        89           S   tau(  89) = (   0.4999057   0.2887288   0.1242238  )
        90           S   tau(  90) = (   0.3826919   0.3564018   0.6108876  )
        91           Mo  tau(  91) = (   0.3756598   0.6504996   0.4826113  )
        92           Mo  tau(  92) = (   0.3749998   0.5051824  -0.4825273  )
        93           Mo  tau(  93) = (   0.2499978   0.5773166  -0.0000576  )
        94           S   tau(  94) = (   0.2499998   0.4330136  -0.6064556  )
        95           S   tau(  95) = (   0.3749857   0.5051746  -0.1241697  )
        96           S   tau(  96) = (   0.2499981   0.5754545   0.3615919  )
        97           S   tau(  97) = (   0.2499999   0.4330135  -0.3584711  )
        98           S   tau(  98) = (   0.3750048   0.5051860   0.1241960  )
        99           S   tau(  99) = (   0.2499983   0.5862331   0.6108872  )
       100           Mo  tau( 100) = (   0.7499988   0.0001148   0.4814756  )
       101           Mo  tau( 101) = (   0.2499996   0.7216889  -0.4825273  )
       102           Mo  tau( 102) = (   0.1250062   0.7938321  -0.0000534  )
       103           S   tau( 103) = (   0.1249996   0.6495201  -0.6064556  )
       104           S   tau( 104) = (   0.2499971   0.7216593  -0.1241350  )
       105           S   tau( 105) = (   0.1250350   0.7936175   0.3573284  )
       106           S   tau( 106) = (   0.1249996   0.6495200  -0.3584711  )
       107           S   tau( 107) = (   0.2499972   0.7215818   0.1242234  )
       108           S   tau( 108) = (   0.1245975   0.7951515   0.6062336  )
       109           Mo  tau( 109) = (  -0.1251006   0.2164484   0.4814769  )
       110           Mo  tau( 110) = (   0.8750004   0.0721694  -0.4825273  )
       111           Mo  tau( 111) = (   0.7499976   0.1443379  -0.0001196  )
       112           S   tau( 112) = (   0.7500004   0.0000006  -0.6064556  )
       113           S   tau( 113) = (   0.8750246   0.0721533  -0.1241599  )
       114           S   tau( 114) = (   0.7499994   0.1443376   0.3572937  )
       115           S   tau( 115) = (   0.7500004   0.0000005  -0.3584711  )
       116           S   tau( 116) = (   0.8749884   0.0721739   0.1241157  )
       117           S   tau( 117) = (   0.7499987   0.1443370   0.6058240  )
       118           Mo  tau( 118) = (  -0.2500010   0.4329316   0.4813070  )
       119           Mo  tau( 119) = (   0.7500001   0.2886759  -0.4825273  )
       120           Mo  tau( 120) = (   0.6249710   0.3608493  -0.0000534  )
       121           S   tau( 121) = (   0.6250001   0.2165071  -0.6064556  )
       122           S   tau( 122) = (   0.7499973   0.2887067  -0.1241600  )
       123           S   tau( 123) = (   0.6247737   0.3609305   0.3573287  )
       124           S   tau( 124) = (   0.6250002   0.2165070  -0.3584711  )
       125           S   tau( 125) = (   0.7499971   0.2886649   0.1241160  )
       126           S   tau( 126) = (   0.6263203   0.3605423   0.6062340  )
       127           Mo  tau( 127) = (  -0.3748636   0.6495986   0.4819361  )
       128           Mo  tau( 128) = (   0.6249998   0.5051824  -0.4825273  )
       129           Mo  tau( 129) = (   0.4999891   0.5773453  -0.0000967  )
       130           S   tau( 130) = (   0.4999998   0.4330136  -0.6064556  )
       131           S   tau( 131) = (   0.6249761   0.5051506  -0.1241920  )
       132           S   tau( 132) = (   0.5000130   0.5773585   0.3580587  )
       133           S   tau( 133) = (   0.4999999   0.4330135  -0.3584711  )
       134           S   tau( 134) = (   0.6250081   0.5052147   0.1241104  )
       135           S   tau( 135) = (   0.5004826   0.5776298   0.6065487  )
       136           Mo  tau( 136) = (  -0.0000706   0.0000401   0.4813070  )
       137           Mo  tau( 137) = (   0.4999996   0.7216889  -0.4825273  )
       138           Mo  tau( 138) = (   0.3749881   0.7938314  -0.0000535  )
       139           S   tau( 139) = (   0.3749996   0.6495201  -0.6064556  )
       140           S   tau( 140) = (   0.4999594   0.7216844  -0.1241918  )
       141           S   tau( 141) = (   0.3749610   0.7936184   0.3573285  )
       142           S   tau( 142) = (   0.3749996   0.6495200  -0.3584711  )
       143           S   tau( 143) = (   0.5000310   0.7216802   0.1241101  )
       144           S   tau( 144) = (   0.3753979   0.7951517   0.6062337  )
       145           Pd  tau( 145) = (   0.2499985   0.4330123   0.7148096  )
       146           Pd  tau( 146) = (   0.2500134   0.4330448   0.9209436  )

     --------------------------------------------
     DFT-D3 Dispersion Correction (3-body terms):
     --------------------------------------------
       Reference C6 values for interpolation: 

         atom   Coordination number   C6
         S          0.000           268.01
         S          0.995           261.99
         S          1.990           251.62
         Mo         0.000          1691.79
         Mo         1.942          1004.01
         Mo        11.056           674.22
         Pd         0.000          1217.01
         Pd         1.863           573.90
         Pd         5.710           531.75

       Values used:

         atom   Coordination number  R0_AB[au]  C6      C8
         Mo        10.173            3.547    674.22  77634.20
         Mo        10.189            3.547    674.22  77634.20
         Mo        10.201            3.547    674.22  77634.20
         S          3.753            3.128    251.62  12327.25
         S          3.858            3.128    251.62  12327.25
         S          3.848            3.128    251.62  12327.25
         S          3.859            3.128    251.62  12327.25
         S          3.860            3.128    251.62  12327.25
         S          3.798            3.128    251.62  12327.25
         Mo        10.173            3.547    674.22  77634.20
         Mo        10.189            3.547    674.22  77634.20
         Mo        10.201            3.547    674.22  77634.20
         S          3.753            3.128    251.62  12327.25
         S          3.859            3.128    251.62  12327.25
         S          3.848            3.128    251.62  12327.25
         S          3.858            3.128    251.62  12327.25
         S          3.855            3.128    251.62  12327.25
         S          3.798            3.128    251.62  12327.25
         Mo        10.208            3.547    674.22  77634.20
         Mo        10.189            3.547    674.22  77634.20
         Mo        10.200            3.547    674.22  77634.20
         S          3.753            3.128    251.62  12327.25
         S          3.858            3.128    251.62  12327.25
         S          3.862            3.128    251.62  12327.25
         S          3.859            3.128    251.62  12327.25
         S          3.860            3.128    251.62  12327.25
         S          3.759            3.128    251.62  12327.25
         Mo        10.208            3.547    674.22  77634.20
         Mo        10.189            3.547    674.22  77634.20
         Mo        10.200            3.547    674.22  77634.20
         S          3.753            3.128    251.62  12327.25
         S          3.858            3.128    251.62  12327.25
         S          3.862            3.128    251.62  12327.25
         S          3.859            3.128    251.62  12327.25
         S          3.862            3.128    251.62  12327.25
         S          3.759            3.128    251.62  12327.25
         Mo        10.173            3.547    674.22  77634.20
         Mo        10.189            3.547    674.22  77634.20
         Mo        10.202            3.547    674.22  77634.20
         S          3.753            3.128    251.62  12327.25
         S          3.858            3.128    251.62  12327.25
         S          3.857            3.128    251.62  12327.25
         S          3.859            3.128    251.62  12327.25
         S          3.860            3.128    251.62  12327.25
         S          3.751            3.128    251.62  12327.25
         Mo        10.811            3.547    674.22  77634.20
         Mo        10.189            3.547    674.22  77634.20
         Mo        10.202            3.547    674.22  77634.20
         S          3.753            3.128    251.62  12327.25
         S          3.859            3.128    251.62  12327.25
         S          3.866            3.128    251.62  12327.25
         S          3.859            3.128    251.62  12327.25
         S          3.853            3.128    251.62  12327.25
         S          4.649            3.128    251.62  12327.25
         Mo        10.173            3.547    674.22  77634.20
         Mo        10.189            3.547    674.22  77634.20
         Mo        10.202            3.547    674.22  77634.20
         S          3.753            3.128    251.62  12327.25
         S          3.859            3.128    251.62  12327.25
         S          3.857            3.128    251.62  12327.25
         S          3.859            3.128    251.62  12327.25
         S          3.853            3.128    251.62  12327.25
         S          3.751            3.128    251.62  12327.25
         Mo        10.222            3.547    674.22  77634.20
         Mo        10.189            3.547    674.22  77634.20
         Mo        10.200            3.547    674.22  77634.20
         S          3.753            3.128    251.62  12327.25
         S          3.858            3.128    251.62  12327.25
         S          3.862            3.128    251.62  12327.25
         S          3.859            3.128    251.62  12327.25
         S          3.860            3.128    251.62  12327.25
         S          3.759            3.128    251.62  12327.25
         Mo        10.213            3.547    674.21  77634.20
         Mo        10.189            3.547    674.22  77634.20
         Mo        10.201            3.547    674.22  77634.20
         S          3.753            3.128    251.62  12327.25
         S          3.858            3.128    251.62  12327.25
         S          3.848            3.128    251.62  12327.25
         S          3.859            3.128    251.62  12327.25
         S          3.860            3.128    251.62  12327.25
         S          3.798            3.128    251.62  12327.25
         Mo        10.173            3.547    674.22  77634.20
         Mo        10.189            3.547    674.22  77634.20
         Mo        10.202            3.547    674.22  77634.20
         S          3.753            3.128    251.62  12327.25
         S          3.859            3.128    251.62  12327.25
         S          3.866            3.128    251.62  12327.25
         S          3.859            3.128    251.62  12327.25
         S          3.855            3.128    251.62  12327.25
         S          4.649            3.128    251.62  12327.25
         Mo        10.173            3.547    674.22  77634.20
         Mo        10.189            3.547    674.22  77634.20
         Mo        10.202            3.547    674.22  77634.20
         S          3.753            3.128    251.62  12327.25
         S          3.859            3.128    251.62  12327.25
         S          3.866            3.128    251.62  12327.25
         S          3.859            3.128    251.62  12327.25
         S          3.853            3.128    251.62  12327.25
         S          4.649            3.128    251.62  12327.25
         Mo        10.213            3.547    674.21  77634.20
         Mo        10.189            3.547    674.22  77634.20
         Mo        10.201            3.547    674.22  77634.20
         S          3.753            3.128    251.62  12327.25
         S          3.859            3.128    251.62  12327.25
         S          3.848            3.128    251.62  12327.25
         S          3.859            3.128    251.62  12327.25
         S          3.855            3.128    251.62  12327.25
         S          3.798            3.128    251.62  12327.25
         Mo        10.213            3.547    674.22  77634.20
         Mo        10.189            3.547    674.22  77634.20
         Mo        10.199            3.547    674.22  77634.20
         S          3.753            3.128    251.62  12327.25
         S          3.858            3.128    251.62  12327.25
         S          3.855            3.128    251.62  12327.25
         S          3.858            3.128    251.62  12327.25
         S          3.860            3.128    251.62  12327.25
         S          3.777            3.128    251.62  12327.25
         Mo        10.223            3.547    674.22  77634.20
         Mo        10.189            3.547    674.22  77634.20
         Mo        10.201            3.547    674.22  77634.20
         S          3.753            3.128    251.62  12327.25
         S          3.858            3.128    251.62  12327.25
         S          3.848            3.128    251.62  12327.25
         S          3.858            3.128    251.62  12327.25
         S          3.860            3.128    251.62  12327.25
         S          3.798            3.128    251.62  12327.25
         Mo        10.208            3.547    674.22  77634.20
         Mo        10.189            3.547    674.22  77634.20
         Mo        10.202            3.547    674.22  77634.20
         S          3.753            3.128    251.62  12327.25
         S          3.858            3.128    251.62  12327.25
         S          3.857            3.128    251.62  12327.25
         S          3.859            3.128    251.62  12327.25
         S          3.860            3.128    251.62  12327.25
         S          3.751            3.128    251.62  12327.25
         Mo        10.222            3.547    674.22  77634.20
         Mo        10.189            3.547    674.22  77634.20
         Mo        10.201            3.547    674.22  77634.20
         S          3.753            3.128    251.62  12327.25
         S          3.858            3.128    251.62  12327.25
         S          3.848            3.128    251.62  12327.25
         S          3.859            3.128    251.62  12327.25
         S          3.860            3.128    251.62  12327.25
         S          3.798            3.128    251.62  12327.25
         Pd         4.620            3.168    531.75  48720.73
         Pd         0.867            3.168   1009.62  92504.66

         Molecular C6 ( Ry / a.u.^6 ) =   7959362.69


     number of k points=     4  Gaussian smearing, width (Ry)=  0.0100
                       cart. coord. in units 2pi/alat
        k(    1) = (   0.0000000   0.0000000   0.0000000), wk =   0.5000000
        k(    2) = (   0.0000000  -0.5773499   0.0000000), wk =   0.5000000
        k(    3) = (  -0.5000000  -0.2886755   0.0000000), wk =   0.5000000
        k(    4) = (  -0.5000000  -0.8660254   0.0000000), wk =   0.5000000

     Dense  grid:  5955087 G-vectors     FFT dimensions: ( 180, 180, 432)

     Smooth grid:  2572543 G-vectors     FFT dimensions: ( 135, 135, 320)

     Estimated max dynamical RAM per process >       2.14 GB

     Estimated total dynamical RAM >      76.86 GB

     Initial potential from superposition of free atoms

     starting charge    1283.9538, renormalised to    1284.0000

     negative rho (up, down):  9.037E-04 0.000E+00
     Starting wfcs are  884 randomized atomic wfcs
     Checking if some PAW data can be deallocated... 

     total cpu time spent up to now is      106.6 secs

     Self-consistent Calculation

     iteration #  1     ecut=    77.00 Ry     beta= 0.20
     Davidson diagonalization with overlap
     ethr =  1.00E-02,  avg # of iterations =  2.0

     Threshold (ethr) on eigenvalues was too large:
     Diagonalizing with lowered threshold

     Davidson diagonalization with overlap
     ethr =  2.22E-04,  avg # of iterations = 14.5

     negative rho (up, down):  3.039E-04 0.000E+00

     total cpu time spent up to now is     1091.3 secs

     total energy              =  -24868.90956092 Ry
     estimated scf accuracy    <       4.83081835 Ry

     iteration #  2     ecut=    77.00 Ry     beta= 0.20
     Davidson diagonalization with overlap
     ethr =  3.76E-04,  avg # of iterations =  6.0

     negative rho (up, down):  6.820E-05 0.000E+00

     total cpu time spent up to now is     1329.1 secs

     total energy              =  -24868.25449247 Ry
     estimated scf accuracy    <       2.32305386 Ry

     iteration #  3     ecut=    77.00 Ry     beta= 0.20
     Davidson diagonalization with overlap
     ethr =  1.81E-04,  avg # of iterations =  9.2

     negative rho (up, down):  3.889E-05 0.000E+00

     total cpu time spent up to now is     1584.1 secs

     total energy              =  -24868.28796045 Ry
     estimated scf accuracy    <       0.97859694 Ry

     iteration #  4     ecut=    77.00 Ry     beta= 0.20
     Davidson diagonalization with overlap
     ethr =  7.62E-05,  avg # of iterations = 11.8

     negative rho (up, down):  2.829E-05 0.000E+00

     total cpu time spent up to now is     1995.7 secs

     total energy              =  -24868.62437407 Ry
     estimated scf accuracy    <       0.60435368 Ry

     iteration #  5     ecut=    77.00 Ry     beta= 0.20
     Davidson diagonalization with overlap
     ethr =  4.71E-05,  avg # of iterations =  8.5

     negative rho (up, down):  3.756E-05 0.000E+00

     total cpu time spent up to now is     2311.5 secs

     total energy              =  -24868.84038382 Ry
     estimated scf accuracy    <       0.17134456 Ry

     iteration #  6     ecut=    77.00 Ry     beta= 0.20
     Davidson diagonalization with overlap
     c_bands:  1 eigenvalues not converged
     c_bands:  4 eigenvalues not converged
     c_bands:  1 eigenvalues not converged
     c_bands:  3 eigenvalues not converged
     ethr =  1.33E-05,  avg # of iterations = 35.0

     negative rho (up, down):  7.127E-05 0.000E+00

     total cpu time spent up to now is     3080.6 secs

     total energy              =  -24868.97618801 Ry
     estimated scf accuracy    <       0.13807826 Ry

     iteration #  7     ecut=    77.00 Ry     beta= 0.20
     Davidson diagonalization with overlap
     c_bands:  5 eigenvalues not converged
     c_bands:  2 eigenvalues not converged
     ethr =  1.08E-05,  avg # of iterations = 21.2

     negative rho (up, down):  3.140E-04 0.000E+00

     total cpu time spent up to now is     3411.2 secs

     total energy              =  -24868.96700330 Ry
     estimated scf accuracy    <       0.07537569 Ry

     iteration #  8     ecut=    77.00 Ry     beta= 0.20
     Davidson diagonalization with overlap
     c_bands:  2 eigenvalues not converged
     c_bands:  2 eigenvalues not converged
     c_bands:  3 eigenvalues not converged
     ethr =  5.87E-06,  avg # of iterations = 22.8

     negative rho (up, down):  9.922E-04 0.000E+00

     total cpu time spent up to now is     3862.6 secs

     total energy              =  -24869.00012761 Ry
     estimated scf accuracy    <       0.03156071 Ry

     iteration #  9     ecut=    77.00 Ry     beta= 0.20
     Davidson diagonalization with overlap
     c_bands:  5 eigenvalues not converged
     c_bands:  2 eigenvalues not converged
     c_bands:  5 eigenvalues not converged
     c_bands:  2 eigenvalues not converged
     ethr =  2.46E-06,  avg # of iterations = 35.0

     negative rho (up, down):  5.729E-04 0.000E+00

     total cpu time spent up to now is     4592.6 secs

     total energy              =  -24868.98823838 Ry
     estimated scf accuracy    <       0.07440979 Ry

     iteration # 10     ecut=    77.00 Ry     beta= 0.20
     Davidson diagonalization with overlap
     c_bands:  2 eigenvalues not converged
     c_bands:  5 eigenvalues not converged
     c_bands:  2 eigenvalues not converged
     ethr =  2.46E-06,  avg # of iterations = 40.5

     negative rho (up, down):  5.071E-04 0.000E+00

     total cpu time spent up to now is     5259.4 secs

     total energy              =  -24868.99821912 Ry
     estimated scf accuracy    <       0.00835109 Ry

     iteration # 11     ecut=    77.00 Ry     beta= 0.20
     Davidson diagonalization with overlap
     c_bands:  3 eigenvalues not converged
     c_bands:  5 eigenvalues not converged
     c_bands:  2 eigenvalues not converged
     ethr =  6.50E-07,  avg # of iterations = 24.2

     negative rho (up, down):  6.465E-04 0.000E+00

     total cpu time spent up to now is     5863.0 secs

     total energy              =  -24869.00584284 Ry
     estimated scf accuracy    <       0.00608957 Ry

     iteration # 12     ecut=    77.00 Ry     beta= 0.20
     Davidson diagonalization with overlap
     c_bands:  1 eigenvalues not converged
     ethr =  4.74E-07,  avg # of iterations =  6.5

     negative rho (up, down):  8.113E-04 0.000E+00

     total cpu time spent up to now is     6105.4 secs

     total energy              =  -24869.00550553 Ry
     estimated scf accuracy    <       0.00118554 Ry

     iteration # 13     ecut=    77.00 Ry     beta= 0.20
     Davidson diagonalization with overlap
     c_bands:  1 eigenvalues not converged
     c_bands:  1 eigenvalues not converged
     c_bands:  1 eigenvalues not converged
     c_bands:  1 eigenvalues not converged
     ethr =  9.23E-08,  avg # of iterations = 20.0

     negative rho (up, down):  7.653E-04 0.000E+00

     total cpu time spent up to now is     6920.7 secs

     total energy              =  -24869.00696832 Ry
     estimated scf accuracy    <       0.00288916 Ry

     iteration # 14     ecut=    77.00 Ry     beta= 0.20
     Davidson diagonalization with overlap
     c_bands:  1 eigenvalues not converged
     ethr =  9.23E-08,  avg # of iterations = 16.2

     negative rho (up, down):  7.776E-04 0.000E+00

     total cpu time spent up to now is     7292.1 secs

     total energy              =  -24869.00704628 Ry
     estimated scf accuracy    <       0.00044596 Ry

     iteration # 15     ecut=    77.00 Ry     beta= 0.20
     Davidson diagonalization with overlap
     c_bands:  5 eigenvalues not converged
     ethr =  3.47E-08,  avg # of iterations = 15.5

     negative rho (up, down):  8.030E-04 0.000E+00

     total cpu time spent up to now is     7817.8 secs

     total energy              =  -24869.00747192 Ry
     estimated scf accuracy    <       0.00009694 Ry

     iteration # 16     ecut=    77.00 Ry     beta= 0.20
     Davidson diagonalization with overlap
     c_bands:  1 eigenvalues not converged
     c_bands:  2 eigenvalues not converged
     ethr =  7.55E-09,  avg # of iterations = 18.2

     negative rho (up, down):  8.339E-04 0.000E+00

     total cpu time spent up to now is     8352.3 secs

     total energy              =  -24869.00752515 Ry
     estimated scf accuracy    <       0.00004899 Ry

     iteration # 17     ecut=    77.00 Ry     beta= 0.20
     Davidson diagonalization with overlap
     c_bands:  3 eigenvalues not converged
     c_bands:  2 eigenvalues not converged
     ethr =  3.82E-09,  avg # of iterations = 17.0

     negative rho (up, down):  8.326E-04 0.000E+00

     total cpu time spent up to now is     8894.7 secs

     total energy              =  -24869.00755536 Ry
     estimated scf accuracy    <       0.00004833 Ry

     iteration # 18     ecut=    77.00 Ry     beta= 0.20
     Davidson diagonalization with overlap
     c_bands:  3 eigenvalues not converged
     ethr =  3.76E-09,  avg # of iterations =  9.5

     negative rho (up, down):  8.298E-04 0.000E+00

     total cpu time spent up to now is     9144.8 secs

     total energy              =  -24869.00755028 Ry
     estimated scf accuracy    <       0.00001439 Ry

     iteration # 19     ecut=    77.00 Ry     beta= 0.20
     Davidson diagonalization with overlap
     c_bands:  1 eigenvalues not converged
     c_bands:  5 eigenvalues not converged
     c_bands:  1 eigenvalues not converged
     ethr =  1.12E-09,  avg # of iterations = 34.2

     negative rho (up, down):  8.275E-04 0.000E+00

     total cpu time spent up to now is     9784.7 secs

     total energy              =  -24869.00756179 Ry
     estimated scf accuracy    <       0.00000122 Ry

     iteration # 20     ecut=    77.00 Ry     beta= 0.20
     Davidson diagonalization with overlap
     c_bands:  2 eigenvalues not converged
     c_bands:  4 eigenvalues not converged
     c_bands:  3 eigenvalues not converged
     ethr =  9.48E-11,  avg # of iterations = 19.2

     negative rho (up, down):  8.285E-04 0.000E+00

     total cpu time spent up to now is    10908.0 secs

     total energy              =  -24869.00756383 Ry
     estimated scf accuracy    <       0.00000961 Ry

     iteration # 21     ecut=    77.00 Ry     beta= 0.20
     Davidson diagonalization with overlap
     c_bands:  5 eigenvalues not converged
     ethr =  9.48E-11,  avg # of iterations = 12.0

     negative rho (up, down):  8.298E-04 0.000E+00

     total cpu time spent up to now is    11217.5 secs

     total energy              =  -24869.00756005 Ry
     estimated scf accuracy    <       0.00000451 Ry

     iteration # 22     ecut=    77.00 Ry     beta= 0.20
     Davidson diagonalization with overlap
     ethr =  9.48E-11,  avg # of iterations = 14.0

     negative rho (up, down):  8.269E-04 0.000E+00

     total cpu time spent up to now is    11781.0 secs

     End of self-consistent calculation

          k = 0.0000 0.0000 0.0000 (321495 PWs)   bands (ev):

   -88.7184 -86.7744 -66.5661 -66.5451 -66.5450 -66.5450 -66.5450 -66.5450
   -66.5450 -66.5239 -66.5239 -66.5239 -66.5238 -66.5238 -66.5238 -66.5238
   -66.5238 -66.5238 -66.5003 -66.4796 -66.4796 -66.4793 -66.4790 -66.4790
   -66.4790 -66.4586 -66.4583 -66.4583 -66.4583 -66.4580 -66.4580 -66.4577
   -66.4577 -66.4576 -66.4349 -66.4204 -66.4166 -66.4166 -66.4080 -66.4080
   -66.3987 -66.3987 -66.3986 -66.3973 -66.3792 -66.3791 -66.3739 -66.3705
   -66.3705 -66.3676 -54.5760 -54.4624 -54.4624 -52.7541 -52.5380 -52.5380
   -40.8926 -40.8926 -40.8926 -40.8258 -40.8256 -40.8255 -40.8178 -40.8178
   -40.8178 -40.8178 -40.8178 -40.8178 -40.7544 -40.7544 -40.7517 -40.7511
   -40.7511 -40.7509 -40.7508 -40.7507 -40.7507 -40.7263 -40.6922 -40.6922
   -40.6922 -40.6922 -40.6922 -40.6922 -40.6849 -40.6848 -40.6848 -40.6848
   -40.6848 -40.6848 -40.6848 -40.6814 -40.6748 -40.6748 -40.6675 -40.6675
   -40.6609 -40.6574 -40.6574 -40.6574 -40.6574 -40.6574 -40.6574 -40.6432
   -40.6432 -40.6431 -40.6431 -40.6431 -40.6431 -40.6431 -40.6431 -40.6431
   -40.6257 -40.6255 -40.6255 -40.6254 -40.6254 -40.6252 -40.6198 -40.6198
   -40.6196 -40.6194 -40.6193 -40.6193 -40.5983 -40.5908 -40.5908 -40.5906
   -40.5906 -40.5906 -40.5905 -40.5796 -40.5796 -40.5796 -40.5784 -40.5781
   -40.5781 -40.5781 -40.5780 -40.5780 -40.5776 -40.5776 -40.5774 -40.5686
   -40.5616 -40.5598 -40.5591 -40.5590 -40.5565 -40.5565 -40.5485 -40.5485
   -40.5470 -40.5470 -40.5331 -40.5328 -40.5328 -40.5328 -40.5328 -40.5327
   -40.5327 -40.5286 -40.5209 -40.5202 -40.5202 -40.5175 -40.5150 -40.5137
   -40.5137 -40.5130 -40.5129 -40.5129 -40.5115 -40.5115 -40.5036 -40.5036
   -40.5026 -40.5026 -40.5001 -40.4855 -40.4855 -40.4665 -40.4662 -40.4662
   -40.4660 -40.4660 -40.4659 -40.4400 -40.4397 -40.4397 -40.4189 -40.4189
   -40.3900 -40.3899 -40.3899 -40.3892 -40.3892 -40.3845 -40.3385 -40.3384
   -19.9986 -19.8844 -19.7601 -19.1350 -19.1332 -19.1332 -19.1315 -19.1311
   -19.1311 -19.0563 -19.0437 -19.0437 -19.0188 -19.0170 -19.0170 -18.9418
   -18.9352 -18.9352 -18.8913 -18.8905 -18.8905 -18.7447 -18.5655 -18.3980
   -18.3642 -18.3642 -18.3419 -18.3336 -18.3336 -18.3336 -18.2432 -18.2431
   -18.2272 -18.1811 -18.1795 -18.1795 -18.0987 -18.0987 -18.0818 -18.0437
   -18.0407 -18.0407 -18.0261 -18.0261 -18.0259 -18.0259 -18.0255 -18.0255
   -17.9856 -17.9856 -17.9855 -17.9786 -17.9786 -17.9508 -17.9477 -17.9454
   -17.9454 -17.9342 -17.9342 -17.9135 -17.9129 -17.9129 -17.8690 -17.8589
   -17.8579 -17.8579 -17.8461 -17.8461 -17.8420 -17.8245 -17.8245 -17.8132
   -17.8039 -17.8039 -17.7974 -17.7956 -17.7953 -17.7953 -17.7636 -17.7636
   -17.7541 -17.7385 -17.7385 -17.7248 -17.7236 -17.7226 -17.7226 -17.6964
   -17.6964 -17.6769 -17.6595 -17.6595 -17.6485 -17.6436 -17.6377 -17.6377
   -11.8148 -11.6510 -11.6428 -11.6428 -11.6194 -11.5746 -11.5746 -11.5453
   -11.5057 -11.5057 -11.4410 -11.1131 -11.0927 -11.0927 -11.0900 -11.0888
   -11.0888 -11.0417 -11.0163 -11.0163 -11.0146 -11.0134 -11.0134 -11.0108
   -10.9627 -10.9311 -10.9311 -10.8942 -10.8876 -10.8876 -10.8548 -10.8548
   -10.8539 -10.8090 -10.8041 -10.8041 -10.7964 -10.7941 -10.7941 -10.7897
   -10.7762 -10.7762 -10.7340 -10.7340 -10.7204 -10.7178 -10.7173 -10.7173
   -10.7135 -10.7135 -10.6965 -10.6895 -10.6895 -10.6850 -10.6717 -10.6682
   -10.6682 -10.6659 -10.6659 -10.6523 -10.6330 -10.6330 -10.6116 -10.6087
   -10.6069 -10.6069 -10.5437 -10.5208 -10.5207 -10.5080 -10.4908 -10.4908
   -10.4776 -10.4776 -10.4763 -10.0402 -10.0402  -9.9357  -9.9307  -9.9307
    -9.7993  -9.7705  -9.7705  -9.6763  -9.6615  -9.6615  -9.6574  -9.6559
    -9.6559  -9.6511  -9.5908  -9.5908  -9.5857  -9.5690  -9.5690  -9.5618
    -9.5541  -9.5541  -9.5516  -9.5092  -9.5072  -9.5072  -9.4998  -9.4982
    -9.4982  -9.4608  -9.4603  -9.4603  -9.4598  -9.4566  -9.4566  -9.4359
    -9.4284  -9.4171  -9.4171  -9.4000  -9.4000  -9.3892  -9.3820  -9.3819
    -9.3315  -9.3315  -9.3172  -9.3129  -9.3123  -9.3123  -9.2250  -9.2180
    -9.2180  -9.1961  -9.1961  -9.1863  -9.1657  -9.1657  -9.1117  -9.0924
    -9.0779  -9.0779  -9.0707  -9.0707  -9.0693  -9.0630  -9.0630  -9.0464
    -8.9310  -8.9202  -8.9047  -8.9047  -8.9043  -8.8992  -8.8992  -8.8925
    -8.8925  -8.8708  -8.8708  -8.8321  -8.8220  -8.8220  -8.7966  -8.7923
    -8.7508  -8.7508  -8.7359  -8.7285  -8.7285  -8.6838  -8.6838  -8.6834
    -8.6834  -8.6831  -8.6781  -8.6522  -8.6522  -8.6195  -8.6171  -8.6171
    -8.6011  -8.6010  -8.6001  -8.6001  -8.5667  -8.5550  -8.5550  -8.3328
    -8.3155  -8.3154  -8.2438  -8.2438  -8.2356  -8.2356  -8.2033  -8.2032
    -8.2032  -8.2032  -8.2030  -8.2030  -8.1540  -8.1540  -8.1343  -8.1324
    -8.1324  -8.1312  -8.1239  -8.1238  -8.0810  -8.0776  -8.0709  -8.0709
    -8.0525  -7.8909  -7.8909  -7.8443  -7.7888  -7.7888  -7.6078  -7.5768
    -7.5768  -7.5510  -7.4679  -7.4679  -7.4679  -7.4677  -7.4677  -7.4677
    -7.4221  -7.4216  -7.4216  -7.4210  -7.4210  -7.4210  -7.4065  -7.4065
    -7.3969  -7.3956  -7.3956  -7.3933  -7.3834  -7.3834  -7.3785  -7.3665
    -7.3665  -7.3522  -7.3501  -7.3501  -7.3468  -7.3452  -7.3452  -7.3364
    -7.3111  -7.3111  -7.3028  -7.3028  -7.3025  -7.3009  -7.3006  -7.2982
    -7.2982  -7.2873  -7.2580  -7.2580  -7.1980  -7.1865  -7.1865  -7.1213
    -7.1213  -7.1081  -7.1081  -7.0867  -7.0867  -7.0481  -7.0481  -7.0419
    -6.9893  -6.8886  -6.8886  -6.7937  -6.7937  -6.7391  -6.7327  -6.7327
    -6.7181  -6.6896  -6.6829  -6.6829  -6.6732  -6.5905  -6.5672  -6.5672
    -6.5229  -6.5229  -6.4963  -6.4963  -6.4947  -6.4919  -6.4843  -6.4705
    -6.4705  -6.4061  -6.4038  -6.4038  -6.3973  -6.3972  -6.3853  -6.3853
    -6.3834  -6.3720  -6.3369  -6.3369  -6.3161  -6.3063  -6.3063  -6.3056
    -6.3056  -6.3017  -6.2554  -6.2345  -6.2345  -6.2345  -6.2345  -6.2345
    -6.2345  -6.2191  -6.2190  -6.1924  -6.1613  -6.1613  -6.1576  -6.1575
    -6.1567  -6.1567  -6.1350  -6.1350  -6.0913  -6.0695  -6.0342  -6.0281
    -6.0281  -5.8502  -5.8501  -5.4253  -5.1933  -5.1933  -5.1075  -4.9713
    -4.9713  -4.9590  -4.5041  -3.7203  -3.7202  -3.7170  -3.7149  -3.7149
    -3.7017  -3.6845  -3.6845  -3.6841  -3.6822  -3.6821  -3.6748  -3.4833
    -3.4832  -3.4690  -3.4651  -3.4646  -3.4645  -3.4538  -3.4538  -3.4520
    -3.4498  -3.4498  -3.3771  -3.3752  -3.3751  -3.3751  -3.3600  -3.3574
    -3.3569  -3.3569  -3.3552  -3.3551  -3.3083  -3.3081  -3.3081  -3.2757
    -3.2596  -3.2593  -3.2593  -3.2520  -3.2520  -3.2509  -3.2509  -3.2419
    -3.2419  -3.2413  -3.2328  -3.2300  -3.2205  -3.2205  -3.1739  -3.1495
    -3.1488  -3.1487  -3.1381  -3.1378  -3.1239  -3.1169  -3.1169  -3.0982
    -3.0982  -3.0665  -2.9094  -2.9091  -2.9091  -2.9033  -2.9032  -2.8374
    -2.8373  -2.8368  -2.8364  -2.8362  -2.8359  -2.8357  -2.8354  -2.8158
    -2.8137  -2.8136  -2.7988  -2.7987  -2.7916  -2.7795  -2.7792  -2.7740
    -2.7737  -2.7722  -2.7663  -2.7648  -2.7635  -2.7631  -2.7531  -2.7530
    -2.7287  -2.7226  -2.7225  -2.6761  -2.6747  -2.6712  -2.6691  -2.6539
    -2.6491  -2.6485  -2.6378  -2.6223  -2.6181  -2.6148  -2.6111  -2.6080
    -2.6032  -2.5788  -2.5784  -2.5408  -2.5310  -2.5308  -2.5125  -2.5124
    -2.5025  -2.4965  -2.4946  -2.4152  -2.3674  -2.3542  -2.3492  -2.3399
    -2.3353  -2.3275

          k = 0.0000-0.5773 0.0000 (321564 PWs)   bands (ev):

   -88.7184 -86.7744 -66.5600 -66.5600 -66.5494 -66.5494 -66.5345 -66.5345
   -66.5345 -66.5345 -66.5301 -66.5301 -66.5239 -66.5239 -66.5238 -66.5238
   -66.5195 -66.5194 -66.4943 -66.4940 -66.4837 -66.4836 -66.4688 -66.4688
   -66.4686 -66.4684 -66.4644 -66.4641 -66.4582 -66.4582 -66.4582 -66.4576
   -66.4537 -66.4536 -66.4317 -66.4277 -66.4176 -66.4128 -66.4069 -66.4056
   -66.4015 -66.4001 -66.3987 -66.3949 -66.3794 -66.3790 -66.3735 -66.3717
   -66.3710 -66.3666 -54.5760 -54.4624 -54.4624 -52.7541 -52.5380 -52.5380
   -40.8612 -40.8612 -40.8612 -40.8612 -40.8345 -40.8345 -40.8226 -40.8226
   -40.7944 -40.7943 -40.7943 -40.7940 -40.7722 -40.7722 -40.7722 -40.7722
   -40.7677 -40.7675 -40.7557 -40.7556 -40.7345 -40.7240 -40.7188 -40.7142
   -40.7141 -40.7071 -40.7054 -40.7053 -40.7053 -40.7053 -40.7042 -40.7042
   -40.7020 -40.6991 -40.6934 -40.6934 -40.6823 -40.6664 -40.6640 -40.6640
   -40.6640 -40.6640 -40.6553 -40.6553 -40.6490 -40.6488 -40.6432 -40.6432
   -40.6431 -40.6431 -40.6431 -40.6431 -40.6375 -40.6375 -40.6345 -40.6345
   -40.6313 -40.6295 -40.6286 -40.6282 -40.6281 -40.6214 -40.6125 -40.6125
   -40.6125 -40.6125 -40.5989 -40.5989 -40.5986 -40.5986 -40.5902 -40.5900
   -40.5878 -40.5852 -40.5781 -40.5780 -40.5780 -40.5780 -40.5780 -40.5780
   -40.5780 -40.5775 -40.5765 -40.5765 -40.5703 -40.5693 -40.5693 -40.5659
   -40.5659 -40.5631 -40.5624 -40.5577 -40.5467 -40.5467 -40.5460 -40.5459
   -40.5459 -40.5458 -40.5455 -40.5363 -40.5351 -40.5309 -40.5298 -40.5298
   -40.5283 -40.5202 -40.5195 -40.5115 -40.5114 -40.5113 -40.5113 -40.5112
   -40.5099 -40.5064 -40.5035 -40.5031 -40.5000 -40.4994 -40.4994 -40.4994
   -40.4992 -40.4961 -40.4803 -40.4799 -40.4768 -40.4731 -40.4723 -40.4673
   -40.4633 -40.4632 -40.4399 -40.4346 -40.4329 -40.4326 -40.4326 -40.4310
   -40.4291 -40.4133 -40.4077 -40.4030 -40.3847 -40.3772 -40.3621 -40.3464
   -19.7627 -19.7615 -19.6584 -19.6433 -19.5389 -19.5151 -19.3273 -19.3272
   -19.2213 -19.2202 -19.1045 -19.1044 -18.6500 -18.6396 -18.6208 -18.6187
   -18.6185 -18.6179 -18.5595 -18.5561 -18.5315 -18.5145 -18.4932 -18.4783
   -18.4686 -18.4297 -18.4271 -18.4194 -18.4132 -18.3982 -18.3710 -18.3705
   -18.3160 -18.3038 -18.2799 -18.2776 -18.2735 -18.2627 -18.2250 -18.1732
   -18.1514 -18.1336 -18.1024 -18.0993 -18.0936 -18.0917 -18.0248 -18.0212
   -18.0063 -18.0061 -18.0061 -18.0057 -17.9867 -17.9824 -17.9801 -17.9687
   -17.9384 -17.9329 -17.9325 -17.9304 -17.9193 -17.9154 -17.8869 -17.8800
   -17.8735 -17.8591 -17.8525 -17.8524 -17.8501 -17.8483 -17.8170 -17.8138
   -17.8049 -17.8030 -17.8029 -17.7872 -17.7564 -17.7448 -17.7426 -17.7426
   -17.7380 -17.7371 -17.6906 -17.6835 -17.6829 -17.6744 -17.6673 -17.6664
   -17.6607 -17.6594 -17.6278 -17.6248 -17.6113 -17.6000 -17.5623 -17.5534
   -11.5605 -11.5520 -11.4148 -11.3551 -11.3537 -11.3533 -11.3491 -11.3335
   -11.3287 -11.2909 -11.2791 -11.2704 -11.2689 -11.2443 -11.2287 -11.2181
   -11.2026 -11.1841 -11.1768 -11.1754 -11.1598 -11.1594 -11.1486 -11.1354
   -11.1354 -11.1038 -11.0902 -11.0897 -11.0762 -11.0414 -11.0331 -11.0296
   -11.0294 -11.0288 -10.8959 -10.8634 -10.8524 -10.8519 -10.8389 -10.8264
   -10.7961 -10.7930 -10.7757 -10.7629 -10.7474 -10.7417 -10.7197 -10.7122
   -10.7107 -10.7090 -10.7075 -10.7020 -10.6952 -10.6807 -10.6793 -10.6630
   -10.6616 -10.6480 -10.6468 -10.6429 -10.6229 -10.5947 -10.5939 -10.5524
   -10.4458 -10.4354 -10.3750 -10.3689 -10.2898 -10.2513 -10.1996 -10.1614
   -10.1103 -10.0331 -10.0047 -10.0010  -9.9924  -9.9885  -9.9189  -9.9049
    -9.9008  -9.8833  -9.8188  -9.8155  -9.8141  -9.8138  -9.8107  -9.8080
    -9.7867  -9.7791  -9.7717  -9.7696  -9.7588  -9.7540  -9.6803  -9.6687
    -9.6662  -9.6331  -9.6318  -9.6270  -9.6246  -9.6010  -9.5953  -9.5875
    -9.5858  -9.5753  -9.5373  -9.5257  -9.5218  -9.5129  -9.5094  -9.4905
    -9.4897  -9.4874  -9.4846  -9.4712  -9.4194  -9.4070  -9.4045  -9.3782
    -9.3690  -9.3471  -9.3466  -9.3453  -9.2966  -9.2951  -9.1963  -9.1812
    -9.1337  -9.1249  -9.0724  -9.0458  -9.0280  -9.0221  -9.0219  -9.0091
    -9.0067  -9.0028  -9.0019  -8.9945  -8.9547  -8.9199  -8.9108  -8.9068
    -8.8838  -8.8831  -8.8754  -8.8573  -8.8532  -8.8412  -8.8338  -8.8321
    -8.8210  -8.8145  -8.8096  -8.8091  -8.8090  -8.7969  -8.7864  -8.7757
    -8.7625  -8.7538  -8.7396  -8.7337  -8.7291  -8.7182  -8.7180  -8.7109
    -8.7021  -8.6999  -8.6887  -8.6784  -8.6726  -8.6689  -8.6551  -8.6463
    -8.6398  -8.6236  -8.6092  -8.6078  -8.5806  -8.5717  -8.4138  -8.3913
    -8.3893  -8.3476  -8.3235  -8.3050  -8.2775  -8.2760  -8.1228  -8.1213
    -8.0718  -8.0718  -8.0697  -8.0005  -7.9997  -7.9542  -7.9461  -7.9336
    -7.8630  -7.8117  -7.8113  -7.7739  -7.7572  -7.7421  -7.7415  -7.7296
    -7.7260  -7.7251  -7.7251  -7.7244  -7.7166  -7.7116  -7.6977  -7.6791
    -7.6790  -7.6785  -7.6768  -7.6557  -7.6557  -7.6458  -7.6375  -7.6368
    -7.6339  -7.6117  -7.6105  -7.6078  -7.6050  -7.5920  -7.5874  -7.5732
    -7.5710  -7.5698  -7.5647  -7.5616  -7.5536  -7.5398  -7.5398  -7.5328
    -7.5259  -7.5227  -7.5133  -7.4947  -7.4878  -7.4710  -7.4706  -7.4701
    -7.4563  -7.4503  -7.4324  -7.4087  -7.4069  -7.3762  -7.3485  -7.3332
    -7.3221  -7.2406  -7.1927  -7.1341  -7.1239  -7.1187  -7.1106  -7.0737
    -7.0557  -7.0076  -6.9998  -6.9934  -6.9607  -6.9540  -6.9118  -6.8947
    -6.8890  -6.8793  -6.8495  -6.8398  -6.8205  -6.8170  -6.8133  -6.8053
    -6.7799  -6.7774  -6.7387  -6.7177  -6.7087  -6.7053  -6.6833  -6.6426
    -6.5956  -6.5721  -6.5544  -6.5368  -6.5367  -6.5367  -6.5366  -6.5153
    -6.4996  -6.4782  -6.4699  -6.4698  -6.4669  -6.4646  -6.4551  -6.4179
    -6.4002  -6.3863  -6.3829  -6.3735  -6.3312  -6.3005  -6.2702  -6.2056
    -6.2054  -6.2052  -6.2052  -6.1604  -6.1407  -6.1382  -6.1278  -6.1258
    -6.1254  -6.1184  -6.0862  -6.0767  -6.0659  -6.0471  -6.0447  -6.0429
    -6.0352  -5.8824  -5.8566  -5.8566  -5.8498  -5.7812  -5.7812  -5.7014
    -5.7012  -5.6396  -5.6131  -5.4526  -5.4324  -5.1935  -5.1935  -4.9918
    -4.9666  -4.9666  -4.4943  -3.8975  -3.8962  -3.8893  -3.8798  -3.7721
    -3.7720  -3.7528  -3.7439  -3.7076  -3.7074  -3.6509  -3.6497  -3.6415
    -3.6349  -3.6304  -3.6060  -3.5540  -3.5275  -3.4752  -3.4742  -3.4725
    -3.4715  -3.4578  -3.4576  -3.4215  -3.4199  -3.4134  -3.3892  -3.3822
    -3.3783  -3.3684  -3.3579  -3.3529  -3.3475  -3.3459  -3.3417  -3.3407
    -3.3198  -3.2988  -3.2846  -3.2409  -3.2382  -3.2337  -3.2251  -3.2249
    -3.2239  -3.1963  -3.1957  -3.1876  -3.1858  -3.1541  -3.1487  -3.1486
    -3.1482  -3.1474  -3.1374  -3.1228  -3.1147  -3.1127  -3.1103  -3.0866
    -3.0818  -3.0816  -3.0768  -3.0714  -3.0652  -3.0635  -3.0348  -2.9967
    -2.9965  -2.9919  -2.9798  -2.9720  -2.9658  -2.9457  -2.9439  -2.9067
    -2.9048  -2.9014  -2.8854  -2.8853  -2.8849  -2.8847  -2.8792  -2.8538
    -2.8425  -2.8367  -2.8357  -2.8218  -2.8094  -2.7973  -2.7957  -2.7911
    -2.7895  -2.7723  -2.7588  -2.7581  -2.7440  -2.7417  -2.7338  -2.7284
    -2.7120  -2.6975  -2.6913  -2.6787  -2.6762  -2.6751  -2.6734  -2.6069
    -2.5987  -2.5778  -2.5662  -2.5225  -2.5224  -2.5112  -2.5085  -2.5007
    -2.4996  -2.4415  -2.4383  -2.3775  -2.3765  -2.3647  -2.3569  -2.3559
    -2.3401  -2.2085

          k =-0.5000-0.2887 0.0000 (321564 PWs)   bands (ev):

   -88.7184 -86.7744 -66.5600 -66.5600 -66.5494 -66.5494 -66.5345 -66.5345
   -66.5345 -66.5344 -66.5301 -66.5301 -66.5239 -66.5239 -66.5238 -66.5238
   -66.5195 -66.5194 -66.4943 -66.4940 -66.4837 -66.4836 -66.4688 -66.4688
   -66.4686 -66.4684 -66.4644 -66.4641 -66.4582 -66.4582 -66.4581 -66.4576
   -66.4537 -66.4536 -66.4317 -66.4277 -66.4176 -66.4128 -66.4069 -66.4056
   -66.4015 -66.4001 -66.3987 -66.3949 -66.3794 -66.3791 -66.3735 -66.3717
   -66.3710 -66.3666 -54.5760 -54.4624 -54.4624 -52.7541 -52.5380 -52.5380
   -40.8612 -40.8612 -40.8612 -40.8612 -40.8345 -40.8345 -40.8226 -40.8226
   -40.7944 -40.7943 -40.7943 -40.7940 -40.7722 -40.7722 -40.7722 -40.7722
   -40.7677 -40.7675 -40.7557 -40.7556 -40.7345 -40.7240 -40.7188 -40.7142
   -40.7141 -40.7071 -40.7054 -40.7053 -40.7053 -40.7053 -40.7042 -40.7042
   -40.7020 -40.6991 -40.6934 -40.6934 -40.6823 -40.6664 -40.6640 -40.6640
   -40.6640 -40.6640 -40.6553 -40.6553 -40.6490 -40.6487 -40.6432 -40.6432
   -40.6431 -40.6431 -40.6431 -40.6431 -40.6376 -40.6375 -40.6345 -40.6345
   -40.6313 -40.6295 -40.6286 -40.6282 -40.6281 -40.6214 -40.6125 -40.6125
   -40.6125 -40.6125 -40.5989 -40.5989 -40.5987 -40.5986 -40.5902 -40.5900
   -40.5878 -40.5852 -40.5781 -40.5780 -40.5780 -40.5780 -40.5780 -40.5780
   -40.5780 -40.5775 -40.5765 -40.5765 -40.5703 -40.5693 -40.5693 -40.5659
   -40.5659 -40.5631 -40.5624 -40.5577 -40.5467 -40.5467 -40.5460 -40.5459
   -40.5459 -40.5458 -40.5455 -40.5363 -40.5351 -40.5309 -40.5298 -40.5298
   -40.5283 -40.5202 -40.5195 -40.5115 -40.5114 -40.5113 -40.5113 -40.5112
   -40.5099 -40.5064 -40.5035 -40.5031 -40.5000 -40.4994 -40.4994 -40.4994
   -40.4992 -40.4961 -40.4803 -40.4799 -40.4768 -40.4731 -40.4723 -40.4673
   -40.4633 -40.4632 -40.4399 -40.4346 -40.4329 -40.4326 -40.4326 -40.4310
   -40.4291 -40.4133 -40.4078 -40.4030 -40.3847 -40.3772 -40.3621 -40.3464
   -19.7627 -19.7615 -19.6583 -19.6433 -19.5389 -19.5151 -19.3273 -19.3272
   -19.2213 -19.2202 -19.1045 -19.1044 -18.6500 -18.6396 -18.6208 -18.6187
   -18.6185 -18.6179 -18.5595 -18.5562 -18.5315 -18.5145 -18.4932 -18.4783
   -18.4687 -18.4297 -18.4271 -18.4194 -18.4132 -18.3982 -18.3710 -18.3705
   -18.3160 -18.3038 -18.2799 -18.2776 -18.2735 -18.2627 -18.2250 -18.1732
   -18.1514 -18.1336 -18.1024 -18.0993 -18.0936 -18.0917 -18.0248 -18.0212
   -18.0063 -18.0061 -18.0061 -18.0057 -17.9867 -17.9824 -17.9801 -17.9687
   -17.9385 -17.9329 -17.9325 -17.9304 -17.9193 -17.9154 -17.8869 -17.8800
   -17.8735 -17.8591 -17.8525 -17.8524 -17.8501 -17.8483 -17.8170 -17.8138
   -17.8049 -17.8030 -17.8029 -17.7872 -17.7564 -17.7448 -17.7426 -17.7426
   -17.7380 -17.7371 -17.6906 -17.6835 -17.6829 -17.6744 -17.6673 -17.6664
   -17.6607 -17.6594 -17.6278 -17.6248 -17.6113 -17.6000 -17.5623 -17.5534
   -11.5605 -11.5520 -11.4147 -11.3551 -11.3537 -11.3533 -11.3491 -11.3335
   -11.3287 -11.2909 -11.2791 -11.2704 -11.2689 -11.2443 -11.2287 -11.2181
   -11.2026 -11.1841 -11.1768 -11.1754 -11.1598 -11.1594 -11.1486 -11.1354
   -11.1354 -11.1038 -11.0902 -11.0897 -11.0762 -11.0414 -11.0331 -11.0296
   -11.0294 -11.0288 -10.8959 -10.8634 -10.8524 -10.8519 -10.8389 -10.8264
   -10.7961 -10.7930 -10.7757 -10.7629 -10.7474 -10.7417 -10.7197 -10.7122
   -10.7107 -10.7090 -10.7075 -10.7020 -10.6952 -10.6807 -10.6793 -10.6630
   -10.6616 -10.6480 -10.6467 -10.6429 -10.6229 -10.5947 -10.5939 -10.5524
   -10.4458 -10.4354 -10.3750 -10.3689 -10.2898 -10.2513 -10.1996 -10.1614
   -10.1103 -10.0331 -10.0047 -10.0010  -9.9924  -9.9885  -9.9189  -9.9049
    -9.9008  -9.8833  -9.8188  -9.8155  -9.8141  -9.8138  -9.8107  -9.8080
    -9.7867  -9.7791  -9.7717  -9.7696  -9.7588  -9.7540  -9.6803  -9.6687
    -9.6662  -9.6331  -9.6318  -9.6270  -9.6246  -9.6010  -9.5953  -9.5875
    -9.5858  -9.5753  -9.5373  -9.5257  -9.5218  -9.5129  -9.5094  -9.4905
    -9.4897  -9.4874  -9.4846  -9.4712  -9.4194  -9.4070  -9.4045  -9.3782
    -9.3690  -9.3471  -9.3466  -9.3453  -9.2966  -9.2951  -9.1963  -9.1812
    -9.1337  -9.1249  -9.0724  -9.0458  -9.0280  -9.0221  -9.0219  -9.0091
    -9.0067  -9.0028  -9.0019  -8.9945  -8.9547  -8.9199  -8.9108  -8.9068
    -8.8838  -8.8830  -8.8754  -8.8573  -8.8532  -8.8412  -8.8338  -8.8321
    -8.8210  -8.8145  -8.8096  -8.8091  -8.8090  -8.7969  -8.7864  -8.7757
    -8.7625  -8.7537  -8.7396  -8.7337  -8.7291  -8.7182  -8.7180  -8.7109
    -8.7021  -8.6999  -8.6887  -8.6784  -8.6726  -8.6689  -8.6552  -8.6464
    -8.6398  -8.6236  -8.6092  -8.6078  -8.5807  -8.5717  -8.4138  -8.3913
    -8.3893  -8.3476  -8.3235  -8.3050  -8.2775  -8.2760  -8.1228  -8.1213
    -8.0719  -8.0718  -8.0697  -8.0005  -7.9997  -7.9542  -7.9461  -7.9336
    -7.8630  -7.8117  -7.8113  -7.7739  -7.7572  -7.7421  -7.7415  -7.7296
    -7.7260  -7.7251  -7.7251  -7.7244  -7.7166  -7.7116  -7.6977  -7.6791
    -7.6790  -7.6785  -7.6768  -7.6557  -7.6557  -7.6458  -7.6375  -7.6368
    -7.6339  -7.6117  -7.6105  -7.6077  -7.6049  -7.5920  -7.5874  -7.5732
    -7.5710  -7.5698  -7.5647  -7.5617  -7.5536  -7.5399  -7.5398  -7.5328
    -7.5259  -7.5227  -7.5133  -7.4947  -7.4878  -7.4710  -7.4706  -7.4701
    -7.4563  -7.4503  -7.4324  -7.4087  -7.4069  -7.3762  -7.3485  -7.3332
    -7.3221  -7.2406  -7.1927  -7.1341  -7.1239  -7.1187  -7.1106  -7.0737
    -7.0557  -7.0076  -6.9998  -6.9933  -6.9607  -6.9540  -6.9118  -6.8947
    -6.8891  -6.8793  -6.8495  -6.8398  -6.8205  -6.8170  -6.8133  -6.8053
    -6.7800  -6.7774  -6.7387  -6.7177  -6.7087  -6.7053  -6.6833  -6.6426
    -6.5956  -6.5721  -6.5544  -6.5368  -6.5367  -6.5367  -6.5367  -6.5154
    -6.4996  -6.4782  -6.4699  -6.4698  -6.4669  -6.4646  -6.4551  -6.4179
    -6.4002  -6.3863  -6.3829  -6.3735  -6.3312  -6.3005  -6.2702  -6.2056
    -6.2054  -6.2052  -6.2052  -6.1604  -6.1407  -6.1382  -6.1278  -6.1257
    -6.1254  -6.1184  -6.0862  -6.0767  -6.0659  -6.0471  -6.0447  -6.0429
    -6.0353  -5.8823  -5.8566  -5.8566  -5.8498  -5.7812  -5.7812  -5.7014
    -5.7012  -5.6396  -5.6131  -5.4526  -5.4324  -5.1935  -5.1935  -4.9918
    -4.9667  -4.9666  -4.4943  -3.8975  -3.8962  -3.8894  -3.8799  -3.7722
    -3.7722  -3.7528  -3.7439  -3.7076  -3.7074  -3.6509  -3.6498  -3.6416
    -3.6351  -3.6305  -3.6061  -3.5541  -3.5276  -3.4752  -3.4742  -3.4726
    -3.4714  -3.4578  -3.4577  -3.4216  -3.4200  -3.4134  -3.3892  -3.3823
    -3.3784  -3.3685  -3.3580  -3.3529  -3.3477  -3.3460  -3.3417  -3.3409
    -3.3199  -3.2988  -3.2845  -3.2410  -3.2384  -3.2338  -3.2253  -3.2251
    -3.2241  -3.1964  -3.1956  -3.1880  -3.1858  -3.1541  -3.1489  -3.1487
    -3.1484  -3.1476  -3.1375  -3.1230  -3.1150  -3.1130  -3.1104  -3.0867
    -3.0820  -3.0817  -3.0770  -3.0716  -3.0653  -3.0637  -3.0350  -2.9967
    -2.9966  -2.9920  -2.9800  -2.9723  -2.9657  -2.9459  -2.9440  -2.9067
    -2.9049  -2.9016  -2.8855  -2.8854  -2.8850  -2.8847  -2.8789  -2.8540
    -2.8427  -2.8369  -2.8359  -2.8219  -2.8096  -2.7972  -2.7956  -2.7912
    -2.7893  -2.7723  -2.7587  -2.7581  -2.7439  -2.7415  -2.7336  -2.7283
    -2.7117  -2.6977  -2.6915  -2.6795  -2.6765  -2.6760  -2.6747  -2.6076
    -2.6019  -2.5794  -2.5696  -2.5225  -2.5224  -2.5112  -2.5085  -2.5006
    -2.4995  -2.4415  -2.4384  -2.3778  -2.3766  -2.3648  -2.3569  -2.3563
    -2.3402  -2.2245

          k =-0.5000-0.8660 0.0000 (321564 PWs)   bands (ev):

   -88.7184 -86.7744 -66.5600 -66.5600 -66.5494 -66.5494 -66.5345 -66.5345
   -66.5345 -66.5344 -66.5301 -66.5301 -66.5239 -66.5238 -66.5238 -66.5238
   -66.5195 -66.5194 -66.4943 -66.4940 -66.4837 -66.4836 -66.4688 -66.4688
   -66.4686 -66.4684 -66.4644 -66.4641 -66.4582 -66.4582 -66.4581 -66.4576
   -66.4537 -66.4536 -66.4317 -66.4277 -66.4176 -66.4128 -66.4069 -66.4056
   -66.4015 -66.4001 -66.3987 -66.3949 -66.3794 -66.3791 -66.3735 -66.3717
   -66.3710 -66.3666 -54.5760 -54.4624 -54.4624 -52.7541 -52.5380 -52.5380
   -40.8612 -40.8612 -40.8612 -40.8612 -40.8345 -40.8345 -40.8226 -40.8226
   -40.7944 -40.7943 -40.7943 -40.7940 -40.7722 -40.7722 -40.7722 -40.7722
   -40.7677 -40.7675 -40.7557 -40.7556 -40.7344 -40.7240 -40.7188 -40.7142
   -40.7141 -40.7071 -40.7054 -40.7053 -40.7053 -40.7053 -40.7042 -40.7042
   -40.7020 -40.6991 -40.6934 -40.6934 -40.6823 -40.6663 -40.6640 -40.6640
   -40.6640 -40.6640 -40.6553 -40.6553 -40.6490 -40.6488 -40.6432 -40.6432
   -40.6431 -40.6431 -40.6431 -40.6431 -40.6375 -40.6375 -40.6345 -40.6345
   -40.6313 -40.6295 -40.6286 -40.6282 -40.6281 -40.6214 -40.6125 -40.6125
   -40.6125 -40.6125 -40.5989 -40.5989 -40.5987 -40.5986 -40.5902 -40.5900
   -40.5878 -40.5852 -40.5781 -40.5780 -40.5780 -40.5780 -40.5780 -40.5780
   -40.5780 -40.5775 -40.5765 -40.5765 -40.5703 -40.5693 -40.5693 -40.5659
   -40.5659 -40.5631 -40.5624 -40.5577 -40.5467 -40.5467 -40.5460 -40.5459
   -40.5459 -40.5458 -40.5455 -40.5363 -40.5351 -40.5309 -40.5298 -40.5298
   -40.5283 -40.5202 -40.5195 -40.5115 -40.5114 -40.5114 -40.5113 -40.5112
   -40.5099 -40.5064 -40.5035 -40.5031 -40.5000 -40.4994 -40.4994 -40.4994
   -40.4992 -40.4961 -40.4803 -40.4799 -40.4768 -40.4731 -40.4723 -40.4673
   -40.4633 -40.4632 -40.4399 -40.4346 -40.4329 -40.4326 -40.4326 -40.4309
   -40.4291 -40.4133 -40.4078 -40.4030 -40.3847 -40.3772 -40.3621 -40.3464
   -19.7627 -19.7615 -19.6584 -19.6433 -19.5389 -19.5151 -19.3273 -19.3272
   -19.2213 -19.2202 -19.1045 -19.1044 -18.6500 -18.6396 -18.6208 -18.6187
   -18.6185 -18.6179 -18.5595 -18.5561 -18.5315 -18.5145 -18.4932 -18.4783
   -18.4687 -18.4297 -18.4271 -18.4194 -18.4132 -18.3982 -18.3710 -18.3705
   -18.3160 -18.3038 -18.2799 -18.2776 -18.2735 -18.2627 -18.2250 -18.1732
   -18.1514 -18.1336 -18.1024 -18.0993 -18.0936 -18.0917 -18.0248 -18.0212
   -18.0063 -18.0061 -18.0061 -18.0057 -17.9867 -17.9824 -17.9801 -17.9687
   -17.9385 -17.9329 -17.9325 -17.9304 -17.9193 -17.9154 -17.8869 -17.8800
   -17.8735 -17.8591 -17.8525 -17.8524 -17.8501 -17.8483 -17.8170 -17.8138
   -17.8049 -17.8030 -17.8029 -17.7872 -17.7564 -17.7448 -17.7426 -17.7426
   -17.7379 -17.7371 -17.6906 -17.6835 -17.6829 -17.6744 -17.6673 -17.6664
   -17.6607 -17.6594 -17.6278 -17.6248 -17.6113 -17.6000 -17.5623 -17.5534
   -11.5605 -11.5520 -11.4148 -11.3551 -11.3537 -11.3533 -11.3491 -11.3335
   -11.3287 -11.2909 -11.2791 -11.2704 -11.2689 -11.2443 -11.2287 -11.2181
   -11.2026 -11.1841 -11.1768 -11.1754 -11.1598 -11.1594 -11.1486 -11.1354
   -11.1354 -11.1038 -11.0902 -11.0897 -11.0762 -11.0414 -11.0331 -11.0296
   -11.0294 -11.0288 -10.8959 -10.8634 -10.8524 -10.8519 -10.8389 -10.8264
   -10.7961 -10.7930 -10.7757 -10.7629 -10.7474 -10.7417 -10.7197 -10.7122
   -10.7107 -10.7090 -10.7075 -10.7020 -10.6952 -10.6807 -10.6793 -10.6630
   -10.6616 -10.6480 -10.6468 -10.6429 -10.6229 -10.5947 -10.5939 -10.5524
   -10.4458 -10.4354 -10.3750 -10.3689 -10.2898 -10.2513 -10.1996 -10.1614
   -10.1103 -10.0331 -10.0047 -10.0010  -9.9924  -9.9885  -9.9189  -9.9049
    -9.9008  -9.8833  -9.8188  -9.8155  -9.8141  -9.8138  -9.8107  -9.8080
    -9.7867  -9.7791  -9.7717  -9.7696  -9.7588  -9.7540  -9.6803  -9.6687
    -9.6662  -9.6331  -9.6318  -9.6270  -9.6246  -9.6010  -9.5953  -9.5875
    -9.5858  -9.5753  -9.5373  -9.5257  -9.5218  -9.5129  -9.5094  -9.4905
    -9.4897  -9.4874  -9.4846  -9.4712  -9.4194  -9.4070  -9.4045  -9.3782
    -9.3690  -9.3471  -9.3466  -9.3453  -9.2966  -9.2951  -9.1963  -9.1812
    -9.1337  -9.1249  -9.0724  -9.0458  -9.0280  -9.0221  -9.0219  -9.0091
    -9.0067  -9.0028  -9.0019  -8.9945  -8.9547  -8.9199  -8.9108  -8.9068
    -8.8838  -8.8831  -8.8754  -8.8573  -8.8532  -8.8412  -8.8338  -8.8321
    -8.8210  -8.8145  -8.8096  -8.8091  -8.8090  -8.7969  -8.7864  -8.7757
    -8.7625  -8.7538  -8.7396  -8.7337  -8.7291  -8.7182  -8.7180  -8.7109
    -8.7021  -8.6999  -8.6887  -8.6784  -8.6726  -8.6689  -8.6551  -8.6463
    -8.6398  -8.6236  -8.6092  -8.6078  -8.5806  -8.5717  -8.4138  -8.3913
    -8.3893  -8.3476  -8.3235  -8.3050  -8.2775  -8.2760  -8.1228  -8.1213
    -8.0718  -8.0718  -8.0697  -8.0005  -7.9997  -7.9542  -7.9461  -7.9336
    -7.8630  -7.8117  -7.8113  -7.7739  -7.7572  -7.7421  -7.7415  -7.7296
    -7.7260  -7.7251  -7.7251  -7.7244  -7.7166  -7.7116  -7.6977  -7.6791
    -7.6790  -7.6785  -7.6768  -7.6557  -7.6557  -7.6458  -7.6375  -7.6368
    -7.6339  -7.6117  -7.6105  -7.6078  -7.6049  -7.5920  -7.5874  -7.5732
    -7.5710  -7.5699  -7.5647  -7.5617  -7.5536  -7.5398  -7.5398  -7.5328
    -7.5259  -7.5227  -7.5133  -7.4947  -7.4878  -7.4710  -7.4706  -7.4701
    -7.4564  -7.4503  -7.4324  -7.4086  -7.4069  -7.3762  -7.3485  -7.3332
    -7.3221  -7.2406  -7.1927  -7.1341  -7.1239  -7.1187  -7.1106  -7.0737
    -7.0557  -7.0076  -6.9998  -6.9934  -6.9607  -6.9540  -6.9118  -6.8947
    -6.8890  -6.8793  -6.8495  -6.8398  -6.8205  -6.8170  -6.8133  -6.8053
    -6.7799  -6.7774  -6.7387  -6.7177  -6.7087  -6.7053  -6.6833  -6.6426
    -6.5956  -6.5721  -6.5544  -6.5368  -6.5367  -6.5367  -6.5366  -6.5154
    -6.4996  -6.4782  -6.4699  -6.4698  -6.4669  -6.4646  -6.4551  -6.4179
    -6.4002  -6.3863  -6.3829  -6.3735  -6.3312  -6.3005  -6.2702  -6.2056
    -6.2054  -6.2052  -6.2052  -6.1604  -6.1407  -6.1382  -6.1278  -6.1258
    -6.1255  -6.1184  -6.0862  -6.0767  -6.0659  -6.0471  -6.0447  -6.0429
    -6.0352  -5.8824  -5.8566  -5.8566  -5.8498  -5.7812  -5.7812  -5.7014
    -5.7012  -5.6396  -5.6131  -5.4526  -5.4324  -5.1935  -5.1935  -4.9918
    -4.9667  -4.9666  -4.4943  -3.8975  -3.8962  -3.8893  -3.8798  -3.7722
    -3.7722  -3.7528  -3.7439  -3.7076  -3.7074  -3.6509  -3.6497  -3.6415
    -3.6350  -3.6305  -3.6060  -3.5541  -3.5276  -3.4752  -3.4742  -3.4726
    -3.4715  -3.4579  -3.4577  -3.4215  -3.4200  -3.4134  -3.3892  -3.3822
    -3.3784  -3.3684  -3.3581  -3.3528  -3.3476  -3.3459  -3.3417  -3.3408
    -3.3199  -3.2988  -3.2845  -3.2410  -3.2384  -3.2337  -3.2253  -3.2251
    -3.2241  -3.1964  -3.1954  -3.1879  -3.1858  -3.1538  -3.1488  -3.1487
    -3.1483  -3.1475  -3.1374  -3.1230  -3.1149  -3.1128  -3.1104  -3.0867
    -3.0819  -3.0817  -3.0769  -3.0716  -3.0653  -3.0636  -3.0350  -2.9966
    -2.9966  -2.9920  -2.9799  -2.9722  -2.9656  -2.9458  -2.9440  -2.9067
    -2.9049  -2.9015  -2.8854  -2.8854  -2.8850  -2.8847  -2.8790  -2.8539
    -2.8427  -2.8368  -2.8359  -2.8219  -2.8096  -2.7974  -2.7957  -2.7911
    -2.7894  -2.7722  -2.7588  -2.7581  -2.7440  -2.7417  -2.7339  -2.7284
    -2.7115  -2.6974  -2.6916  -2.6792  -2.6760  -2.6748  -2.6702  -2.6003
    -2.5909  -2.5682  -2.5223  -2.5220  -2.5111  -2.5082  -2.5007  -2.4997
    -2.4415  -2.4383  -2.3773  -2.3764  -2.3646  -2.3569  -2.3559  -2.3401
    -2.2240  -2.2032

     the Fermi energy is    -4.7153 ev

!    total energy              =  -24869.00756168 Ry
     total all-electron energy =   -485548.911058 Ry
     estimated scf accuracy    <       0.00000032 Ry
     smearing contrib. (-TS)   =      -0.00091555 Ry
     internal energy E=F+TS    =  -24869.00664613 Ry

     The total energy is F=E-TS. E is the sum of the following terms:
     one-electron contribution =  483157.73130206 Ry
     hartree contribution      = -241678.21307271 Ry
     xc contribution           =   -1489.80616720 Ry
     ewald contribution        = -249001.71375092 Ry
     DFT-D3 Dispersion         =      -3.99633617 Ry
     one-center paw contrib.   =  -15853.00862119 Ry

     convergence has been achieved in  22 iterations

     negative rho (up, down):  8.269E-04 0.000E+00

     Forces acting on atoms (cartesian axes, Ry/au):

     atom    1 type  1   force =    -0.00126835    0.00035041    0.00080161
     atom    2 type  1   force =    -0.00000068    0.00000834    0.00188808
     atom    3 type  1   force =    -0.00000115   -0.00001743   -0.00001842
     atom    4 type  2   force =     0.00000103    0.00000028   -0.00337847
     atom    5 type  2   force =     0.00000831    0.00000269   -0.00011166
     atom    6 type  2   force =     0.00024361   -0.00000317   -0.00009078
     atom    7 type  2   force =     0.00000241   -0.00000072    0.00155720
     atom    8 type  2   force =     0.00000154   -0.00000576    0.00007523
     atom    9 type  2   force =    -0.00056014    0.00006267    0.00029064
     atom   10 type  1   force =    -0.00032891   -0.00127514    0.00080343
     atom   11 type  1   force =     0.00000977    0.00000538    0.00188920
     atom   12 type  1   force =    -0.00001409    0.00000549   -0.00001674
     atom   13 type  2   force =    -0.00000175   -0.00000030   -0.00338048
     atom   14 type  2   force =    -0.00002018   -0.00001273   -0.00010218
     atom   15 type  2   force =     0.00011995    0.00021189   -0.00008948
     atom   16 type  2   force =    -0.00000037    0.00000005    0.00157902
     atom   17 type  2   force =    -0.00004646   -0.00002708    0.00005711
     atom   18 type  2   force =    -0.00022427   -0.00051617    0.00028897
     atom   19 type  1   force =     0.00010273   -0.00005834   -0.00037294
     atom   20 type  1   force =     0.00000614   -0.00000143    0.00188963
     atom   21 type  1   force =    -0.00000211   -0.00000454   -0.00005115
     atom   22 type  2   force =     0.00000046    0.00000001   -0.00337862
     atom   23 type  2   force =     0.00000828    0.00000630   -0.00011126
     atom   24 type  2   force =    -0.00000090   -0.00014985   -0.00007080
     atom   25 type  2   force =    -0.00000014    0.00000213    0.00155744
     atom   26 type  2   force =    -0.00000336    0.00000451    0.00007270
     atom   27 type  2   force =    -0.00000164    0.00003273    0.00003519
     atom   28 type  1   force =    -0.00000377    0.00012240   -0.00037096
     atom   29 type  1   force =     0.00000169   -0.00000034    0.00189183
     atom   30 type  1   force =    -0.00000347    0.00000199   -0.00005068
     atom   31 type  2   force =     0.00000016   -0.00000068   -0.00337770
     atom   32 type  2   force =     0.00000006    0.00000062   -0.00013323
     atom   33 type  2   force =    -0.00013115    0.00007435   -0.00006931
     atom   34 type  2   force =    -0.00000326   -0.00000234    0.00156699
     atom   35 type  2   force =     0.00000034   -0.00000064    0.00006780
     atom   36 type  2   force =     0.00002867   -0.00001757    0.00003109
     atom   37 type  1   force =     0.00126569    0.00035009    0.00080113
     atom   38 type  1   force =     0.00000131    0.00000609    0.00188757
     atom   39 type  1   force =    -0.00000305    0.00001977   -0.00007071
     atom   40 type  2   force =     0.00000081    0.00000070   -0.00337584
     atom   41 type  2   force =    -0.00001152    0.00000405   -0.00010963
     atom   42 type  2   force =     0.00000107    0.00030219   -0.00016225
     atom   43 type  2   force =     0.00000133    0.00000390    0.00156612
     atom   44 type  2   force =    -0.00000487   -0.00000436    0.00007026
     atom   45 type  2   force =     0.00000083    0.00037622   -0.00012424
     atom   46 type  1   force =    -0.00000206   -0.00000127    0.00807358
     atom   47 type  1   force =    -0.00000081    0.00000864    0.00188628
     atom   48 type  1   force =     0.00001444    0.00000603   -0.00000348
     atom   49 type  2   force =     0.00000247    0.00000010   -0.00337467
     atom   50 type  2   force =    -0.00000259    0.00000895   -0.00010112
     atom   51 type  2   force =     0.00009154    0.00005253   -0.00079352
     atom   52 type  2   force =     0.00000055    0.00000749    0.00156136
     atom   53 type  2   force =    -0.00000286   -0.00000526    0.00003394
     atom   54 type  2   force =     0.00431445    0.00249047    0.00129999
     atom   55 type  1   force =     0.00093766    0.00092288    0.00080053
     atom   56 type  1   force =     0.00000610   -0.00000465    0.00188751
     atom   57 type  1   force =     0.00001812   -0.00001628   -0.00007012
     atom   58 type  2   force =     0.00000077    0.00000113   -0.00337332
     atom   59 type  2   force =     0.00000840   -0.00000658   -0.00009952
     atom   60 type  2   force =     0.00026318   -0.00015007   -0.00016301
     atom   61 type  2   force =     0.00000707   -0.00000244    0.00156088
     atom   62 type  2   force =    -0.00000603    0.00000010    0.00003493
     atom   63 type  2   force =     0.00032756   -0.00018832   -0.00012302
     atom   64 type  1   force =     0.00002419    0.00001459    0.00018885
     atom   65 type  1   force =     0.00000332   -0.00000337    0.00188794
     atom   66 type  1   force =     0.00000102    0.00000243   -0.00005236
     atom   67 type  2   force =     0.00000085   -0.00000020   -0.00337483
     atom   68 type  2   force =    -0.00000219   -0.00001009   -0.00011063
     atom   69 type  2   force =     0.00013192    0.00007609   -0.00007023
     atom   70 type  2   force =     0.00000352   -0.00000157    0.00156627
     atom   71 type  2   force =    -0.00000636   -0.00000041    0.00007229
     atom   72 type  2   force =    -0.00002759   -0.00001595    0.00003383
     atom   73 type  1   force =    -0.00000969    0.00000534    0.00005713
     atom   74 type  1   force =    -0.00000293    0.00000009    0.00189240
     atom   75 type  1   force =     0.00000496   -0.00001717   -0.00002070
     atom   76 type  2   force =    -0.00000083    0.00000062   -0.00337655
     atom   77 type  2   force =     0.00004759    0.00002620   -0.00007733
     atom   78 type  2   force =    -0.00024267   -0.00000085   -0.00009125
     atom   79 type  2   force =    -0.00000278    0.00000027    0.00155579
     atom   80 type  2   force =    -0.00004175   -0.00002380    0.00012162
     atom   81 type  2   force =     0.00055865    0.00006341    0.00029605
     atom   82 type  1   force =     0.00032819   -0.00127150    0.00080323
     atom   83 type  1   force =    -0.00001088    0.00000289    0.00189197
     atom   84 type  1   force =    -0.00001431    0.00000968   -0.00000321
     atom   85 type  2   force =    -0.00000175   -0.00000126   -0.00337451
     atom   86 type  2   force =     0.00002043   -0.00001202   -0.00010244
     atom   87 type  2   force =    -0.00009032    0.00005242   -0.00079463
     atom   88 type  2   force =     0.00000070    0.00000723    0.00156274
     atom   89 type  2   force =     0.00004593   -0.00002741    0.00005733
     atom   90 type  2   force =    -0.00431548    0.00249305    0.00130660
     atom   91 type  1   force =    -0.00093466    0.00092477    0.00080267
     atom   92 type  1   force =    -0.00000770   -0.00000407    0.00188566
     atom   93 type  1   force =     0.00000217   -0.00001885   -0.00000418
     atom   94 type  2   force =     0.00000020   -0.00000047   -0.00337852
     atom   95 type  2   force =    -0.00001080   -0.00000532   -0.00010068
     atom   96 type  2   force =    -0.00000014   -0.00010364   -0.00079647
     atom   97 type  2   force =    -0.00000015   -0.00000046    0.00156030
     atom   98 type  2   force =     0.00000396    0.00000277    0.00003277
     atom   99 type  2   force =     0.00000036   -0.00498499    0.00130868
     atom  100 type  1   force =     0.00000357   -0.00001178    0.00006025
     atom  101 type  1   force =    -0.00000054   -0.00001079    0.00188868
     atom  102 type  1   force =    -0.00001160    0.00001145   -0.00002133
     atom  103 type  2   force =    -0.00000072   -0.00000124   -0.00337557
     atom  104 type  2   force =    -0.00000007    0.00002297   -0.00010098
     atom  105 type  2   force =    -0.00012218   -0.00021086   -0.00008994
     atom  106 type  2   force =     0.00000494   -0.00000463    0.00156152
     atom  107 type  2   force =    -0.00000058    0.00005390    0.00005794
     atom  108 type  2   force =     0.00033433    0.00045198    0.00029426
     atom  109 type  1   force =     0.00001032    0.00000385    0.00005757
     atom  110 type  1   force =     0.00000238    0.00000028    0.00189247
     atom  111 type  1   force =     0.00000080   -0.00000171    0.00012816
     atom  112 type  2   force =    -0.00000067    0.00000147   -0.00338031
     atom  113 type  2   force =    -0.00004591    0.00002697   -0.00007609
     atom  114 type  2   force =    -0.00000026   -0.00000029   -0.00042646
     atom  115 type  2   force =    -0.00000037    0.00000070    0.00157774
     atom  116 type  2   force =     0.00004331   -0.00002338    0.00012086
     atom  117 type  2   force =     0.00000114   -0.00000168   -0.00004391
     atom  118 type  1   force =     0.00000050   -0.00002982    0.00018841
     atom  119 type  1   force =     0.00000038    0.00000110    0.00189144
     atom  120 type  1   force =     0.00001570    0.00000496   -0.00002120
     atom  121 type  2   force =     0.00000199   -0.00000202   -0.00337974
     atom  122 type  2   force =     0.00000160   -0.00005480   -0.00007694
     atom  123 type  2   force =    -0.00012240    0.00021139   -0.00008969
     atom  124 type  2   force =    -0.00000094   -0.00000027    0.00157920
     atom  125 type  2   force =     0.00000268    0.00004827    0.00011945
     atom  126 type  2   force =     0.00022322   -0.00051464    0.00029463
     atom  127 type  1   force =    -0.00010668   -0.00005437   -0.00036981
     atom  128 type  1   force =    -0.00000548   -0.00000155    0.00188851
     atom  129 type  1   force =    -0.00001832   -0.00000996   -0.00007006
     atom  130 type  2   force =    -0.00000134    0.00000176   -0.00337558
     atom  131 type  2   force =    -0.00000678    0.00000599   -0.00011005
     atom  132 type  2   force =    -0.00026079   -0.00015020   -0.00016183
     atom  133 type  2   force =    -0.00000691   -0.00000397    0.00156240
     atom  134 type  2   force =     0.00000388    0.00000612    0.00006946
     atom  135 type  2   force =    -0.00032617   -0.00018814   -0.00012071
     atom  136 type  1   force =    -0.00002426    0.00001354    0.00018727
     atom  137 type  1   force =    -0.00000360   -0.00000339    0.00188889
     atom  138 type  1   force =     0.00001477    0.00001224   -0.00001992
     atom  139 type  2   force =     0.00000060   -0.00000180   -0.00337662
     atom  140 type  2   force =     0.00000218   -0.00000589   -0.00011099
     atom  141 type  2   force =     0.00012342   -0.00021162   -0.00009042
     atom  142 type  2   force =    -0.00000638   -0.00000525    0.00156203
     atom  143 type  2   force =     0.00000713    0.00000305    0.00007255
     atom  144 type  2   force =    -0.00033330    0.00045198    0.00029442
     atom  145 type  3   force =     0.00000593    0.00000310   -0.02622122
     atom  146 type  3   force =    -0.00000205    0.00000845    0.01013812
     The non-local contrib.  to forces
     atom    1 type  1   force =     0.00261087    0.00400255   -0.00171081
     atom    2 type  1   force =    -0.00000453    0.00000063   -0.00196699
     atom    3 type  1   force =     0.00011092   -0.00009310   -0.00082799
     atom    4 type  2   force =     0.00000108   -0.00000109    0.26317828
     atom    5 type  2   force =     0.00001397   -0.00007202    0.26642065
     atom    6 type  2   force =    -0.00118945   -0.00194222    0.26598455
     atom    7 type  2   force =    -0.00000009   -0.00000023   -0.26460321
     atom    8 type  2   force =    -0.00019282    0.00010987   -0.26489068
     atom    9 type  2   force =    -0.00321235   -0.00003463   -0.26027810
     atom   10 type  1   force =     0.00477430    0.00026044   -0.00171142
     atom   11 type  1   force =     0.00000574    0.00000348   -0.00196941
     atom   12 type  1   force =    -0.00002729    0.00014357   -0.00083016
[...]
     atom   65 type  1   force =    -0.00000014   -0.00000016    0.00260433
     atom   66 type  1   force =    -0.00000005   -0.00000003   -0.00002028
     atom   67 type  2   force =     0.00000005   -0.00000003    0.00440962
     atom   68 type  2   force =    -0.00000181   -0.00000041   -0.00004817
     atom   69 type  2   force =    -0.00000321   -0.00000185   -0.00019718
     atom   70 type  2   force =    -0.00000008    0.00000004    0.00023661
     atom   71 type  2   force =    -0.00001532    0.00001291    0.00009028
     atom   72 type  2   force =     0.00002756    0.00001590   -0.00437839
     atom   73 type  1   force =    -0.00008331    0.00004810   -0.00251430
     atom   74 type  1   force =    -0.00000021   -0.00000012    0.00260372
     atom   75 type  1   force =     0.00000801   -0.00000741   -0.00002681
     atom   76 type  2   force =    -0.00000000   -0.00000000    0.00440951
     atom   77 type  2   force =    -0.00000078   -0.00000045   -0.00004695
     atom   78 type  2   force =     0.00000815    0.00000431   -0.00014573
     atom   79 type  2   force =    -0.00000060   -0.00000035    0.00023630
     atom   80 type  2   force =     0.00000314    0.00000181    0.00009942
     atom   81 type  2   force =    -0.00024099    0.00027738   -0.00424364
     atom   82 type  1   force =    -0.00040406    0.00000340   -0.00210233
     atom   83 type  1   force =    -0.00000028    0.00000016    0.00260400
     atom   84 type  1   force =     0.00001018   -0.00000588   -0.00005915
     atom   85 type  2   force =    -0.00000007    0.00000018    0.00440873
     atom   86 type  2   force =    -0.00000019    0.00000011   -0.00005018
     atom   87 type  2   force =    -0.00004251    0.00002455    0.00015611
     atom   88 type  2   force =    -0.00000038    0.00000014    0.00023651
     atom   89 type  2   force =     0.00001153   -0.00000666    0.00009870
     atom   90 type  2   force =    -0.00044997    0.00025988   -0.00373768
     atom   91 type  1   force =    -0.00019910   -0.00035162   -0.00210230
     atom   92 type  1   force =    -0.00000015   -0.00000008    0.00260420
     atom   93 type  1   force =    -0.00000000    0.00001177   -0.00005915
     atom   94 type  2   force =     0.00000000    0.00000000    0.00440783
     atom   95 type  2   force =     0.00000098    0.00000057   -0.00005392
     atom   96 type  2   force =     0.00000000   -0.00004908    0.00015611
     atom   97 type  2   force =    -0.00000000   -0.00000000    0.00023663
     atom   98 type  2   force =     0.00001581    0.00000913    0.00008285
     atom   99 type  2   force =     0.00000003   -0.00051958   -0.00373761
     atom  100 type  1   force =     0.00000000   -0.00009621   -0.00251429
     atom  101 type  1   force =    -0.00000000   -0.00000032    0.00260401
     atom  102 type  1   force =    -0.00000241    0.00001064   -0.00002681
     atom  103 type  2   force =     0.00000012   -0.00000015    0.00440873
     atom  104 type  2   force =     0.00000000   -0.00000022   -0.00005018
     atom  105 type  2   force =     0.00000781    0.00000491   -0.00014573
     atom  106 type  2   force =    -0.00000007   -0.00000040    0.00023651
     atom  107 type  2   force =     0.00000000    0.00001331    0.00009869
     atom  108 type  2   force =     0.00011974   -0.00034744   -0.00424360
     atom  109 type  1   force =     0.00008330    0.00004810   -0.00251432
     atom  110 type  1   force =     0.00000021   -0.00000012    0.00260373
     atom  111 type  1   force =     0.00000000   -0.00000000   -0.00001337
     atom  112 type  2   force =     0.00000000   -0.00000008    0.00440941
     atom  113 type  2   force =     0.00000079   -0.00000045   -0.00004695
     atom  114 type  2   force =    -0.00000000   -0.00000000   -0.00017074
     atom  115 type  2   force =     0.00000000   -0.00000055    0.00023640
     atom  116 type  2   force =    -0.00000313    0.00000181    0.00009942
     atom  117 type  2   force =     0.00000000   -0.00000000   -0.00439947
     atom  118 type  1   force =    -0.00000001   -0.00002285   -0.00253931
     atom  119 type  1   force =     0.00000000    0.00000024    0.00260372
     atom  120 type  1   force =     0.00001042   -0.00000324   -0.00002681
     atom  121 type  2   force =    -0.00000007    0.00000004    0.00440941
     atom  122 type  2   force =     0.00000001    0.00000091   -0.00004695
     atom  123 type  2   force =     0.00000034   -0.00000921   -0.00014573
     atom  124 type  2   force =    -0.00000047    0.00000027    0.00023640
     atom  125 type  2   force =     0.00000000   -0.00000362    0.00009942
     atom  126 type  2   force =    -0.00036074    0.00007003   -0.00424362
     atom  127 type  1   force =    -0.00010917   -0.00006303   -0.00252179
     atom  128 type  1   force =    -0.00000007    0.00000020    0.00260433
     atom  129 type  1   force =     0.00001154    0.00000667   -0.00004011
     atom  130 type  2   force =    -0.00000019   -0.00000002    0.00440873
     atom  131 type  2   force =     0.00000056    0.00000178   -0.00004817
     atom  132 type  2   force =    -0.00002741   -0.00001583   -0.00010213
     atom  133 type  2   force =    -0.00000031    0.00000025    0.00023650
     atom  134 type  2   force =     0.00001885    0.00000682    0.00009028
     atom  135 type  2   force =    -0.00064377   -0.00037166   -0.00396196
     atom  136 type  1   force =    -0.00001979    0.00001142   -0.00253931
     atom  137 type  1   force =     0.00000014   -0.00000016    0.00260433
     atom  138 type  1   force =     0.00000241    0.00001064   -0.00002682
     atom  139 type  2   force =    -0.00000011   -0.00000015    0.00440873
     atom  140 type  2   force =     0.00000182   -0.00000041   -0.00004817
     atom  141 type  2   force =    -0.00000781    0.00000491   -0.00014573
     atom  142 type  2   force =     0.00000006   -0.00000040    0.00023651
     atom  143 type  2   force =     0.00001533    0.00001291    0.00009027
     atom  144 type  2   force =    -0.00011973   -0.00034745   -0.00424359
     atom  145 type  3   force =    -0.00000042   -0.00000095   -0.01205940
     atom  146 type  3   force =     0.00000041    0.00000093    0.00088895

     Total force =     0.001936     Total SCF correction =     0.000204
     SCF correction compared to forces is large: reduce conv_thr to get better values
     Energy error            =      5.8E-06 Ry
     Gradient error          =      7.6E-04 Ry/Bohr

     bfgs converged in   9 scf cycles and   8 bfgs steps
     (criteria: energy <  1.0E-04 Ry, force <  1.0E-03 Ry/Bohr)

     End of BFGS Geometry Optimization

     Final energy             =  -24869.0087775698 Ry

     File ./outdir/pwscf.bfgs deleted, as requested
Begin final coordinates

ATOMIC_POSITIONS (angstrom)
Mo            1.5681913218        2.7176048022        6.0895622179
Mo            1.5769197498        0.9104407117       -6.0872367793    0   0   0
Mo            0.0001726565        1.8210507389       -0.0007412342
S             0.0000044503        0.0000077495       -7.6506323570    0   0   0
S             1.5766198003        0.9108850866       -1.5669854199
S             0.0025665326        1.8225206021        4.5081286077
S             0.0000053241        0.0000068460       -4.5222282367    0   0   0
S             1.5773459341        0.9100650607        1.5654744991
S            -0.0145061261        1.8084281405        7.6494608157
Mo           -0.0162239975        5.4618917106        6.0895624448
Mo            0.0000011799        3.6417399547       -6.0872367793    0   0   0
Mo           -1.5766837896        4.5522444206       -0.0007396418
S            -1.5769141197        2.7313069925       -7.6506323570    0   0   0
S             0.0001394218        3.6418281710       -1.5660924042
S            -1.5742020678        4.5535628801        4.5081277649
S            -1.5769132459        2.7313060890       -4.5222282367    0   0   0
S             0.0010046306        3.6423267485        1.5669661873
S            -1.5949435487        4.5458210796        7.6494615247
Mo           -1.5779314733        8.1944625071        6.0792937563
Mo           -1.5769173901        6.3730391977       -6.0872367793    0   0   0
Mo           -3.1538602939        7.2833376430       -0.0021708315
S            -3.1538326896        5.4626062355       -7.6506323570    0   0   0
S            -1.5766887764        6.3725714576       -1.5669831745
S            -3.1538529722        7.2853594616        4.5106012688
S            -3.1538318159        5.4626053320       -4.5222282367    0   0   0
S            -1.5770367799        6.3736102364        1.5654732775
S            -3.1538537636        7.2819624116        7.6447344864
Mo            3.1538164873       -0.0011551738        6.0792939957
Mo           -3.1538359601        9.1043384407       -6.0872367793    0   0   0
Mo           -4.7308910500       10.0148303977       -0.0021727846
S            -4.7307512596        8.1939054785       -7.6506323570    0   0   0
S            -3.1538625989        9.1043324096       -1.5676078108
S            -4.7291235513       10.0138038329        4.5106007355
S            -4.7307503859        8.1939045750       -4.5222282367    0   0   0
S            -3.1538645355        9.1043307447        1.5644439876
S            -4.7320661699       10.0155019388        7.6447349572
Mo            4.7394381051        2.7176054488        6.0895596117
Mo            4.7307503218        0.9104407117       -6.0872367793    0   0   0
Mo            3.1538047205        1.8210055984       -0.0015786074
S             3.1538350223        0.0000077495       -7.6506323570    0   0   0
S             4.7309942169        0.9108857954       -1.5669811779
S             3.1538139591        1.8235720994        4.5186949529
S             3.1538358961        0.0000068460       -4.5222282367    0   0   0
S             4.7302654798        0.9100661451        1.5654731318
S             3.1538159154        1.8149340261        7.6520782115
Mo            3.1538118517        5.4625893567        6.1501858005
Mo            3.1538317519        3.6417399547       -6.0872367793    0   0   0
Mo            1.5772129869        4.5523544406       -0.0009143712
S             1.5769164523        2.7313069925       -7.6506323570    0   0   0
S             3.1538032572        3.6419954041       -1.5666791128
S             1.5980023834        4.5643418384        4.5619015769
S             1.5769173261        2.7313060890       -4.5222282367    0   0   0
S             3.1538014754        3.6415733982        1.5664455512
S             1.4773541085        4.4946853282        7.7055319607
Mo            1.5693942489        8.2082718917        6.0895606097
Mo            1.5769131819        6.3730391977       -6.0872367793    0   0   0
Mo            0.0000894491        7.2833966018       -0.0015802895
S            -0.0000021176        5.4626062355       -7.6506323570    0   0   0
S             1.5771133976        6.3729004886       -1.5666780052
S             0.0023294215        7.2820978896        4.5186956687
S            -0.0000012439        5.4626053320       -4.5222282367    0   0   0
S             1.5767478825        6.3731098052        1.5664443455
S            -0.0051512600        7.2864177156        7.6520774129
Mo            6.3092716625        0.0009285680        6.0729913174
Mo           -0.0000053881        9.1043384407       -6.0872367793    0   0   0
Mo           -1.5768378016       10.0148294434       -0.0021714688
S            -1.5769206876        8.1939054785       -7.6506323570    0   0   0
S             0.0004939912        9.1043416687       -1.5669816802
S            -1.5785900061       10.0138030572        4.5106006199
S            -1.5769198139        8.1939045750       -4.5222282367    0   0   0
S            -0.0005791318        9.1041214183        1.5654725932
S            -1.5756468104       10.0155023929        7.6447342133
Mo            7.8863603206        2.7302507993        6.0734037641
Mo            7.8845808939        0.9104407117       -6.0872367793    0   0   0
Mo            6.3074414106        1.8210506458       -0.0007386915
S             6.3076655943        0.0000077495       -7.6506323570    0   0   0
S             7.8845463073        0.9104300001       -1.5661171571
S             6.3050631599        1.8225196057        4.5081257697
S             6.3076664681        0.0000068460       -4.5222282367    0   0   0
S             7.8843456556        0.9103123060        1.5660625577
S             6.3221360017        1.8084273248        7.6494573537
Mo            6.3238464844        5.4618910903        6.0895602877
Mo            6.3076623239        3.6417399547       -6.0872367793    0   0   0
Mo            4.7303918925        4.5523539804       -0.0009135797
S             4.7307470244        2.7313069925       -7.6506323570    0   0   0
S             6.3074702284        3.6418278963       -1.5660901506
S             4.7096214152        4.5643412837        4.5618992391
S             4.7307478981        2.7313060890       -4.5222282367    0   0   0
S             6.3066042722        3.6423284834        1.5669658808
S             4.8302685982        4.4946855374        7.7055279001
Mo            4.7382221588        8.2082723342        6.0895609638
Mo            4.7307437539        6.3730391977       -6.0872367793    0   0   0
Mo            3.1537994058        7.2830906401       -0.0009137114
S             3.1538284544        5.4626062355       -7.6506323570    0   0   0
S             4.7304889715        6.3729017839       -1.5666789121
S             3.1538082120        7.2590848840        4.5619004221
S             3.1538293281        5.4626053320       -4.5222282367    0   0   0
S             4.7308539768        6.3731128291        1.5664445640
S             3.1538084329        7.3983911377        7.7055273752
Mo            9.4614778774        0.0020714587        6.0734043975
Mo            3.1538251839        9.1043384407       -6.0872367793    0   0   0
Mo            1.5769428112       10.0145040278       -0.0007376913
S             1.5769098844        8.1939054785       -7.6506323570    0   0   0
S             3.1537984250        9.1041412745       -1.5660910847
S             1.5770385690       10.0116864371        4.5081254850
S             1.5769107581        8.1939045750       -4.5222282367    0   0   0
S             3.1537989009        9.1031422807        1.5669636650
S             1.5733724242       10.0335198770        7.6494572246
Mo           -1.5787326205        2.7302512596        6.0734075654
Mo           11.0384114659        0.9104407117       -6.0872367793    0   0   0
Mo            9.4614696785        1.8208675083       -0.0008568177
S             9.4614961663        0.0000077495       -7.6506323570    0   0   0
S            11.0383937839        0.9104315258       -1.5661193851
S             9.4614772219        1.8208584804        4.5054654592
S             9.4614970401        0.0000068460       -4.5222282367    0   0   0
S            11.0385956136        0.9103140614        1.5660624300
S             9.4614749623        1.8208564422        7.6417321118
Mo           -3.1538506804        5.4607160545        6.0729949790
Mo            9.4614928959        3.6417399547       -6.0872367793    0   0   0
Mo            7.8842934078        4.5522448123       -0.0007377903
S             7.8845775964        2.7313069925       -7.6506323570    0   0   0
S             9.4614684553        3.6417412429       -1.5661179726
S             7.8818267431        4.5535631419        4.5081257707
S             7.8845784701        2.7313060890       -4.5222282367    0   0   0
S             9.4614686990        3.6419747979        1.5660624978
S             7.9025658145        4.5458202714        7.6494591726
Mo           -4.7297773586        8.1944617798        6.0792932216
Mo            7.8845743259        6.3730391977       -6.0872367793    0   0   0
Mo            6.3075110774        7.2833978070       -0.0015813318
S             6.3076590264        5.4626062355       -7.6506323570    0   0   0
S             7.8842928015        6.3725715990       -1.5669831519
S             6.3052864346        7.2820984113        4.5186932837
S             6.3076599001        5.4626053320       -4.5222282367    0   0   0
S             7.8846393794        6.3736111720        1.5654719635
S             6.3127684138        7.2864164333        7.6520766071
Mo           -0.0016375916        0.0009283593        6.0729938991
Mo            6.3076557559        9.1043384407       -6.0872367793    0   0   0
Mo            4.7306519201       10.0145040597       -0.0007401117
S             4.7307404564        8.1939054785       -7.6506323570    0   0   0
S             6.3071026904        9.1043445421       -1.5669849135
S             4.7305726473       10.0116868882        4.5081261070
S             4.7307413301        8.1939045750       -4.5222282367    0   0   0
S             6.3081754207        9.1041246341        1.5654730277
S             4.7342366519       10.0335187486        7.6494586014
Pd            3.1538176164        5.4625953425        8.9710040467
Pd            3.1540084081        5.4630334566       11.6191996147
End final coordinates



     Writing all to output data dir ./outdir/pwscf.save/
 
     init_run     :    103.80s CPU    106.30s WALL (       1 calls)
     electrons    :  39905.27s CPU  40396.54s WALL (       9 calls)
     update_pot   :     33.71s CPU     33.83s WALL (       8 calls)
     forces       :    601.61s CPU    619.37s WALL (       9 calls)
     force_dftd3  :      4.10s CPU      4.11s WALL (       9 calls)

     Called by init_run:
     wfcinit      :     84.04s CPU     85.39s WALL (       1 calls)
     potinit      :      1.82s CPU      1.89s WALL (       1 calls)
     hinit0       :     12.66s CPU     12.70s WALL (       1 calls)

     Called by electrons:
     c_bands      :  35649.12s CPU  35883.97s WALL (     110 calls)
     sum_band     :   3907.30s CPU   4055.92s WALL (     110 calls)
     v_of_rho     :     44.26s CPU     45.00s WALL (     110 calls)
     newd         :    227.02s CPU    339.23s WALL (     110 calls)
     PAW_pot      :     64.32s CPU     64.33s WALL (     118 calls)
     mix_rho      :     10.26s CPU     10.28s WALL (     110 calls)
     energy_dftd3 :      1.82s CPU      1.82s WALL (       9 calls)

     Called by c_bands:
     init_us_2    :    170.38s CPU    170.55s WALL (     952 calls)
     init_us_2:cp :    170.37s CPU    170.54s WALL (     952 calls)
     cegterg      :  35078.29s CPU  35311.02s WALL (     458 calls)

     Called by *egterg:
     cdiaghg      :   2403.67s CPU   2411.68s WALL (    5847 calls)
     h_psi        :  18699.90s CPU  18771.68s WALL (    5919 calls)
     s_psi        :   3804.34s CPU   3804.81s WALL (    5919 calls)
     g_psi        :     40.50s CPU     40.60s WALL (    5457 calls)

     Called by h_psi:
     h_psi:calbec :   3773.19s CPU   3774.03s WALL (    5919 calls)
     vloc_psi     :  11034.77s CPU  11066.10s WALL (    5919 calls)
     add_vuspsi   :   3844.32s CPU   3845.21s WALL (    5919 calls)

     General routines
     calbec       :   5326.94s CPU   5327.99s WALL (    6535 calls)
     fft          :     48.72s CPU     49.78s WALL (    1528 calls)
     ffts         :      1.96s CPU      1.99s WALL (     220 calls)
     fftw         :   8852.00s CPU   8881.37s WALL ( 2461338 calls)
     interpolate  :      4.45s CPU      4.49s WALL (     110 calls)
 
     Parallel routines
 
     PWSCF        :     11h20m CPU     11h29m WALL

 
   This run was terminated on:  17: 4:56   4Oct2023            

=------------------------------------------------------------------------------=
   JOB DONE.
=------------------------------------------------------------------------------=
Application 11264985 resources: utime ~1470682s, stime ~18592s, Rss ~2364288, inblocks ~0, outblocks ~34344592
