
     Program PWSCF v.7.2 starts on  6Aug2023 at 10:32: 6 

     This program is part of the open-source Quantum ESPRESSO suite
     for quantum simulation of materials; please cite
         "P. Giannozzi et al., J. Phys.:Condens. Matter 21 395502 (2009);
         "P. Giannozzi et al., J. Phys.:Condens. Matter 29 465901 (2017);
         "P. Giannozzi et al., J. Chem. Phys. 152 154105 (2020);
          URL http://www.quantum-espresso.org", 
     in publications or presentations arising from this work. More details at
     http://www.quantum-espresso.org/quote

     Parallel version (MPI), running on    48 processors

     MPI processes distributed on     1 nodes
     986430 MiB available memory on the printing compute node when the environment starts
 
     Waiting for input...
     Reading input from standard input
Warning: card &CELL ignored
Warning: card / ignored

     Current dimensions of program PWSCF are:
     Max number of different atomic species (ntypx) = 10
     Max number of k-points (npk) =  40000
     Max angular momentum in pseudopotentials (lmaxx) =  4
     file Mo.pbe-spn-kjpaw_psl.1.0.0.UPF: wavefunction(s)  4S 4D renormalized
     file S.pbe-n-kjpaw_psl.1.0.0.UPF: wavefunction(s)  3S 3P renormalized
     Found identity + ( -0.0000  0.2500  0.0000) symmetry
     This is a supercell, fractional translations are disabled
 
     R & G space division:  proc/nbgrp/npool/nimage =      48
     Subspace diagonalization in iterative solution of the eigenvalue problem:
     one sub-group per band group will be used
     ELPA distributed-memory algorithm (size of sub-group:  6*  6 procs)

 
     Parallelization info
     --------------------
     sticks:   dense  smooth     PW     G-vecs:    dense   smooth      PW
     Min         439     251     66               149057    64385    8794
     Max         440     252     67               149067    64399    8811
     Sum       21073   12049   3205              7154885  3090769  422587
 
     Using Slab Decomposition
 


     bravais-lattice index     =            0
     lattice parameter (alat)  =      23.8199  a.u.
     unit-cell volume          =   33861.0370 (a.u.)^3
     number of atoms/cell      =          192
     number of atomic types    =            2
     number of electrons       =      1664.00
     number of Kohn-Sham states=          998
     kinetic-energy cutoff     =      77.0000  Ry
     charge density cutoff     =     539.0000  Ry
     scf convergence threshold =      1.0E-06
     mixing beta               =       0.2000
     number of iterations used =            8  plain     mixing
     Exchange-correlation= SLA  PW   PBX  PBC
                           (   1   4   3   4   0   0   0)

     Effective Screening Medium Method
     =================================
     Boundary Conditions: Vacuum-Slab-Vacuum
     total charge in unit cell        =   0.0000
     grid points for fit at edges     =        4 
 

     celldm(1)=  23.819920  celldm(2)=   0.000000  celldm(3)=   0.000000
     celldm(4)=   0.000000  celldm(5)=   0.000000  celldm(6)=   0.000000

     crystal axes: (cart. coord. in units of alat)
               a(1) = (   1.000000   0.000000   0.000000 )  
               a(2) = (  -0.499999   0.866026   0.000000 )  
               a(3) = (   0.000000   0.000000   2.893000 )  

     reciprocal axes: (cart. coord. in units 2 pi/alat)
               b(1) = (  1.000000  0.577349  0.000000 )  
               b(2) = (  0.000000  1.154700  0.000000 )  
               b(3) = (  0.000000  0.000000  0.345662 )  


     PseudoPot. # 1 for Mo read from file:
     ./pseudo/Mo.pbe-spn-kjpaw_psl.1.0.0.UPF
     MD5 check sum: 317bf72632116215fd98f72de1686f13
     Pseudo is Projector augmented-wave + core cor, Zval = 14.0
     Generated using 'atomic' code by A. Dal Corso  v.7.2
     Shape of augmentation charge: PSQ
     Using radial grid of 1229 points,  6 beta functions with: 
                l(1) =   0
                l(2) =   0
                l(3) =   1
                l(4) =   1
                l(5) =   2
                l(6) =   2
     Q(r) pseudized with 0 coefficients 


     PseudoPot. # 2 for S  read from file:
     ./pseudo/S.pbe-n-kjpaw_psl.1.0.0.UPF
     MD5 check sum: 8b7b5302570d38d5e87fed6a1065abda
     Pseudo is Projector augmented-wave + core cor, Zval =  6.0
     Generated using 'atomic' code by A. Dal Corso  v.7.2
     Shape of augmentation charge: PSQ
     Using radial grid of 1151 points,  6 beta functions with: 
                l(1) =   0
                l(2) =   0
                l(3) =   1
                l(4) =   1
                l(5) =   2
                l(6) =   2
     Q(r) pseudized with 0 coefficients 


     atomic species   valence    mass     pseudopotential
        Mo            14.00    95.95000     Mo( 1.00)
        S              6.00    32.06000     S ( 1.00)

     No symmetry found



   Cartesian axes

     site n.     atom                  positions (alat units)
         1           Mo  tau(   1) = (   0.0000010   0.1443372  -0.7272732  )
         2           Mo  tau(   2) = (   0.1249995   0.0721706  -0.2424038  )
         3           S   tau(   3) = (   0.0000015   0.1443386  -0.3667807  )
         4           S   tau(   4) = (   0.1250010   0.0721682  -0.6030489  )
         5           S   tau(   5) = (   0.1250010   0.0721683  -0.8514963  )
         6           S   tau(   6) = (   0.0000015   0.1443389  -0.1180260  )
         7           Mo  tau(   7) = (   0.0000041   0.1443345   0.2424023  )
         8           Mo  tau(   8) = (   0.1250030   0.0721700   0.7272501  )
         9           S   tau(   9) = (   0.0000038   0.1443392   0.6028599  )
        10           S   tau(  10) = (   0.1250037   0.0721683   0.3667755  )
        11           S   tau(  11) = (   0.1250033   0.0721688   0.1180247  )
        12           S   tau(  12) = (   0.0000038   0.1443391   0.8517304  )
        13           Mo  tau(  13) = (  -0.1249989   0.3608437  -0.7272732  )
        14           Mo  tau(  14) = (   0.0000030   0.2886752  -0.2424042  )
        15           S   tau(  15) = (  -0.1249977   0.3608450  -0.3667802  )
        16           S   tau(  16) = (   0.0000012   0.2886747  -0.6030489  )
        17           S   tau(  17) = (   0.0000012   0.2886748  -0.8514963  )
        18           S   tau(  18) = (  -0.1249977   0.3608454  -0.1180274  )
        19           Mo  tau(  19) = (  -0.1249981   0.3608444   0.2424011  )
        20           Mo  tau(  20) = (   0.0000038   0.2886765   0.7272499  )
        21           S   tau(  21) = (  -0.1249961   0.3608457   0.6028596  )
        22           S   tau(  22) = (   0.0000037   0.2886752   0.3667739  )
        23           S   tau(  23) = (   0.0000035   0.2886747   0.1180263  )
        24           S   tau(  24) = (  -0.1249962   0.3608459   0.8517305  )
        25           Mo  tau(  25) = (  -0.2499987   0.5773502  -0.7272732  )
        26           Mo  tau(  26) = (  -0.1249977   0.5051839  -0.2424055  )
        27           S   tau(  27) = (  -0.2499981   0.5773518  -0.3667809  )
        28           S   tau(  28) = (  -0.1249986   0.5051812  -0.6030489  )
        29           S   tau(  29) = (  -0.1249986   0.5051813  -0.8514963  )
        30           S   tau(  30) = (  -0.2499979   0.5773512  -0.1180266  )
        31           Mo  tau(  31) = (  -0.2499983   0.5773503   0.2424020  )
        32           Mo  tau(  32) = (  -0.1249962   0.5051830   0.7272501  )
        33           S   tau(  33) = (  -0.2499958   0.5773522   0.6028593  )
        34           S   tau(  34) = (  -0.1249963   0.5051821   0.3667746  )
        35           S   tau(  35) = (  -0.1249968   0.5051820   0.1180254  )
        36           S   tau(  36) = (  -0.2499959   0.5773522   0.8517307  )
        37           Mo  tau(  37) = (  -0.3749985   0.7938567  -0.7272732  )
        38           Mo  tau(  38) = (  -0.2500001   0.7216874  -0.2424031  )
        39           S   tau(  39) = (  -0.3749980   0.7938584  -0.3667800  )
        40           S   tau(  40) = (  -0.2499984   0.7216877  -0.6030489  )
        41           S   tau(  41) = (  -0.2499984   0.7216878  -0.8514963  )
        42           S   tau(  42) = (  -0.3749982   0.7938585  -0.1180264  )
        43           Mo  tau(  43) = (  -0.3749976   0.7938584   0.2424002  )
        44           Mo  tau(  44) = (  -0.2499965   0.7216896   0.7272502  )
        45           S   tau(  45) = (  -0.3749954   0.7938586   0.6028596  )
        46           S   tau(  46) = (  -0.2499962   0.7216890   0.3667741  )
        47           S   tau(  47) = (  -0.2499961   0.7216884   0.1180258  )
        48           S   tau(  48) = (  -0.3749955   0.7938585   0.8517305  )
        49           Mo  tau(  49) = (   0.2500010   0.1443372  -0.7272732  )
        50           Mo  tau(  50) = (   0.3750034   0.0721723  -0.2424032  )
        51           S   tau(  51) = (   0.2500017   0.1443391  -0.3667788  )
        52           S   tau(  52) = (   0.3750010   0.0721682  -0.6030489  )
        53           S   tau(  53) = (   0.3750010   0.0721683  -0.8514963  )
        54           S   tau(  54) = (   0.2500016   0.1443391  -0.1180271  )
        55           Mo  tau(  55) = (   0.2500037   0.1443371   0.2424008  )
        56           Mo  tau(  56) = (   0.3750049   0.0721708   0.7272499  )
        57           S   tau(  57) = (   0.2500041   0.1443391   0.6028593  )
        58           S   tau(  58) = (   0.3750026   0.0721682   0.3667763  )
        59           S   tau(  59) = (   0.3750033   0.0721687   0.1180242  )
        60           S   tau(  60) = (   0.2500040   0.1443392   0.8517310  )
        61           Mo  tau(  61) = (   0.1250012   0.3608437  -0.7272732  )
        62           Mo  tau(  62) = (   0.2500029   0.2886782  -0.2424031  )
        63           S   tau(  63) = (   0.1250024   0.3608455  -0.3667794  )
        64           S   tau(  64) = (   0.2500012   0.2886747  -0.6030489  )
        65           S   tau(  65) = (   0.2500012   0.2886748  -0.8514963  )
        66           S   tau(  66) = (   0.1250021   0.3608455  -0.1180270  )
        67           Mo  tau(  67) = (   0.1250055   0.3608449   0.2424003  )
        68           Mo  tau(  68) = (   0.2500045   0.2886775   0.7272501  )
        69           S   tau(  69) = (   0.1250040   0.3608458   0.6028596  )
        70           S   tau(  70) = (   0.2500032   0.2886750   0.3667755  )
        71           S   tau(  71) = (   0.2500033   0.2886748   0.1180238  )
        72           S   tau(  72) = (   0.1250043   0.3608459   0.8517305  )
        73           Mo  tau(  73) = (   0.0000014   0.5773502  -0.7272732  )
        74           Mo  tau(  74) = (   0.1250045   0.5051840  -0.2424036  )
        75           S   tau(  75) = (   0.0000030   0.5773520  -0.3667799  )
        76           S   tau(  76) = (   0.1250014   0.5051812  -0.6030489  )
        77           S   tau(  77) = (   0.1250014   0.5051813  -0.8514963  )
        78           S   tau(  78) = (   0.0000026   0.5773517  -0.1180274  )
        79           Mo  tau(  79) = (   0.0000039   0.5773528   0.2424003  )
        80           Mo  tau(  80) = (   0.1250050   0.5051837   0.7272501  )
        81           S   tau(  81) = (   0.0000041   0.5773523   0.6028593  )
        82           S   tau(  82) = (   0.1250034   0.5051819   0.3667749  )
        83           S   tau(  83) = (   0.1250033   0.5051818   0.1180238  )
        84           S   tau(  84) = (   0.0000042   0.5773523   0.8517309  )
        85           Mo  tau(  85) = (  -0.1249984   0.7938567  -0.7272732  )
        86           Mo  tau(  86) = (   0.0000069   0.7216896  -0.2424039  )
        87           S   tau(  87) = (  -0.1249975   0.7938582  -0.3667782  )
        88           S   tau(  88) = (   0.0000016   0.7216877  -0.6030489  )
        89           S   tau(  89) = (   0.0000016   0.7216878  -0.8514963  )
        90           S   tau(  90) = (  -0.1249973   0.7938582  -0.1180279  )
        91           Mo  tau(  91) = (  -0.1249936   0.7938581   0.2424006  )
        92           Mo  tau(  92) = (   0.0000056   0.7216904   0.7272501  )
        93           S   tau(  93) = (  -0.1249955   0.7938586   0.6028591  )
        94           S   tau(  94) = (   0.0000039   0.7216883   0.3667759  )
        95           S   tau(  95) = (   0.0000039   0.7216885   0.1180233  )
        96           S   tau(  96) = (  -0.1249955   0.7938586   0.8517313  )
        97           Mo  tau(  97) = (   0.5000010   0.1443372  -0.7272732  )
        98           Mo  tau(  98) = (   0.6250001   0.0721662  -0.2424040  )
        99           S   tau(  99) = (   0.5000017   0.1443386  -0.3667801  )
       100           S   tau( 100) = (   0.6250010   0.0721682  -0.6030489  )
       101           S   tau( 101) = (   0.6250010   0.0721683  -0.8514963  )
       102           S   tau( 102) = (   0.5000020   0.1443388  -0.1180261  )
       103           Mo  tau( 103) = (   0.5000005   0.1443344   0.2424031  )
       104           Mo  tau( 104) = (   0.6250028   0.0721696   0.7272500  )
       105           S   tau( 105) = (   0.5000038   0.1443392   0.6028599  )
       106           S   tau( 106) = (   0.6250032   0.0721682   0.3667750  )
       107           S   tau( 107) = (   0.6250029   0.0721690   0.1180259  )
       108           S   tau( 108) = (   0.5000038   0.1443393   0.8517304  )
       109           Mo  tau( 109) = (   0.3750012   0.3608437  -0.7272732  )
       110           Mo  tau( 110) = (   0.4999991   0.2886761  -0.2424038  )
       111           S   tau( 111) = (   0.3750012   0.3608452  -0.3667804  )
       112           S   tau( 112) = (   0.5000012   0.2886747  -0.6030489  )
       113           S   tau( 113) = (   0.5000012   0.2886748  -0.8514963  )
       114           S   tau( 114) = (   0.3750014   0.3608455  -0.1180261  )
       115           Mo  tau( 115) = (   0.3750003   0.3608415   0.2424003  )
       116           Mo  tau( 116) = (   0.5000036   0.2886765   0.7272501  )
       117           S   tau( 117) = (   0.3750041   0.3608456   0.6028595  )
       118           S   tau( 118) = (   0.5000032   0.2886753   0.3667740  )
       119           S   tau( 119) = (   0.5000035   0.2886745   0.1180267  )
       120           S   tau( 120) = (   0.3750041   0.3608457   0.8517303  )
       121           Mo  tau( 121) = (   0.2500014   0.5773502  -0.7272732  )
       122           Mo  tau( 122) = (   0.3749983   0.5051825  -0.2424043  )
       123           S   tau( 123) = (   0.2500017   0.5773519  -0.3667810  )
       124           S   tau( 124) = (   0.3750014   0.5051812  -0.6030489  )
       125           S   tau( 125) = (   0.3750014   0.5051813  -0.8514963  )
       126           S   tau( 126) = (   0.2500018   0.5773519  -0.1180256  )
       127           Mo  tau( 127) = (   0.2500009   0.5773497   0.2423999  )
       128           Mo  tau( 128) = (   0.3750037   0.5051832   0.7272500  )
       129           S   tau( 129) = (   0.2500042   0.5773522   0.6028596  )
       130           S   tau( 130) = (   0.3750035   0.5051817   0.3667733  )
       131           S   tau( 131) = (   0.3750039   0.5051817   0.1180258  )
       132           S   tau( 132) = (   0.2500043   0.5773521   0.8517304  )
       133           Mo  tau( 133) = (   0.1250016   0.7938567  -0.7272732  )
       134           Mo  tau( 134) = (   0.2499995   0.7216883  -0.2424036  )
       135           S   tau( 135) = (   0.1250024   0.7938578  -0.3667813  )
       136           S   tau( 136) = (   0.2500016   0.7216877  -0.6030489  )
       137           S   tau( 137) = (   0.2500016   0.7216878  -0.8514963  )
       138           S   tau( 138) = (   0.1250024   0.7938579  -0.1180253  )
       139           Mo  tau( 139) = (   0.1250007   0.7938566   0.2424003  )
       140           Mo  tau( 140) = (   0.2500037   0.7216894   0.7272501  )
       141           S   tau( 141) = (   0.1250043   0.7938588   0.6028599  )
       142           S   tau( 142) = (   0.2500035   0.7216882   0.3667737  )
       143           S   tau( 143) = (   0.2500038   0.7216886   0.1180257  )
       144           S   tau( 144) = (   0.1250043   0.7938587   0.8517303  )
       145           Mo  tau( 145) = (   0.7500010   0.1443372  -0.7272732  )
       146           Mo  tau( 146) = (   0.8750038   0.0721696  -0.2424038  )
       147           S   tau( 147) = (   0.7500016   0.1443382  -0.3667789  )
       148           S   tau( 148) = (   0.8750010   0.0721682  -0.6030489  )
       149           S   tau( 149) = (   0.8750010   0.0721683  -0.8514963  )
       150           S   tau( 150) = (   0.7500016   0.1443384  -0.1180279  )
       151           Mo  tau( 151) = (   0.7500051   0.1443370   0.2424017  )
       152           Mo  tau( 152) = (   0.8750049   0.0721705   0.7272500  )
       153           S   tau( 153) = (   0.7500039   0.1443393   0.6028592  )
       154           S   tau( 154) = (   0.8750038   0.0721685   0.3667764  )
       155           S   tau( 155) = (   0.8750039   0.0721688   0.1180247  )
       156           S   tau( 156) = (   0.7500041   0.1443394   0.8517311  )
       157           Mo  tau( 157) = (   0.6250012   0.3608437  -0.7272732  )
       158           Mo  tau( 158) = (   0.7500028   0.2886769  -0.2424041  )
       159           S   tau( 159) = (   0.6250015   0.3608451  -0.3667792  )
       160           S   tau( 160) = (   0.7500012   0.2886747  -0.6030489  )
       161           S   tau( 161) = (   0.7500012   0.2886748  -0.8514963  )
       162           S   tau( 162) = (   0.6250016   0.3608454  -0.1180280  )
       163           Mo  tau( 163) = (   0.6250051   0.3608469   0.2424010  )
       164           Mo  tau( 164) = (   0.7500045   0.2886776   0.7272501  )
       165           S   tau( 165) = (   0.6250042   0.3608457   0.6028594  )
       166           S   tau( 166) = (   0.7500035   0.2886754   0.3667754  )
       167           S   tau( 167) = (   0.7500035   0.2886751   0.1180251  )
       168           S   tau( 168) = (   0.6250042   0.3608459   0.8517307  )
       169           Mo  tau( 169) = (   0.5000014   0.5773502  -0.7272732  )
       170           Mo  tau( 170) = (   0.6250029   0.5051841  -0.2424047  )
       171           S   tau( 171) = (   0.5000014   0.5773518  -0.3667794  )
       172           S   tau( 172) = (   0.6250014   0.5051812  -0.6030489  )
       173           S   tau( 173) = (   0.6250014   0.5051813  -0.8514963  )
       174           S   tau( 174) = (   0.5000016   0.5773516  -0.1180277  )
       175           Mo  tau( 175) = (   0.5000072   0.5773526   0.2424011  )
       176           Mo  tau( 176) = (   0.6250047   0.5051838   0.7272501  )
       177           S   tau( 177) = (   0.5000044   0.5773522   0.6028593  )
       178           S   tau( 178) = (   0.6250038   0.5051821   0.3667764  )
       179           S   tau( 179) = (   0.6250040   0.5051821   0.1180241  )
       180           S   tau( 180) = (   0.5000045   0.5773523   0.8517308  )
       181           Mo  tau( 181) = (   0.3750016   0.7938567  -0.7272732  )
       182           Mo  tau( 182) = (   0.5000025   0.7216901  -0.2424039  )
       183           S   tau( 183) = (   0.3750019   0.7938578  -0.3667793  )
       184           S   tau( 184) = (   0.5000016   0.7216877  -0.6030489  )
       185           S   tau( 185) = (   0.5000016   0.7216878  -0.8514963  )
       186           S   tau( 186) = (   0.3750020   0.7938579  -0.1180272  )
       187           Mo  tau( 187) = (   0.3750057   0.7938586   0.2424015  )
       188           Mo  tau( 188) = (   0.5000052   0.7216902   0.7272503  )
       189           S   tau( 189) = (   0.3750045   0.7938588   0.6028592  )
       190           S   tau( 190) = (   0.5000042   0.7216887   0.3667757  )
       191           S   tau( 191) = (   0.5000039   0.7216887   0.1180242  )
       192           S   tau( 192) = (   0.3750047   0.7938587   0.8517308  )

     --------------------------------------------
     DFT-D3 Dispersion Correction (3-body terms):
     --------------------------------------------
       Reference C6 values for interpolation: 

         atom   Coordination number   C6
         S          0.000           268.01
         S          0.995           261.99
         S          1.990           251.62
         Mo         0.000          1691.79
         Mo         1.942          1004.01
         Mo        11.056           674.22

       Values used:

         atom   Coordination number  R0_AB[au]  C6      C8
         Mo        10.208            3.547    674.22  77634.20
         Mo        10.221            3.547    674.22  77634.20
         S          3.858            3.128    251.62  12327.25
         S          3.859            3.128    251.62  12327.25
         S          3.758            3.128    251.62  12327.25
         S          3.859            3.128    251.62  12327.25
         Mo        10.221            3.547    674.22  77634.20
         Mo        10.206            3.547    674.22  77634.20
         S          3.856            3.128    251.62  12327.25
         S          3.859            3.128    251.62  12327.25
         S          3.859            3.128    251.62  12327.25
         S          3.755            3.128    251.62  12327.25
         Mo        10.208            3.547    674.22  77634.20
         Mo        10.221            3.547    674.22  77634.20
         S          3.858            3.128    251.62  12327.25
         S          3.859            3.128    251.62  12327.25
         S          3.758            3.128    251.62  12327.25
         S          3.859            3.128    251.62  12327.25
         Mo        10.221            3.547    674.22  77634.20
         Mo        10.206            3.547    674.22  77634.20
         S          3.856            3.128    251.62  12327.25
         S          3.859            3.128    251.62  12327.25
         S          3.859            3.128    251.62  12327.25
         S          3.755            3.128    251.62  12327.25
         Mo        10.208            3.547    674.21  77634.20
         Mo        10.221            3.547    674.22  77634.20
         S          3.858            3.128    251.62  12327.25
         S          3.859            3.128    251.62  12327.25
         S          3.758            3.128    251.62  12327.25
         S          3.859            3.128    251.62  12327.25
         Mo        10.221            3.547    674.22  77634.20
         Mo        10.206            3.547    674.22  77634.20
         S          3.856            3.128    251.62  12327.25
         S          3.859            3.128    251.62  12327.25
         S          3.859            3.128    251.62  12327.25
         S          3.755            3.128    251.62  12327.25
         Mo        10.208            3.547    674.22  77634.20
         Mo        10.220            3.547    674.22  77634.20
         S          3.858            3.128    251.62  12327.25
         S          3.859            3.128    251.62  12327.25
         S          3.758            3.128    251.62  12327.25
         S          3.859            3.128    251.62  12327.25
         Mo        10.221            3.547    674.22  77634.20
         Mo        10.206            3.547    674.22  77634.20
         S          3.856            3.128    251.62  12327.25
         S          3.859            3.128    251.62  12327.25
         S          3.859            3.128    251.62  12327.25
         S          3.755            3.128    251.62  12327.25
         Mo        10.208            3.547    674.22  77634.20
         Mo        10.221            3.547    674.22  77634.20
         S          3.858            3.128    251.62  12327.25
         S          3.859            3.128    251.62  12327.25
         S          3.758            3.128    251.62  12327.25
         S          3.859            3.128    251.62  12327.25
         Mo        10.221            3.547    674.22  77634.20
         Mo        10.206            3.547    674.22  77634.20
         S          3.856            3.128    251.62  12327.25
         S          3.859            3.128    251.62  12327.25
         S          3.859            3.128    251.62  12327.25
         S          3.755            3.128    251.62  12327.25
         Mo        10.208            3.547    674.22  77634.20
         Mo        10.221            3.547    674.22  77634.20
         S          3.858            3.128    251.62  12327.25
         S          3.859            3.128    251.62  12327.25
         S          3.758            3.128    251.62  12327.25
         S          3.859            3.128    251.62  12327.25
         Mo        10.221            3.547    674.22  77634.20
         Mo        10.206            3.547    674.22  77634.20
         S          3.856            3.128    251.62  12327.25
         S          3.859            3.128    251.62  12327.25
         S          3.859            3.128    251.62  12327.25
         S          3.755            3.128    251.62  12327.25
         Mo        10.208            3.547    674.22  77634.20
         Mo        10.221            3.547    674.22  77634.20
         S          3.858            3.128    251.62  12327.25
         S          3.859            3.128    251.62  12327.25
         S          3.758            3.128    251.62  12327.25
         S          3.859            3.128    251.62  12327.25
         Mo        10.221            3.547    674.22  77634.20
         Mo        10.206            3.547    674.22  77634.20
         S          3.856            3.128    251.62  12327.25
         S          3.859            3.128    251.62  12327.25
         S          3.859            3.128    251.62  12327.25
         S          3.755            3.128    251.62  12327.25
         Mo        10.208            3.547    674.22  77634.20
         Mo        10.221            3.547    674.22  77634.20
         S          3.858            3.128    251.62  12327.25
         S          3.859            3.128    251.62  12327.25
         S          3.758            3.128    251.62  12327.25
         S          3.859            3.128    251.62  12327.25
         Mo        10.221            3.547    674.22  77634.20
         Mo        10.206            3.547    674.22  77634.20
         S          3.856            3.128    251.62  12327.25
         S          3.859            3.128    251.62  12327.25
         S          3.859            3.128    251.62  12327.25
         S          3.755            3.128    251.62  12327.25
         Mo        10.208            3.547    674.22  77634.20
         Mo        10.221            3.547    674.22  77634.20
         S          3.858            3.128    251.62  12327.25
         S          3.859            3.128    251.62  12327.25
         S          3.758            3.128    251.62  12327.25
         S          3.859            3.128    251.62  12327.25
         Mo        10.221            3.547    674.22  77634.20
         Mo        10.206            3.547    674.22  77634.20
         S          3.856            3.128    251.62  12327.25
         S          3.859            3.128    251.62  12327.25
         S          3.859            3.128    251.62  12327.25
         S          3.755            3.128    251.62  12327.25
         Mo        10.208            3.547    674.22  77634.20
         Mo        10.221            3.547    674.22  77634.20
         S          3.858            3.128    251.62  12327.25
         S          3.859            3.128    251.62  12327.25
         S          3.758            3.128    251.62  12327.25
         S          3.859            3.128    251.62  12327.25
         Mo        10.221            3.547    674.22  77634.20
         Mo        10.206            3.547    674.22  77634.20
         S          3.856            3.128    251.62  12327.25
         S          3.859            3.128    251.62  12327.25
         S          3.859            3.128    251.62  12327.25
         S          3.755            3.128    251.62  12327.25
         Mo        10.208            3.547    674.22  77634.20
         Mo        10.221            3.547    674.22  77634.20
         S          3.858            3.128    251.62  12327.25
         S          3.859            3.128    251.62  12327.25
         S          3.758            3.128    251.62  12327.25
         S          3.859            3.128    251.62  12327.25
         Mo        10.221            3.547    674.22  77634.20
         Mo        10.206            3.547    674.22  77634.20
         S          3.856            3.128    251.62  12327.25
         S          3.859            3.128    251.62  12327.25
         S          3.859            3.128    251.62  12327.25
         S          3.755            3.128    251.62  12327.25
         Mo        10.208            3.547    674.22  77634.20
         Mo        10.221            3.547    674.22  77634.20
         S          3.858            3.128    251.62  12327.25
         S          3.859            3.128    251.62  12327.25
         S          3.758            3.128    251.62  12327.25
         S          3.859            3.128    251.62  12327.25
         Mo        10.221            3.547    674.22  77634.20
         Mo        10.206            3.547    674.22  77634.20
         S          3.856            3.128    251.62  12327.25
         S          3.859            3.128    251.62  12327.25
         S          3.859            3.128    251.62  12327.25
         S          3.755            3.128    251.62  12327.25
         Mo        10.208            3.547    674.22  77634.20
         Mo        10.221            3.547    674.21  77634.20
         S          3.858            3.128    251.62  12327.25
         S          3.859            3.128    251.62  12327.25
         S          3.758            3.128    251.62  12327.25
         S          3.859            3.128    251.62  12327.25
         Mo        10.221            3.547    674.22  77634.20
         Mo        10.206            3.547    674.22  77634.20
         S          3.856            3.128    251.62  12327.25
         S          3.859            3.128    251.62  12327.25
         S          3.859            3.128    251.62  12327.25
         S          3.755            3.128    251.62  12327.25
         Mo        10.208            3.547    674.21  77634.20
         Mo        10.220            3.547    674.22  77634.20
         S          3.858            3.128    251.62  12327.25
         S          3.859            3.128    251.62  12327.25
         S          3.758            3.128    251.62  12327.25
         S          3.859            3.128    251.62  12327.25
         Mo        10.221            3.547    674.22  77634.20
         Mo        10.206            3.547    674.22  77634.20
         S          3.856            3.128    251.62  12327.25
         S          3.859            3.128    251.62  12327.25
         S          3.859            3.128    251.62  12327.25
         S          3.755            3.128    251.62  12327.25
         Mo        10.208            3.547    674.22  77634.20
         Mo        10.221            3.547    674.22  77634.20
         S          3.858            3.128    251.62  12327.25
         S          3.859            3.128    251.62  12327.25
         S          3.758            3.128    251.62  12327.25
         S          3.859            3.128    251.62  12327.25
         Mo        10.221            3.547    674.22  77634.20
         Mo        10.206            3.547    674.21  77634.20
         S          3.856            3.128    251.62  12327.25
         S          3.859            3.128    251.62  12327.25
         S          3.859            3.128    251.62  12327.25
         S          3.755            3.128    251.62  12327.25
         Mo        10.208            3.547    674.21  77634.20
         Mo        10.221            3.547    674.22  77634.20
         S          3.858            3.128    251.62  12327.25
         S          3.859            3.128    251.62  12327.25
         S          3.758            3.128    251.62  12327.25
         S          3.859            3.128    251.62  12327.25
         Mo        10.221            3.547    674.22  77634.20
         Mo        10.206            3.547    674.22  77634.20
         S          3.856            3.128    251.62  12327.25
         S          3.859            3.128    251.62  12327.25
         S          3.859            3.128    251.62  12327.25
         S          3.755            3.128    251.62  12327.25

         Molecular C6 ( Ry / a.u.^6 ) =  13613703.99


     number of k points=     4  Gaussian smearing, width (Ry)=  0.0100
                       cart. coord. in units 2pi/alat
        k(    1) = (   0.0000000   0.0000000   0.0000000), wk =   0.5000000
        k(    2) = (   0.0000000  -0.5773499   0.0000000), wk =   0.5000000
        k(    3) = (  -0.5000000  -0.2886744   0.0000000), wk =   0.5000000
        k(    4) = (  -0.5000000  -0.8660242   0.0000000), wk =   0.5000000

     Dense  grid:  7154885 G-vectors     FFT dimensions: ( 180, 180, 512)

     Smooth grid:  3090769 G-vectors     FFT dimensions: ( 135, 135, 400)

     Estimated max dynamical RAM per process >       2.37 GB

     Estimated total dynamical RAM >     113.67 GB

     Initial potential from superposition of free atoms

     starting charge    1663.9395, renormalised to    1664.0000

     negative rho (up, down):  7.225E-04 0.000E+00
     Starting wfcs are 1152 randomized atomic wfcs
     Checking if some PAW data can be deallocated... 

     total cpu time spent up to now is      136.3 secs

     Self-consistent Calculation

     iteration #  1     ecut=    77.00 Ry     beta= 0.20
     Davidson diagonalization with overlap
     ethr =  1.00E-02,  avg # of iterations =  2.0

     Threshold (ethr) on eigenvalues was too large:
     Diagonalizing with lowered threshold

     Davidson diagonalization with overlap
     c_bands:  4 eigenvalues not converged
     c_bands:  1 eigenvalues not converged
     c_bands:  5 eigenvalues not converged
     ethr =  1.14E-04,  avg # of iterations = 20.5

     negative rho (up, down):  1.639E-04 0.000E+00

     total cpu time spent up to now is     2109.8 secs

     total energy              =  -31793.75031578 Ry
     estimated scf accuracy    <       6.75862839 Ry

     iteration #  2     ecut=    77.00 Ry     beta= 0.20
     Davidson diagonalization with overlap
     ethr =  4.06E-04,  avg # of iterations =  1.0

     negative rho (up, down):  1.569E-05 0.000E+00

     total cpu time spent up to now is     2387.0 secs

     total energy              =  -31792.25450525 Ry
     estimated scf accuracy    <       3.53496753 Ry

     iteration #  3     ecut=    77.00 Ry     beta= 0.20
     Davidson diagonalization with overlap
     ethr =  2.12E-04,  avg # of iterations =  6.0

     negative rho (up, down):  1.147E-05 0.000E+00

     total cpu time spent up to now is     2759.9 secs

     total energy              =  -31792.67882410 Ry
     estimated scf accuracy    <       0.52717197 Ry

     iteration #  4     ecut=    77.00 Ry     beta= 0.20
     Davidson diagonalization with overlap
     ethr =  3.17E-05,  avg # of iterations = 16.0

     negative rho (up, down):  5.881E-06 0.000E+00

     total cpu time spent up to now is     3991.2 secs

     total energy              =  -31794.16955939 Ry
     estimated scf accuracy    <       0.78556616 Ry

     iteration #  5     ecut=    77.00 Ry     beta= 0.20
     Davidson diagonalization with overlap
     ethr =  3.17E-05,  avg # of iterations =  4.5

     negative rho (up, down):  1.155E-06 0.000E+00

     total cpu time spent up to now is     4309.7 secs

     total energy              =  -31795.58024164 Ry
     estimated scf accuracy    <       1.13138259 Ry

     iteration #  6     ecut=    77.00 Ry     beta= 0.20
     Davidson diagonalization with overlap
     ethr =  3.17E-05,  avg # of iterations = 14.5

     negative rho (up, down):  4.823E-05 0.000E+00

     total cpu time spent up to now is     5251.0 secs

     total energy              =  -31792.77700569 Ry
     estimated scf accuracy    <       7.86063093 Ry

     iteration #  7     ecut=    77.00 Ry     beta= 0.20
     Davidson diagonalization with overlap
     ethr =  3.17E-05,  avg # of iterations = 10.8

     negative rho (up, down):  1.169E-04 0.000E+00

     total cpu time spent up to now is     5962.4 secs

     total energy              =  -31793.33121182 Ry
     estimated scf accuracy    <       0.92265199 Ry

     iteration #  8     ecut=    77.00 Ry     beta= 0.20
     Davidson diagonalization with overlap
     ethr =  3.17E-05,  avg # of iterations =  8.5

     negative rho (up, down):  1.268E-04 0.000E+00

     total cpu time spent up to now is     6411.1 secs

     total energy              =  -31793.51648911 Ry
     estimated scf accuracy    <       0.11400781 Ry

     iteration #  9     ecut=    77.00 Ry     beta= 0.20
     Davidson diagonalization with overlap
     ethr =  6.85E-06,  avg # of iterations =  8.5

     negative rho (up, down):  1.240E-04 0.000E+00

     total cpu time spent up to now is     7122.0 secs

     total energy              =  -31793.70314031 Ry
     estimated scf accuracy    <       0.01562483 Ry

     iteration # 10     ecut=    77.00 Ry     beta= 0.20
     Davidson diagonalization with overlap
     c_bands:  4 eigenvalues not converged
     c_bands:  4 eigenvalues not converged
     c_bands:  4 eigenvalues not converged
     ethr =  9.39E-07,  avg # of iterations = 31.2

     negative rho (up, down):  1.251E-04 0.000E+00

     total cpu time spent up to now is     8214.1 secs

     total energy              =  -31793.71612668 Ry
     estimated scf accuracy    <       0.01667598 Ry

     iteration # 11     ecut=    77.00 Ry     beta= 0.20
     Davidson diagonalization with overlap
     c_bands:  5 eigenvalues not converged
     c_bands:  2 eigenvalues not converged
     ethr =  9.39E-07,  avg # of iterations = 13.0

     negative rho (up, down):  3.774E-04 0.000E+00

     total cpu time spent up to now is     8544.9 secs

     total energy              =  -31793.71420038 Ry
     estimated scf accuracy    <       0.01359258 Ry

     iteration # 12     ecut=    77.00 Ry     beta= 0.20
     Davidson diagonalization with overlap
     c_bands:  4 eigenvalues not converged
     c_bands:  4 eigenvalues not converged
     c_bands:  2 eigenvalues not converged
     ethr =  8.17E-07,  avg # of iterations = 21.2

     negative rho (up, down):  1.029E-03 0.000E+00

     total cpu time spent up to now is     9120.3 secs

     total energy              =  -31793.72439488 Ry
     estimated scf accuracy    <       0.01837820 Ry

     iteration # 13     ecut=    77.00 Ry     beta= 0.20
     Davidson diagonalization with overlap
     c_bands:  4 eigenvalues not converged
     c_bands:  4 eigenvalues not converged
     ethr =  8.17E-07,  avg # of iterations = 10.8

     negative rho (up, down):  1.411E-03 0.000E+00

     total cpu time spent up to now is     9447.3 secs

     total energy              =  -31793.72551678 Ry
     estimated scf accuracy    <       0.03262523 Ry

     iteration # 14     ecut=    77.00 Ry     beta= 0.20
     Davidson diagonalization with overlap
     c_bands:  2 eigenvalues not converged
     c_bands:  2 eigenvalues not converged
     ethr =  8.17E-07,  avg # of iterations = 10.5

     negative rho (up, down):  1.522E-03 0.000E+00

     total cpu time spent up to now is     9772.7 secs

     total energy              =  -31793.72769900 Ry
     estimated scf accuracy    <       0.03286015 Ry

     iteration # 15     ecut=    77.00 Ry     beta= 0.20
     Davidson diagonalization with overlap
     c_bands:  2 eigenvalues not converged
     ethr =  8.17E-07,  avg # of iterations =  6.5

     negative rho (up, down):  1.517E-03 0.000E+00

     total cpu time spent up to now is    10096.2 secs

     total energy              =  -31793.72980876 Ry
     estimated scf accuracy    <       0.03754786 Ry

     iteration # 16     ecut=    77.00 Ry     beta= 0.20
     Davidson diagonalization with overlap
     c_bands:  3 eigenvalues not converged
     ethr =  8.17E-07,  avg # of iterations =  8.0

     negative rho (up, down):  1.513E-03 0.000E+00

     total cpu time spent up to now is    10418.4 secs

     total energy              =  -31793.72896168 Ry
     estimated scf accuracy    <       0.04132508 Ry

     iteration # 17     ecut=    77.00 Ry     beta= 0.20
     Davidson diagonalization with overlap
     c_bands:  1 eigenvalues not converged
     ethr =  8.17E-07,  avg # of iterations =  5.8

     negative rho (up, down):  1.563E-03 0.000E+00

     total cpu time spent up to now is    10712.5 secs

     total energy              =  -31793.76829866 Ry
     estimated scf accuracy    <       0.03957436 Ry

     iteration # 18     ecut=    77.00 Ry     beta= 0.20
     Davidson diagonalization with overlap
     ethr =  8.17E-07,  avg # of iterations = 12.5

     negative rho (up, down):  2.007E-04 0.000E+00

     total cpu time spent up to now is    11583.2 secs

     total energy              =  -31793.72222121 Ry
     estimated scf accuracy    <       0.24395518 Ry

     iteration # 19     ecut=    77.00 Ry     beta= 0.20
     Davidson diagonalization with overlap
     ethr =  8.17E-07,  avg # of iterations =  7.8

     negative rho (up, down):  3.576E-04 0.000E+00

     total cpu time spent up to now is    12041.2 secs

     total energy              =  -31793.70510815 Ry
     estimated scf accuracy    <       0.08428927 Ry

     iteration # 20     ecut=    77.00 Ry     beta= 0.20
     Davidson diagonalization with overlap
     ethr =  8.17E-07,  avg # of iterations =  7.2

     negative rho (up, down):  6.586E-04 0.000E+00

     total cpu time spent up to now is    12564.9 secs

     total energy              =  -31793.69983937 Ry
     estimated scf accuracy    <       0.02425511 Ry

     iteration # 21     ecut=    77.00 Ry     beta= 0.20
     Davidson diagonalization with overlap
     ethr =  8.17E-07,  avg # of iterations = 10.8

     negative rho (up, down):  6.679E-04 0.000E+00

     total cpu time spent up to now is    13230.7 secs

     total energy              =  -31793.71741405 Ry
     estimated scf accuracy    <       0.00279853 Ry

     iteration # 22     ecut=    77.00 Ry     beta= 0.20
     Davidson diagonalization with overlap
     ethr =  1.68E-07,  avg # of iterations = 13.8

     negative rho (up, down):  8.079E-04 0.000E+00

     total cpu time spent up to now is    14012.0 secs

     total energy              =  -31793.71633877 Ry
     estimated scf accuracy    <       0.02600653 Ry

     iteration # 23     ecut=    77.00 Ry     beta= 0.20
     Davidson diagonalization with overlap
     ethr =  1.68E-07,  avg # of iterations =  7.0

     negative rho (up, down):  8.020E-04 0.000E+00

     total cpu time spent up to now is    14368.5 secs

     total energy              =  -31793.71037982 Ry
     estimated scf accuracy    <       0.01127152 Ry

     iteration # 24     ecut=    77.00 Ry     beta= 0.20
     Davidson diagonalization with overlap
     ethr =  1.68E-07,  avg # of iterations = 11.8

     negative rho (up, down):  8.237E-04 0.000E+00

     total cpu time spent up to now is    15181.4 secs

     total energy              =  -31793.71491407 Ry
     estimated scf accuracy    <       0.00028339 Ry

     iteration # 25     ecut=    77.00 Ry     beta= 0.20
     Davidson diagonalization with overlap
     c_bands:  2 eigenvalues not converged
     ethr =  1.70E-08,  avg # of iterations = 16.0

     negative rho (up, down):  8.009E-04 0.000E+00

     total cpu time spent up to now is    16081.3 secs

     total energy              =  -31793.71530570 Ry
     estimated scf accuracy    <       0.00028913 Ry

     iteration # 26     ecut=    77.00 Ry     beta= 0.20
     Davidson diagonalization with overlap
     c_bands:  2 eigenvalues not converged
     ethr =  1.70E-08,  avg # of iterations =  6.5

     negative rho (up, down):  7.937E-04 0.000E+00

     total cpu time spent up to now is    16403.6 secs

     total energy              =  -31793.71520099 Ry
     estimated scf accuracy    <       0.00016108 Ry

     iteration # 27     ecut=    77.00 Ry     beta= 0.20
     Davidson diagonalization with overlap
     c_bands:  2 eigenvalues not converged
     ethr =  9.68E-09,  avg # of iterations = 13.8

     negative rho (up, down):  8.045E-04 0.000E+00

     total cpu time spent up to now is    17122.3 secs

     total energy              =  -31793.71530835 Ry
     estimated scf accuracy    <       0.00025476 Ry

     iteration # 28     ecut=    77.00 Ry     beta= 0.20
     Davidson diagonalization with overlap
     c_bands:  2 eigenvalues not converged
     ethr =  9.68E-09,  avg # of iterations =  6.0

     negative rho (up, down):  8.189E-04 0.000E+00

     total cpu time spent up to now is    17429.4 secs

     total energy              =  -31793.71524716 Ry
     estimated scf accuracy    <       0.00007964 Ry

     iteration # 29     ecut=    77.00 Ry     beta= 0.20
     Davidson diagonalization with overlap
     ethr =  4.79E-09,  avg # of iterations = 14.0

     negative rho (up, down):  8.343E-04 0.000E+00

     total cpu time spent up to now is    18190.3 secs

     total energy              =  -31793.71530246 Ry
     estimated scf accuracy    <       0.00017373 Ry

     iteration # 30     ecut=    77.00 Ry     beta= 0.20
     Davidson diagonalization with overlap
     ethr =  4.79E-09,  avg # of iterations =  2.5

     negative rho (up, down):  8.470E-04 0.000E+00

     total cpu time spent up to now is    18484.6 secs

     total energy              =  -31793.71527548 Ry
     estimated scf accuracy    <       0.00004431 Ry

     iteration # 31     ecut=    77.00 Ry     beta= 0.20
     Davidson diagonalization with overlap
     ethr =  2.66E-09,  avg # of iterations =  8.2

     negative rho (up, down):  8.584E-04 0.000E+00

     total cpu time spent up to now is    19036.9 secs

     total energy              =  -31793.71530831 Ry
     estimated scf accuracy    <       0.00000527 Ry

     iteration # 32     ecut=    77.00 Ry     beta= 0.20
     Davidson diagonalization with overlap
     c_bands:  4 eigenvalues not converged
     ethr =  3.17E-10,  avg # of iterations = 17.8

     negative rho (up, down):  8.567E-04 0.000E+00

     total cpu time spent up to now is    19945.2 secs

     total energy              =  -31793.71531112 Ry
     estimated scf accuracy    <       0.00001814 Ry

     iteration # 33     ecut=    77.00 Ry     beta= 0.20
     Davidson diagonalization with overlap
     ethr =  3.17E-10,  avg # of iterations =  2.0

     negative rho (up, down):  8.545E-04 0.000E+00

     total cpu time spent up to now is    20253.9 secs

     total energy              =  -31793.71530630 Ry
     estimated scf accuracy    <       0.00000876 Ry

     iteration # 34     ecut=    77.00 Ry     beta= 0.20
     Davidson diagonalization with overlap
     ethr =  3.17E-10,  avg # of iterations = 12.8

     negative rho (up, down):  8.560E-04 0.000E+00

     total cpu time spent up to now is    20939.5 secs

     total energy              =  -31793.71531110 Ry
     estimated scf accuracy    <       0.00000301 Ry

     iteration # 35     ecut=    77.00 Ry     beta= 0.20
     Davidson diagonalization with overlap
     ethr =  1.81E-10,  avg # of iterations =  1.8

     negative rho (up, down):  8.564E-04 0.000E+00

     total cpu time spent up to now is    21240.2 secs

     total energy              =  -31793.71531066 Ry
     estimated scf accuracy    <       0.00000122 Ry

     iteration # 36     ecut=    77.00 Ry     beta= 0.20
     Davidson diagonalization with overlap
     ethr =  7.35E-11,  avg # of iterations = 11.2

     negative rho (up, down):  8.558E-04 0.000E+00

     total cpu time spent up to now is    21606.3 secs

     End of self-consistent calculation

          k = 0.0000 0.0000 0.0000 (386245 PWs)   bands (ev):

   -66.7707 -66.7707 -66.7694 -66.7684 -66.7494 -66.7494 -66.7494 -66.7494
   -66.7494 -66.7494 -66.7494 -66.7494 -66.7494 -66.7494 -66.7494 -66.7494
   -66.7481 -66.7481 -66.7481 -66.7481 -66.7481 -66.7481 -66.7472 -66.7472
   -66.7472 -66.7472 -66.7472 -66.7471 -66.7280 -66.7280 -66.7280 -66.7280
   -66.7280 -66.7280 -66.7280 -66.7280 -66.7280 -66.7280 -66.7280 -66.7280
   -66.7280 -66.7280 -66.7280 -66.7280 -66.7280 -66.7280 -66.7267 -66.7267
   -66.7267 -66.7267 -66.7267 -66.7267 -66.7267 -66.7267 -66.7267 -66.7258
   -66.7258 -66.7258 -66.7258 -66.7258 -66.7258 -66.7258 -66.7258 -66.7258
   -41.0981 -41.0981 -41.0981 -41.0981 -41.0981 -41.0981 -41.0975 -41.0975
   -41.0975 -41.0944 -41.0944 -41.0944 -41.0228 -41.0228 -41.0228 -41.0228
   -41.0228 -41.0228 -41.0228 -41.0228 -41.0228 -41.0228 -41.0228 -41.0228
   -41.0221 -41.0221 -41.0221 -41.0221 -41.0221 -41.0221 -41.0191 -41.0191
   -41.0191 -41.0191 -41.0191 -41.0191 -40.9303 -40.9303 -40.9297 -40.9278
   -40.8965 -40.8965 -40.8965 -40.8965 -40.8964 -40.8964 -40.8964 -40.8964
   -40.8964 -40.8964 -40.8964 -40.8964 -40.8956 -40.8956 -40.8956 -40.8956
   -40.8956 -40.8956 -40.8929 -40.8929 -40.8929 -40.8929 -40.8929 -40.8929
   -40.8886 -40.8886 -40.8886 -40.8886 -40.8886 -40.8886 -40.8886 -40.8886
   -40.8886 -40.8886 -40.8886 -40.8886 -40.8879 -40.8879 -40.8879 -40.8879
   -40.8879 -40.8879 -40.8862 -40.8862 -40.8862 -40.8862 -40.8862 -40.8862
   -40.8614 -40.8614 -40.8614 -40.8614 -40.8614 -40.8614 -40.8614 -40.8614
   -40.8614 -40.8614 -40.8614 -40.8614 -40.8605 -40.8605 -40.8605 -40.8605
   -40.8605 -40.8605 -40.8579 -40.8579 -40.8579 -40.8579 -40.8579 -40.8579
   -40.8466 -40.8466 -40.8466 -40.8466 -40.8466 -40.8466 -40.8466 -40.8466
   -40.8466 -40.8466 -40.8466 -40.8466 -40.8466 -40.8466 -40.8466 -40.8466
   -40.8466 -40.8466 -40.8459 -40.8459 -40.8459 -40.8459 -40.8459 -40.8459
   -40.8459 -40.8459 -40.8459 -40.8443 -40.8443 -40.8443 -40.8443 -40.8443
   -40.8443 -40.8443 -40.8442 -40.8442 -40.7831 -40.7831 -40.7831 -40.7831
   -40.7831 -40.7831 -40.7821 -40.7821 -40.7821 -40.7797 -40.7797 -40.7796
   -40.7360 -40.7360 -40.7360 -40.7360 -40.7359 -40.7359 -40.7359 -40.7359
   -40.7359 -40.7359 -40.7359 -40.7359 -40.7350 -40.7350 -40.7350 -40.7350
   -40.7350 -40.7350 -40.7326 -40.7326 -40.7326 -40.7326 -40.7326 -40.7326
   -40.6883 -40.6883 -40.6883 -40.6883 -40.6873 -40.6873 -40.6850 -40.6850
   -20.2648 -20.1901 -20.0936 -20.0160 -19.3931 -19.3931 -19.3931 -19.3931
   -19.3930 -19.3930 -19.3273 -19.3273 -19.3273 -19.3273 -19.3273 -19.3273
   -19.2396 -19.2396 -19.2396 -19.2396 -19.2396 -19.2396 -19.1666 -19.1666
   -19.1666 -19.1666 -19.1666 -19.1666 -19.0261 -18.8842 -18.7357 -18.6304
   -18.6109 -18.6109 -18.6109 -18.6109 -18.6109 -18.6109 -18.5003 -18.5003
   -18.5003 -18.5003 -18.5003 -18.5003 -18.3923 -18.3923 -18.3923 -18.3923
   -18.3923 -18.3923 -18.3193 -18.3193 -18.3193 -18.3193 -18.3193 -18.3193
   -18.2684 -18.2684 -18.2684 -18.2684 -18.2683 -18.2683 -18.2357 -18.2357
   -18.2357 -18.2356 -18.2356 -18.2356 -18.2245 -18.2245 -18.2245 -18.1973
   -18.1973 -18.1973 -18.1878 -18.1878 -18.1878 -18.1877 -18.1877 -18.1877
   -18.1581 -18.1581 -18.1580 -18.1390 -18.1390 -18.1390 -18.1390 -18.1390
   -18.1390 -18.1188 -18.1188 -18.1188 -18.0596 -18.0596 -18.0595 -18.0544
   -18.0543 -18.0543 -18.0543 -18.0543 -18.0543 -18.0227 -18.0227 -18.0227
   -18.0026 -18.0025 -18.0025 -18.0025 -18.0025 -18.0025 -17.9969 -17.9969
   -17.9969 -17.9841 -17.9840 -17.9840 -17.9626 -17.9626 -17.9626 -17.9625
   -17.9625 -17.9625 -17.9394 -17.9394 -17.9394 -17.9393 -17.9393 -17.9393
   -12.1201 -11.9610 -11.9610 -11.9610 -11.8714 -11.8714 -11.8714 -11.8642
   -11.7629 -11.7629 -11.7629 -11.6825 -11.6825 -11.6825 -11.5232 -11.3816
   -11.3815 -11.3815 -11.3815 -11.3815 -11.3815 -11.2799 -11.2798 -11.2798
   -11.2798 -11.2798 -11.2798 -11.2221 -11.2062 -11.2062 -11.2062 -11.2062
   -11.2062 -11.2062 -11.1952 -11.1952 -11.1952 -11.1952 -11.1952 -11.1951
   -11.1185 -11.1185 -11.1185 -11.1184 -11.1184 -11.1184 -11.0518 -11.0518
   -11.0518 -11.0518 -11.0518 -11.0518 -10.9968 -10.9968 -10.9968 -10.9863
   -10.9863 -10.9863 -10.9863 -10.9863 -10.9862 -10.9479 -10.9479 -10.9479
   -10.9430 -10.9429 -10.9429 -10.9429 -10.9429 -10.9429 -10.9411 -10.9411
   -10.9411 -10.9411 -10.9411 -10.9411 -10.9034 -10.9034 -10.9034 -10.9034
   -10.9034 -10.9034 -10.8767 -10.8767 -10.8767 -10.8767 -10.8767 -10.8767
   -10.8592 -10.8592 -10.8592 -10.7769 -10.7769 -10.7768 -10.7169 -10.7169
   -10.7169 -10.7169 -10.7169 -10.7169 -10.3251 -10.3251 -10.3251 -10.1165
   -10.1165 -10.1164  -9.9442  -9.9442  -9.9442  -9.9442  -9.9442  -9.9442
    -9.9145  -9.9145  -9.9145  -9.9109  -9.9109  -9.9109  -9.9109  -9.9109
    -9.9108  -9.8878  -9.8878  -9.8878  -9.8878  -9.8878  -9.8877  -9.7725
    -9.7725  -9.7725  -9.7667  -9.7667  -9.7667  -9.7667  -9.7667  -9.7666
    -9.7576  -9.7576  -9.7576  -9.7576  -9.7576  -9.7575  -9.6893  -9.6893
    -9.6893  -9.6893  -9.6893  -9.6893  -9.6788  -9.6788  -9.6788  -9.6788
    -9.6788  -9.6788  -9.6517  -9.6516  -9.6516  -9.6516  -9.6516  -9.6516
    -9.5854  -9.5854  -9.5854  -9.5854  -9.5854  -9.5854  -9.4636  -9.4636
    -9.4636  -9.4636  -9.4636  -9.4636  -9.4443  -9.4443  -9.4443  -9.4443
    -9.4443  -9.4443  -9.3566  -9.3566  -9.3566  -9.3566  -9.3566  -9.3566
    -9.3201  -9.3201  -9.3200  -9.3200  -9.3200  -9.3200  -9.2374  -9.2374
    -9.2374  -9.2374  -9.2374  -9.2374  -9.1303  -9.1303  -9.1303  -9.1054
    -9.1053  -9.1053  -9.0763  -9.0762  -9.0762  -9.0598  -9.0598  -9.0598
    -9.0598  -9.0597  -9.0597  -9.0562  -9.0562  -9.0562  -8.9693  -8.9693
    -8.9693  -8.9693  -8.9693  -8.9693  -8.9614  -8.9613  -8.9613  -8.9613
    -8.9613  -8.9613  -8.8686  -8.8686  -8.8686  -8.8686  -8.8686  -8.8686
    -8.7851  -8.7851  -8.7851  -8.7851  -8.7851  -8.7850  -8.7300  -8.7299
    -8.7299  -8.7299  -8.7299  -8.7299  -8.6483  -8.5130  -8.5129  -8.5083
    -8.5083  -8.5018  -8.5018  -8.4916  -8.4916  -8.4248  -8.4248  -8.4248
    -8.4247  -8.4247  -8.4247  -8.4032  -8.4032  -8.4032  -8.4031  -8.4031
    -8.4031  -8.3774  -8.3774  -8.3774  -8.3774  -8.3774  -8.3773  -8.3597
    -8.3597  -8.3596  -8.3596  -8.3596  -8.3596  -8.1478  -8.0125  -8.0124
    -8.0123  -7.9389  -7.9389  -7.9389  -7.8483  -7.8483  -7.8483  -7.7828
    -7.7827  -7.7826  -7.7670  -7.7670  -7.7670  -7.7669  -7.7669  -7.7669
    -7.6839  -7.6838  -7.6838  -7.6838  -7.6838  -7.6838  -7.6800  -7.6800
    -7.6800  -7.6800  -7.6800  -7.6800  -7.6615  -7.6615  -7.6615  -7.6615
    -7.6615  -7.6615  -7.6375  -7.6375  -7.6375  -7.6375  -7.6375  -7.6374
    -7.6220  -7.6220  -7.6220  -7.6220  -7.6219  -7.6219  -7.5465  -7.5465
    -7.5465  -7.5465  -7.5465  -7.5465  -7.5443  -7.5443  -7.5443  -7.5443
    -7.5443  -7.5442  -7.5147  -7.4318  -7.4318  -7.4318  -7.4318  -7.4318
    -7.4318  -7.4115  -7.4115  -7.4115  -7.4115  -7.4115  -7.4115  -7.3988
    -7.3988  -7.3834  -7.3834  -7.3657  -7.3657  -7.3540  -7.3540  -7.2019
    -7.2019  -7.2019  -7.2019  -7.2019  -7.2019  -6.9776  -6.9775  -6.9775
    -6.9775  -6.9775  -6.9775  -6.9370  -6.9369  -6.9369  -6.8740  -6.8740
    -6.8740  -6.8585  -6.8042  -6.8042  -6.8042  -6.7548  -6.7548  -6.7548
    -6.7453  -6.7453  -6.7453  -6.7453  -6.7453  -6.7453  -6.6775  -6.6775
    -6.6775  -6.6775  -6.6775  -6.6775  -6.6564  -6.6564  -6.6564  -6.6481
    -6.6481  -6.6481  -6.6481  -6.6481  -6.6481  -6.6419  -6.6418  -6.6418
    -6.6418  -6.6418  -6.6418  -6.6101  -6.6101  -6.6101  -6.5701  -6.5701
    -6.5700  -6.5506  -6.5505  -6.5505  -6.4823  -6.4822  -6.4821  -6.4821
    -6.4821  -6.4820  -6.4499  -6.4499  -6.4499  -6.4498  -6.4498  -6.4498
    -6.4153  -6.4152  -6.4152  -6.4152  -6.4152  -6.4152  -6.3922  -6.3921
    -6.3921  -6.3921  -6.3920  -6.3919  -6.3115  -5.8156  -5.4878  -5.3037
    -3.9911  -3.9911  -3.9911  -3.9911  -3.9911  -3.9910  -3.9665  -3.9664
    -3.9664  -3.9664  -3.9663  -3.9663  -3.8225  -3.8224  -3.8224  -3.8224
    -3.8224  -3.8224  -3.8180  -3.8179  -3.8179  -3.8179  -3.8178  -3.8178
    -3.6331  -3.6331  -3.6330  -3.6330  -3.6330  -3.6329  -3.6183  -3.6182
    -3.6182  -3.6182  -3.6181  -3.6181  -3.5912  -3.5912  -3.5911  -3.5911
    -3.5911  -3.5911  -3.5889  -3.5889  -3.5889  -3.5755  -3.5755  -3.5754
    -3.5594  -3.5593  -3.5593  -3.5564  -3.5564  -3.5564  -3.5564  -3.5564
    -3.5563  -3.5479  -3.5479  -3.5478  -3.4825  -3.4824  -3.4823  -3.4823
    -3.4823  -3.4822  -3.4804  -3.4804  -3.4804  -3.4804  -3.4804  -3.4803
    -3.4263  -3.4263  -3.4263  -3.4263  -3.4262  -3.4262  -3.3478  -3.3478
    -3.3478  -3.3478  -3.3478  -3.3477  -3.2041  -3.2038  -3.2038  -3.2036
    -3.2035  -3.2034  -3.1855  -3.1854  -3.1854  -3.1171  -3.1170  -3.1169
    -3.1166  -3.1164  -3.1159  -3.1090  -3.1089  -3.1056  -3.1056  -3.1055
    -3.1012  -3.1010  -3.0886  -3.0886  -3.0885  -3.0885  -3.0884  -3.0884
    -3.0843  -3.0842  -3.0753  -3.0752  -3.0711  -3.0709  -3.0709  -3.0708
    -3.0705  -3.0705  -3.0148  -3.0148  -3.0148  -2.9518  -2.9516  -2.9515
    -2.9512  -2.9511  -2.9510  -2.9473  -2.9472  -2.9471  -2.9459  -2.9457
    -2.9453  -2.9451  -2.9447  -2.9444  -2.9351  -2.9351  -2.8818  -2.8818
    -2.8817  -2.8817  -2.8817  -2.8816  -2.8760  -2.8758  -2.8188  -2.8188
    -2.7826  -2.7821  -2.7637  -2.7636  -2.7632  -2.7631  -2.7621  -2.7613
    -2.6913  -2.6913  -2.6912  -2.6911  -2.6911  -2.6910

          k = 0.0000-0.5773 0.0000 (386352 PWs)   bands (ev):

   -66.7645 -66.7644 -66.7644 -66.7644 -66.7632 -66.7632 -66.7622 -66.7622
   -66.7538 -66.7538 -66.7538 -66.7538 -66.7525 -66.7525 -66.7516 -66.7516
   -66.7387 -66.7387 -66.7387 -66.7387 -66.7387 -66.7387 -66.7387 -66.7387
   -66.7374 -66.7374 -66.7374 -66.7374 -66.7365 -66.7365 -66.7365 -66.7365
   -66.7343 -66.7342 -66.7342 -66.7342 -66.7330 -66.7330 -66.7320 -66.7320
   -66.7280 -66.7280 -66.7280 -66.7280 -66.7280 -66.7280 -66.7280 -66.7280
   -66.7267 -66.7267 -66.7267 -66.7267 -66.7258 -66.7258 -66.7258 -66.7258
   -66.7235 -66.7235 -66.7235 -66.7235 -66.7222 -66.7222 -66.7213 -66.7213
   -41.0665 -41.0665 -41.0665 -41.0665 -41.0665 -41.0665 -41.0665 -41.0665
   -41.0658 -41.0658 -41.0658 -41.0658 -41.0628 -41.0628 -41.0628 -41.0628
   -41.0397 -41.0397 -41.0397 -41.0397 -41.0390 -41.0390 -41.0360 -41.0360
   -41.0276 -41.0276 -41.0276 -41.0276 -41.0269 -41.0269 -41.0239 -41.0239
   -40.9769 -40.9769 -40.9769 -40.9769 -40.9769 -40.9769 -40.9769 -40.9769
   -40.9762 -40.9762 -40.9762 -40.9762 -40.9733 -40.9733 -40.9733 -40.9733
   -40.9181 -40.9181 -40.9181 -40.9181 -40.9175 -40.9175 -40.9157 -40.9157
   -40.9086 -40.9086 -40.9086 -40.9086 -40.9078 -40.9078 -40.9051 -40.9051
   -40.8973 -40.8973 -40.8972 -40.8972 -40.8966 -40.8966 -40.8949 -40.8949
   -40.8676 -40.8676 -40.8676 -40.8676 -40.8676 -40.8676 -40.8676 -40.8676
   -40.8670 -40.8670 -40.8670 -40.8670 -40.8653 -40.8653 -40.8653 -40.8653
   -40.8589 -40.8589 -40.8589 -40.8589 -40.8582 -40.8582 -40.8566 -40.8566
   -40.8472 -40.8472 -40.8471 -40.8471 -40.8466 -40.8466 -40.8466 -40.8466
   -40.8466 -40.8466 -40.8466 -40.8466 -40.8463 -40.8463 -40.8459 -40.8459
   -40.8459 -40.8459 -40.8443 -40.8443 -40.8443 -40.8443 -40.8436 -40.8436
   -40.8379 -40.8379 -40.8379 -40.8379 -40.8372 -40.8372 -40.8356 -40.8356
   -40.8162 -40.8162 -40.8162 -40.8162 -40.8162 -40.8162 -40.8162 -40.8162
   -40.8153 -40.8153 -40.8153 -40.8153 -40.8128 -40.8128 -40.8128 -40.8127
   -40.7815 -40.7815 -40.7815 -40.7815 -40.7815 -40.7815 -40.7814 -40.7814
   -40.7805 -40.7805 -40.7805 -40.7805 -40.7780 -40.7780 -40.7780 -40.7780
   -40.7693 -40.7693 -40.7693 -40.7693 -40.7684 -40.7684 -40.7659 -40.7659
   -40.7500 -40.7500 -40.7500 -40.7500 -40.7490 -40.7490 -40.7466 -40.7466
   -40.7330 -40.7330 -40.7330 -40.7330 -40.7320 -40.7320 -40.7296 -40.7296
   -40.7023 -40.7023 -40.7023 -40.7023 -40.7013 -40.7013 -40.6990 -40.6990
   -20.0271 -20.0271 -19.9539 -19.9539 -19.8588 -19.8588 -19.7817 -19.7817
   -19.5898 -19.5898 -19.5212 -19.5211 -19.4304 -19.4304 -19.3555 -19.3555
   -18.9128 -18.9128 -18.8745 -18.8745 -18.8745 -18.8745 -18.8195 -18.8195
   -18.8195 -18.8195 -18.7787 -18.7787 -18.7437 -18.7437 -18.7437 -18.7437
   -18.7037 -18.7037 -18.6782 -18.6782 -18.6782 -18.6782 -18.6405 -18.6405
   -18.6225 -18.6225 -18.5852 -18.5852 -18.5759 -18.5759 -18.5436 -18.5436
   -18.5105 -18.5105 -18.4671 -18.4671 -18.4522 -18.4521 -18.3863 -18.3863
   -18.3611 -18.3611 -18.3611 -18.3611 -18.2730 -18.2730 -18.2730 -18.2730
   -18.2483 -18.2483 -18.2471 -18.2471 -18.2471 -18.2471 -18.2171 -18.2171
   -18.2171 -18.2171 -18.1930 -18.1930 -18.1930 -18.1929 -18.1762 -18.1762
   -18.1733 -18.1733 -18.1733 -18.1733 -18.1412 -18.1412 -18.1412 -18.1411
   -18.1287 -18.1287 -18.1287 -18.1287 -18.1146 -18.1146 -18.0764 -18.0764
   -18.0574 -18.0574 -18.0574 -18.0574 -18.0126 -18.0126 -18.0126 -18.0126
   -17.9793 -17.9793 -17.9793 -17.9793 -17.9650 -17.9650 -17.9610 -17.9610
   -17.9610 -17.9610 -17.9526 -17.9526 -17.9346 -17.9346 -17.9105 -17.9105
   -17.8929 -17.8928 -17.8764 -17.8764 -17.8657 -17.8657 -17.8596 -17.8596
   -11.8581 -11.8581 -11.6576 -11.6576 -11.6576 -11.6576 -11.6256 -11.6256
   -11.6112 -11.6111 -11.5729 -11.5729 -11.5729 -11.5729 -11.5317 -11.5317
   -11.4702 -11.4702 -11.4702 -11.4702 -11.4592 -11.4591 -11.4144 -11.4144
   -11.4072 -11.4072 -11.3966 -11.3966 -11.3966 -11.3966 -11.3683 -11.3683
   -11.3250 -11.3250 -11.3182 -11.3182 -11.3110 -11.3110 -11.3110 -11.3110
   -11.2784 -11.2784 -11.2756 -11.2756 -11.2416 -11.2416 -11.1921 -11.1921
   -11.1920 -11.1920 -11.0815 -11.0815 -11.0423 -11.0423 -11.0423 -11.0423
   -11.0106 -11.0106 -10.9711 -10.9711 -10.9581 -10.9581 -10.9581 -10.9581
   -10.9509 -10.9509 -10.9387 -10.9387 -10.9349 -10.9349 -10.9349 -10.9349
   -10.9314 -10.9314 -10.9309 -10.9309 -10.9309 -10.9309 -10.8961 -10.8961
   -10.8961 -10.8961 -10.8783 -10.8783 -10.8783 -10.8783 -10.6771 -10.6771
   -10.6567 -10.6567 -10.6134 -10.6134 -10.5123 -10.5123 -10.3776 -10.3776
   -10.2799 -10.2799 -10.2799 -10.2798 -10.2210 -10.2210 -10.2210 -10.2209
   -10.1940 -10.1940 -10.1940 -10.1940 -10.1432 -10.1432 -10.1432 -10.1432
   -10.1431 -10.1431 -10.0576 -10.0576 -10.0576 -10.0576 -10.0418 -10.0418
   -10.0378 -10.0378 -10.0378 -10.0378  -9.9934  -9.9934  -9.9304  -9.9304
    -9.9121  -9.9121  -9.9120  -9.9120  -9.8794  -9.8794  -9.8488  -9.8488
    -9.8488  -9.8488  -9.7934  -9.7934  -9.7934  -9.7934  -9.7669  -9.7669
    -9.7361  -9.7361  -9.6762  -9.6762  -9.6762  -9.6762  -9.6750  -9.6750
    -9.6749  -9.6749  -9.6481  -9.6481  -9.6267  -9.6267  -9.6032  -9.6032
    -9.6007  -9.6007  -9.5767  -9.5767  -9.5571  -9.5571  -9.5571  -9.5571
    -9.4768  -9.4768  -9.3766  -9.3766  -9.3687  -9.3686  -9.3172  -9.3172
    -9.3172  -9.3172  -9.2957  -9.2957  -9.2957  -9.2957  -9.2280  -9.2280
    -9.1978  -9.1978  -9.1879  -9.1879  -9.1639  -9.1639  -9.1639  -9.1639
    -9.1484  -9.1484  -9.1484  -9.1484  -9.0909  -9.0909  -9.0648  -9.0648
    -9.0648  -9.0648  -9.0633  -9.0633  -9.0266  -9.0266  -9.0266  -9.0266
    -9.0154  -9.0154  -9.0040  -9.0040  -9.0007  -9.0007  -9.0007  -9.0007
    -8.9861  -8.9861  -8.9754  -8.9754  -8.9604  -8.9604  -8.9461  -8.9461
    -8.9428  -8.9428  -8.9235  -8.9235  -8.9235  -8.9235  -8.9187  -8.9187
    -8.8904  -8.8904  -8.8709  -8.8709  -8.8608  -8.8608  -8.8222  -8.8222
    -8.7791  -8.7791  -8.7107  -8.7106  -8.6554  -8.6554  -8.6175  -8.6175
    -8.5539  -8.5539  -8.4867  -8.4866  -8.3810  -8.3810  -8.2734  -8.2734
    -8.2655  -8.2654  -8.2543  -8.2543  -8.2445  -8.2444  -8.2017  -8.2017
    -8.1209  -8.1209  -8.0851  -8.0851  -7.9851  -7.9851  -7.9851  -7.9851
    -7.9570  -7.9570  -7.9569  -7.9569  -7.9341  -7.9341  -7.9339  -7.9339
    -7.9339  -7.9339  -7.9338  -7.9338  -7.9280  -7.9280  -7.9171  -7.9171
    -7.9131  -7.9131  -7.9131  -7.9131  -7.9057  -7.9056  -7.8962  -7.8962
    -7.8879  -7.8879  -7.8879  -7.8879  -7.8550  -7.8550  -7.8550  -7.8550
    -7.8341  -7.8340  -7.8340  -7.8340  -7.8337  -7.8337  -7.8194  -7.8194
    -7.8194  -7.8194  -7.7997  -7.7997  -7.7997  -7.7997  -7.7820  -7.7820
    -7.7560  -7.7560  -7.7375  -7.7375  -7.7374  -7.7374  -7.7374  -7.7374
    -7.7168  -7.7168  -7.7033  -7.7032  -7.6886  -7.6886  -7.6765  -7.6765
    -7.6765  -7.6765  -7.5914  -7.5914  -7.5914  -7.5914  -7.5503  -7.5503
    -7.3188  -7.3188  -7.3188  -7.3188  -7.2835  -7.2835  -7.2835  -7.2835
    -7.2470  -7.2470  -7.2220  -7.2220  -7.2220  -7.2220  -7.1565  -7.1565
    -7.1565  -7.1565  -7.1542  -7.1542  -7.1299  -7.1298  -7.0823  -7.0823
    -7.0463  -7.0462  -7.0304  -7.0304  -7.0028  -7.0028  -6.9946  -6.9946
    -6.9653  -6.9653  -6.9413  -6.9413  -6.9009  -6.9009  -6.8181  -6.8181
    -6.8140  -6.8139  -6.7623  -6.7623  -6.7533  -6.7533  -6.7533  -6.7533
    -6.7366  -6.7366  -6.7366  -6.7366  -6.7256  -6.7256  -6.7256  -6.7255
    -6.7215  -6.7215  -6.7215  -6.7215  -6.6281  -6.6281  -6.5868  -6.5868
    -6.5334  -6.5334  -6.4711  -6.4711  -6.4711  -6.4711  -6.4287  -6.4287
    -6.4215  -6.4215  -6.4215  -6.4214  -6.4202  -6.4202  -6.4145  -6.4145
    -6.3725  -6.3725  -6.3725  -6.3725  -6.3413  -6.3413  -6.3413  -6.3412
    -6.3303  -6.3303  -6.1411  -6.1411  -6.0900  -6.0900  -6.0302  -6.0302
    -5.9851  -5.9851  -5.9830  -5.9830  -5.8128  -5.8128  -5.7338  -5.7338
    -4.2292  -4.2292  -4.2292  -4.2291  -4.0778  -4.0778  -4.0452  -4.0451
    -4.0450  -4.0450  -3.9856  -3.9856  -3.9683  -3.9683  -3.9511  -3.9511
    -3.9408  -3.9407  -3.9271  -3.9270  -3.8097  -3.8097  -3.8097  -3.8097
    -3.7440  -3.7440  -3.7439  -3.7439  -3.7364  -3.7363  -3.6970  -3.6969
    -3.6627  -3.6627  -3.6592  -3.6592  -3.6591  -3.6591  -3.6215  -3.6214
    -3.6186  -3.6186  -3.6079  -3.6078  -3.6078  -3.6078  -3.5901  -3.5901
    -3.5611  -3.5609  -3.5609  -3.5608  -3.5514  -3.5514  -3.4896  -3.4896
    -3.4884  -3.4883  -3.4883  -3.4883  -3.4841  -3.4840  -3.4479  -3.4477
    -3.4336  -3.4335  -3.4245  -3.4245  -3.4244  -3.4244  -3.4244  -3.4243
    -3.3919  -3.3918  -3.3778  -3.3778  -3.3776  -3.3776  -3.3601  -3.3601
    -3.3509  -3.3508  -3.3422  -3.3421  -3.3137  -3.3134  -3.3072  -3.3072
    -3.3072  -3.3071  -3.3069  -3.3067  -3.3053  -3.3053  -3.2410  -3.2410
    -3.2093  -3.2092  -3.1963  -3.1963  -3.1962  -3.1961  -3.1664  -3.1663
    -3.1643  -3.1642  -3.1641  -3.1641  -3.1532  -3.1532  -3.1492  -3.1491
    -3.1397  -3.1396  -3.1335  -3.1332  -3.1094  -3.1093  -3.1091  -3.1090
    -3.0935  -3.0934  -3.0933  -3.0932  -3.0908  -3.0907  -3.0866  -3.0866
    -3.0750  -3.0748  -3.0724  -3.0723  -3.0274  -3.0244  -3.0235  -3.0233
    -3.0167  -3.0167  -2.9993  -2.9947  -2.9273  -2.9269  -2.9269  -2.9268
    -2.8492  -2.8491  -2.8491  -2.8491  -2.7526  -2.7526  -2.7134  -2.7134
    -2.6931  -2.6922  -2.6824  -2.6824  -2.6678  -2.6678  -2.6610  -2.6610
    -2.6610  -2.6605  -2.5268  -2.5255  -2.4887  -2.4886

          k =-0.5000-0.2887 0.0000 (386352 PWs)   bands (ev):

   -66.7644 -66.7644 -66.7644 -66.7644 -66.7632 -66.7632 -66.7622 -66.7622
   -66.7538 -66.7538 -66.7538 -66.7538 -66.7525 -66.7525 -66.7516 -66.7516
   -66.7387 -66.7387 -66.7387 -66.7387 -66.7387 -66.7387 -66.7387 -66.7387
   -66.7374 -66.7374 -66.7374 -66.7374 -66.7365 -66.7365 -66.7365 -66.7365
   -66.7343 -66.7342 -66.7342 -66.7342 -66.7330 -66.7330 -66.7320 -66.7320
   -66.7280 -66.7280 -66.7280 -66.7280 -66.7280 -66.7280 -66.7280 -66.7280
   -66.7267 -66.7267 -66.7267 -66.7267 -66.7258 -66.7258 -66.7258 -66.7258
   -66.7235 -66.7235 -66.7235 -66.7235 -66.7222 -66.7222 -66.7213 -66.7213
   -41.0665 -41.0665 -41.0665 -41.0665 -41.0665 -41.0665 -41.0665 -41.0664
   -41.0658 -41.0658 -41.0658 -41.0658 -41.0628 -41.0628 -41.0628 -41.0628
   -41.0397 -41.0397 -41.0397 -41.0396 -41.0390 -41.0390 -41.0360 -41.0360
   -41.0276 -41.0276 -41.0276 -41.0276 -41.0269 -41.0269 -41.0239 -41.0239
   -40.9769 -40.9769 -40.9769 -40.9769 -40.9769 -40.9769 -40.9769 -40.9769
   -40.9762 -40.9762 -40.9762 -40.9762 -40.9733 -40.9733 -40.9733 -40.9733
   -40.9181 -40.9181 -40.9181 -40.9181 -40.9175 -40.9175 -40.9157 -40.9157
   -40.9087 -40.9086 -40.9086 -40.9086 -40.9078 -40.9078 -40.9051 -40.9051
   -40.8973 -40.8973 -40.8972 -40.8972 -40.8966 -40.8966 -40.8949 -40.8949
   -40.8677 -40.8676 -40.8676 -40.8676 -40.8676 -40.8676 -40.8676 -40.8676
   -40.8670 -40.8670 -40.8670 -40.8670 -40.8653 -40.8653 -40.8653 -40.8653
   -40.8589 -40.8589 -40.8589 -40.8589 -40.8582 -40.8582 -40.8566 -40.8566
   -40.8472 -40.8471 -40.8471 -40.8471 -40.8466 -40.8466 -40.8466 -40.8466
   -40.8466 -40.8466 -40.8466 -40.8466 -40.8463 -40.8463 -40.8459 -40.8459
   -40.8459 -40.8459 -40.8443 -40.8443 -40.8443 -40.8443 -40.8436 -40.8436
   -40.8379 -40.8379 -40.8379 -40.8379 -40.8372 -40.8372 -40.8356 -40.8356
   -40.8162 -40.8162 -40.8162 -40.8162 -40.8162 -40.8162 -40.8162 -40.8162
   -40.8153 -40.8153 -40.8153 -40.8153 -40.8128 -40.8128 -40.8127 -40.8127
   -40.7815 -40.7815 -40.7815 -40.7815 -40.7815 -40.7815 -40.7814 -40.7814
   -40.7805 -40.7805 -40.7805 -40.7805 -40.7780 -40.7780 -40.7780 -40.7780
   -40.7693 -40.7693 -40.7693 -40.7693 -40.7684 -40.7684 -40.7659 -40.7659
   -40.7500 -40.7500 -40.7500 -40.7500 -40.7490 -40.7490 -40.7466 -40.7466
   -40.7330 -40.7330 -40.7330 -40.7330 -40.7320 -40.7320 -40.7296 -40.7296
   -40.7023 -40.7023 -40.7023 -40.7023 -40.7013 -40.7013 -40.6990 -40.6990
   -20.0271 -20.0271 -19.9539 -19.9539 -19.8588 -19.8588 -19.7817 -19.7817
   -19.5898 -19.5898 -19.5212 -19.5212 -19.4304 -19.4304 -19.3555 -19.3555
   -18.9128 -18.9128 -18.8745 -18.8745 -18.8745 -18.8745 -18.8195 -18.8195
   -18.8194 -18.8194 -18.7787 -18.7787 -18.7437 -18.7437 -18.7437 -18.7437
   -18.7037 -18.7037 -18.6782 -18.6782 -18.6782 -18.6782 -18.6405 -18.6405
   -18.6225 -18.6225 -18.5852 -18.5852 -18.5759 -18.5759 -18.5436 -18.5436
   -18.5105 -18.5105 -18.4671 -18.4671 -18.4522 -18.4521 -18.3863 -18.3863
   -18.3611 -18.3611 -18.3611 -18.3611 -18.2731 -18.2730 -18.2730 -18.2730
   -18.2483 -18.2483 -18.2471 -18.2471 -18.2471 -18.2471 -18.2171 -18.2171
   -18.2171 -18.2170 -18.1930 -18.1930 -18.1929 -18.1929 -18.1762 -18.1762
   -18.1733 -18.1733 -18.1733 -18.1733 -18.1412 -18.1412 -18.1411 -18.1411
   -18.1287 -18.1287 -18.1287 -18.1287 -18.1146 -18.1146 -18.0764 -18.0764
   -18.0575 -18.0575 -18.0574 -18.0574 -18.0126 -18.0126 -18.0126 -18.0126
   -17.9793 -17.9793 -17.9793 -17.9793 -17.9650 -17.9650 -17.9610 -17.9610
   -17.9609 -17.9609 -17.9526 -17.9526 -17.9346 -17.9346 -17.9105 -17.9105
   -17.8929 -17.8928 -17.8764 -17.8764 -17.8657 -17.8657 -17.8596 -17.8596
   -11.8581 -11.8581 -11.6576 -11.6576 -11.6576 -11.6576 -11.6256 -11.6256
   -11.6112 -11.6111 -11.5729 -11.5729 -11.5729 -11.5729 -11.5317 -11.5317
   -11.4702 -11.4702 -11.4701 -11.4701 -11.4592 -11.4591 -11.4144 -11.4144
   -11.4072 -11.4072 -11.3966 -11.3966 -11.3966 -11.3966 -11.3683 -11.3683
   -11.3250 -11.3250 -11.3182 -11.3182 -11.3110 -11.3110 -11.3110 -11.3109
   -11.2784 -11.2784 -11.2756 -11.2756 -11.2416 -11.2416 -11.1921 -11.1921
   -11.1920 -11.1920 -11.0815 -11.0815 -11.0423 -11.0423 -11.0423 -11.0423
   -11.0106 -11.0106 -10.9711 -10.9711 -10.9581 -10.9581 -10.9581 -10.9581
   -10.9509 -10.9509 -10.9387 -10.9387 -10.9349 -10.9349 -10.9349 -10.9349
   -10.9314 -10.9314 -10.9309 -10.9309 -10.9309 -10.9309 -10.8961 -10.8961
   -10.8961 -10.8961 -10.8783 -10.8783 -10.8783 -10.8783 -10.6771 -10.6771
   -10.6567 -10.6567 -10.6134 -10.6134 -10.5123 -10.5123 -10.3776 -10.3776
   -10.2799 -10.2799 -10.2798 -10.2798 -10.2210 -10.2210 -10.2210 -10.2209
   -10.1940 -10.1940 -10.1940 -10.1939 -10.1432 -10.1432 -10.1432 -10.1432
   -10.1431 -10.1431 -10.0576 -10.0576 -10.0576 -10.0576 -10.0418 -10.0418
   -10.0378 -10.0378 -10.0378 -10.0378  -9.9934  -9.9934  -9.9304  -9.9304
    -9.9121  -9.9121  -9.9120  -9.9120  -9.8794  -9.8794  -9.8488  -9.8488
    -9.8488  -9.8488  -9.7934  -9.7934  -9.7934  -9.7934  -9.7669  -9.7669
    -9.7361  -9.7361  -9.6762  -9.6762  -9.6762  -9.6762  -9.6750  -9.6750
    -9.6749  -9.6749  -9.6481  -9.6481  -9.6267  -9.6267  -9.6032  -9.6032
    -9.6007  -9.6007  -9.5767  -9.5767  -9.5571  -9.5571  -9.5571  -9.5571
    -9.4768  -9.4768  -9.3766  -9.3766  -9.3686  -9.3686  -9.3172  -9.3172
    -9.3171  -9.3171  -9.2957  -9.2957  -9.2956  -9.2956  -9.2280  -9.2280
    -9.1978  -9.1978  -9.1879  -9.1879  -9.1639  -9.1639  -9.1639  -9.1639
    -9.1484  -9.1484  -9.1484  -9.1483  -9.0909  -9.0909  -9.0648  -9.0648
    -9.0648  -9.0647  -9.0633  -9.0633  -9.0266  -9.0266  -9.0266  -9.0266
    -9.0154  -9.0154  -9.0040  -9.0040  -9.0007  -9.0007  -9.0007  -9.0006
    -8.9861  -8.9861  -8.9754  -8.9754  -8.9604  -8.9604  -8.9461  -8.9461
    -8.9428  -8.9428  -8.9235  -8.9235  -8.9235  -8.9234  -8.9187  -8.9187
    -8.8904  -8.8904  -8.8709  -8.8709  -8.8608  -8.8608  -8.8222  -8.8222
    -8.7791  -8.7791  -8.7107  -8.7106  -8.6554  -8.6554  -8.6175  -8.6175
    -8.5539  -8.5539  -8.4867  -8.4866  -8.3810  -8.3810  -8.2734  -8.2734
    -8.2655  -8.2654  -8.2543  -8.2543  -8.2445  -8.2445  -8.2017  -8.2017
    -8.1209  -8.1209  -8.0851  -8.0851  -7.9852  -7.9851  -7.9851  -7.9851
    -7.9570  -7.9570  -7.9569  -7.9569  -7.9341  -7.9341  -7.9340  -7.9340
    -7.9339  -7.9339  -7.9338  -7.9338  -7.9280  -7.9280  -7.9171  -7.9171
    -7.9131  -7.9131  -7.9131  -7.9131  -7.9057  -7.9056  -7.8962  -7.8962
    -7.8879  -7.8879  -7.8879  -7.8879  -7.8550  -7.8550  -7.8550  -7.8550
    -7.8341  -7.8340  -7.8340  -7.8340  -7.8337  -7.8337  -7.8194  -7.8194
    -7.8194  -7.8194  -7.7997  -7.7997  -7.7997  -7.7997  -7.7821  -7.7820
    -7.7560  -7.7560  -7.7375  -7.7374  -7.7374  -7.7374  -7.7374  -7.7374
    -7.7168  -7.7168  -7.7032  -7.7032  -7.6886  -7.6886  -7.6765  -7.6765
    -7.6765  -7.6765  -7.5915  -7.5915  -7.5914  -7.5914  -7.5503  -7.5503
    -7.3188  -7.3188  -7.3188  -7.3188  -7.2835  -7.2835  -7.2835  -7.2835
    -7.2470  -7.2470  -7.2220  -7.2220  -7.2220  -7.2220  -7.1565  -7.1565
    -7.1565  -7.1565  -7.1542  -7.1542  -7.1299  -7.1298  -7.0823  -7.0823
    -7.0463  -7.0462  -7.0304  -7.0304  -7.0028  -7.0028  -6.9946  -6.9946
    -6.9653  -6.9653  -6.9413  -6.9413  -6.9009  -6.9009  -6.8181  -6.8181
    -6.8140  -6.8140  -6.7623  -6.7623  -6.7533  -6.7533  -6.7533  -6.7533
    -6.7366  -6.7366  -6.7366  -6.7366  -6.7256  -6.7256  -6.7256  -6.7255
    -6.7216  -6.7215  -6.7215  -6.7215  -6.6281  -6.6281  -6.5868  -6.5868
    -6.5334  -6.5334  -6.4712  -6.4712  -6.4710  -6.4710  -6.4287  -6.4287
    -6.4215  -6.4215  -6.4214  -6.4214  -6.4202  -6.4202  -6.4145  -6.4145
    -6.3726  -6.3726  -6.3725  -6.3725  -6.3413  -6.3413  -6.3412  -6.3412
    -6.3303  -6.3303  -6.1411  -6.1411  -6.0900  -6.0900  -6.0302  -6.0302
    -5.9851  -5.9851  -5.9830  -5.9830  -5.8128  -5.8128  -5.7338  -5.7338
    -4.2292  -4.2291  -4.2291  -4.2291  -4.0778  -4.0778  -4.0453  -4.0452
    -4.0451  -4.0451  -3.9856  -3.9855  -3.9683  -3.9683  -3.9512  -3.9511
    -3.9408  -3.9407  -3.9271  -3.9271  -3.8097  -3.8096  -3.8096  -3.8096
    -3.7440  -3.7440  -3.7438  -3.7438  -3.7362  -3.7361  -3.6970  -3.6969
    -3.6628  -3.6628  -3.6593  -3.6592  -3.6592  -3.6591  -3.6214  -3.6214
    -3.6186  -3.6185  -3.6078  -3.6078  -3.6078  -3.6078  -3.5901  -3.5901
    -3.5612  -3.5611  -3.5610  -3.5608  -3.5514  -3.5514  -3.4897  -3.4896
    -3.4885  -3.4884  -3.4884  -3.4883  -3.4840  -3.4840  -3.4480  -3.4477
    -3.4336  -3.4335  -3.4245  -3.4245  -3.4244  -3.4244  -3.4244  -3.4241
    -3.3919  -3.3918  -3.3778  -3.3778  -3.3778  -3.3777  -3.3604  -3.3602
    -3.3508  -3.3508  -3.3424  -3.3424  -3.3136  -3.3136  -3.3072  -3.3072
    -3.3072  -3.3071  -3.3069  -3.3068  -3.3054  -3.3053  -3.2416  -3.2409
    -3.2093  -3.2093  -3.1962  -3.1962  -3.1961  -3.1961  -3.1663  -3.1662
    -3.1644  -3.1642  -3.1641  -3.1640  -3.1533  -3.1532  -3.1493  -3.1492
    -3.1400  -3.1398  -3.1335  -3.1332  -3.1098  -3.1096  -3.1095  -3.1094
    -3.0940  -3.0939  -3.0938  -3.0937  -3.0907  -3.0907  -3.0868  -3.0867
    -3.0751  -3.0749  -3.0723  -3.0722  -3.0270  -3.0269  -3.0235  -3.0233
    -3.0167  -3.0167  -2.9987  -2.9984  -2.9282  -2.9280  -2.9279  -2.9275
    -2.8489  -2.8489  -2.8488  -2.8488  -2.7526  -2.7526  -2.7133  -2.7133
    -2.6969  -2.6965  -2.6826  -2.6826  -2.6679  -2.6678  -2.6611  -2.6610
    -2.6610  -2.6609  -2.5302  -2.5300  -2.4883  -2.4881

          k =-0.5000-0.8660 0.0000 (386352 PWs)   bands (ev):

   -66.7644 -66.7644 -66.7644 -66.7644 -66.7632 -66.7632 -66.7622 -66.7622
   -66.7538 -66.7538 -66.7538 -66.7538 -66.7525 -66.7525 -66.7516 -66.7516
   -66.7387 -66.7387 -66.7387 -66.7387 -66.7387 -66.7387 -66.7387 -66.7387
   -66.7374 -66.7374 -66.7374 -66.7374 -66.7365 -66.7365 -66.7365 -66.7365
   -66.7343 -66.7342 -66.7342 -66.7342 -66.7330 -66.7329 -66.7320 -66.7320
   -66.7280 -66.7280 -66.7280 -66.7280 -66.7280 -66.7280 -66.7280 -66.7280
   -66.7267 -66.7267 -66.7267 -66.7267 -66.7258 -66.7258 -66.7258 -66.7258
   -66.7235 -66.7235 -66.7235 -66.7235 -66.7222 -66.7222 -66.7213 -66.7213
   -41.0665 -41.0665 -41.0665 -41.0665 -41.0665 -41.0665 -41.0665 -41.0665
   -41.0658 -41.0658 -41.0658 -41.0658 -41.0628 -41.0628 -41.0628 -41.0628
   -41.0397 -41.0397 -41.0397 -41.0397 -41.0390 -41.0390 -41.0360 -41.0360
   -41.0276 -41.0276 -41.0276 -41.0276 -41.0269 -41.0269 -41.0239 -41.0239
   -40.9769 -40.9769 -40.9769 -40.9769 -40.9769 -40.9769 -40.9769 -40.9769
   -40.9762 -40.9762 -40.9762 -40.9762 -40.9733 -40.9733 -40.9733 -40.9733
   -40.9181 -40.9181 -40.9181 -40.9181 -40.9175 -40.9175 -40.9157 -40.9157
   -40.9086 -40.9086 -40.9086 -40.9086 -40.9078 -40.9078 -40.9051 -40.9051
   -40.8973 -40.8973 -40.8972 -40.8972 -40.8966 -40.8966 -40.8949 -40.8949
   -40.8676 -40.8676 -40.8676 -40.8676 -40.8676 -40.8676 -40.8676 -40.8676
   -40.8670 -40.8670 -40.8670 -40.8670 -40.8653 -40.8653 -40.8653 -40.8653
   -40.8589 -40.8589 -40.8589 -40.8589 -40.8582 -40.8582 -40.8566 -40.8566
   -40.8472 -40.8472 -40.8471 -40.8471 -40.8466 -40.8466 -40.8466 -40.8466
   -40.8466 -40.8466 -40.8466 -40.8466 -40.8463 -40.8463 -40.8459 -40.8459
   -40.8459 -40.8459 -40.8443 -40.8443 -40.8443 -40.8443 -40.8436 -40.8436
   -40.8379 -40.8379 -40.8379 -40.8379 -40.8372 -40.8372 -40.8356 -40.8356
   -40.8162 -40.8162 -40.8162 -40.8162 -40.8162 -40.8162 -40.8162 -40.8162
   -40.8153 -40.8153 -40.8153 -40.8153 -40.8128 -40.8128 -40.8128 -40.8128
   -40.7815 -40.7815 -40.7815 -40.7815 -40.7815 -40.7815 -40.7815 -40.7814
   -40.7805 -40.7805 -40.7805 -40.7805 -40.7780 -40.7780 -40.7780 -40.7780
   -40.7693 -40.7693 -40.7693 -40.7693 -40.7684 -40.7684 -40.7659 -40.7659
   -40.7500 -40.7500 -40.7500 -40.7500 -40.7490 -40.7490 -40.7466 -40.7466
   -40.7330 -40.7330 -40.7330 -40.7330 -40.7320 -40.7320 -40.7296 -40.7296
   -40.7023 -40.7023 -40.7023 -40.7023 -40.7013 -40.7013 -40.6990 -40.6990
   -20.0271 -20.0271 -19.9539 -19.9539 -19.8588 -19.8588 -19.7817 -19.7817
   -19.5898 -19.5898 -19.5212 -19.5212 -19.4304 -19.4304 -19.3555 -19.3555
   -18.9128 -18.9128 -18.8745 -18.8745 -18.8745 -18.8745 -18.8195 -18.8195
   -18.8195 -18.8195 -18.7787 -18.7787 -18.7437 -18.7437 -18.7437 -18.7437
   -18.7037 -18.7037 -18.6782 -18.6782 -18.6782 -18.6782 -18.6405 -18.6405
   -18.6225 -18.6225 -18.5852 -18.5852 -18.5759 -18.5759 -18.5436 -18.5436
   -18.5105 -18.5105 -18.4671 -18.4671 -18.4521 -18.4521 -18.3863 -18.3863
   -18.3611 -18.3611 -18.3611 -18.3611 -18.2730 -18.2730 -18.2730 -18.2730
   -18.2483 -18.2483 -18.2471 -18.2471 -18.2471 -18.2471 -18.2171 -18.2171
   -18.2171 -18.2171 -18.1930 -18.1930 -18.1930 -18.1930 -18.1762 -18.1762
   -18.1733 -18.1733 -18.1733 -18.1733 -18.1412 -18.1412 -18.1412 -18.1411
   -18.1287 -18.1287 -18.1287 -18.1287 -18.1146 -18.1145 -18.0764 -18.0764
   -18.0574 -18.0574 -18.0574 -18.0574 -18.0126 -18.0126 -18.0126 -18.0126
   -17.9793 -17.9793 -17.9793 -17.9793 -17.9650 -17.9650 -17.9610 -17.9610
   -17.9610 -17.9610 -17.9526 -17.9526 -17.9346 -17.9346 -17.9105 -17.9105
   -17.8929 -17.8929 -17.8764 -17.8764 -17.8657 -17.8657 -17.8596 -17.8596
[...]
     atom  158 type  1   force =    -0.00000538    0.00002144   -0.00000949
     atom  159 type  2   force =    -0.00000139    0.00000746   -0.00013756
     atom  160 type  2   force =    -0.00000029    0.00000336    0.00013694
     atom  161 type  2   force =    -0.00000078    0.00000209   -0.00015615
     atom  162 type  2   force =    -0.00000283    0.00000859    0.00013119
     atom  163 type  1   force =    -0.00000128    0.00002072   -0.00000403
     atom  164 type  1   force =     0.00000546    0.00001434   -0.00000850
     atom  165 type  2   force =     0.00000003    0.00000685   -0.00013639
     atom  166 type  2   force =    -0.00000143    0.00000633    0.00013923
     atom  167 type  2   force =    -0.00000199    0.00000697   -0.00013409
     atom  168 type  2   force =     0.00000086    0.00000601    0.00015173
     atom  169 type  1   force =    -0.00000049   -0.00000443    0.00001034
     atom  170 type  1   force =    -0.00000412   -0.00000375   -0.00000585
     atom  171 type  2   force =    -0.00000040   -0.00000213   -0.00013752
     atom  172 type  2   force =    -0.00000231    0.00000067    0.00013745
     atom  173 type  2   force =    -0.00000141   -0.00000032   -0.00015357
     atom  174 type  2   force =    -0.00000114   -0.00000159    0.00013062
     atom  175 type  1   force =     0.00000153   -0.00000893   -0.00000536
     atom  176 type  1   force =     0.00000085    0.00000051   -0.00001238
     atom  177 type  2   force =    -0.00000069   -0.00000228   -0.00013669
     atom  178 type  2   force =    -0.00000348    0.00000158    0.00013469
     atom  179 type  2   force =    -0.00000337    0.00000198   -0.00013045
     atom  180 type  2   force =     0.00000015   -0.00000151    0.00014910
     atom  181 type  1   force =     0.00000628   -0.00000761    0.00000733
     atom  182 type  1   force =    -0.00000236   -0.00001671   -0.00000305
     atom  183 type  2   force =     0.00000302   -0.00000691   -0.00014281
     atom  184 type  2   force =    -0.00000011   -0.00000507    0.00013985
     atom  185 type  2   force =    -0.00000063   -0.00000350   -0.00015606
     atom  186 type  2   force =     0.00000426   -0.00000851    0.00013544
     atom  187 type  1   force =     0.00000838   -0.00001103   -0.00000300
     atom  188 type  1   force =    -0.00000086   -0.00000654   -0.00000758
     atom  189 type  2   force =     0.00000309   -0.00000406   -0.00013791
     atom  190 type  2   force =    -0.00000046   -0.00000605    0.00013702
     atom  191 type  2   force =    -0.00000008   -0.00000709   -0.00013246
     atom  192 type  2   force =     0.00000220   -0.00000266    0.00015252

     DFT-D3 dispersion contribution to forces:
     atom    1 type  1   force =     0.00000000   -0.00000000    0.00255989
     atom    2 type  1   force =     0.00000000    0.00000003    0.00001532
     atom    3 type  2   force =     0.00000001    0.00000001   -0.00003286
     atom    4 type  2   force =    -0.00000001    0.00000001    0.00017139
     atom    5 type  2   force =    -0.00000000    0.00000000    0.00441589
     atom    6 type  2   force =     0.00000003   -0.00000000    0.00009732
     atom    7 type  1   force =     0.00000006   -0.00000002   -0.00001219
     atom    8 type  1   force =     0.00000001    0.00000000   -0.00255927
     atom    9 type  2   force =     0.00000001   -0.00000001   -0.00017554
     atom   10 type  2   force =     0.00000003    0.00000000    0.00003171
     atom   11 type  2   force =     0.00000003    0.00000001   -0.00009659
     atom   12 type  2   force =     0.00000001    0.00000001   -0.00441504
     atom   13 type  1   force =     0.00000000    0.00000000    0.00255989
     atom   14 type  1   force =     0.00000007    0.00000002    0.00001530
     atom   15 type  2   force =     0.00000004    0.00000001   -0.00003287
     atom   16 type  2   force =     0.00000001    0.00000001    0.00017140
     atom   17 type  2   force =    -0.00000000    0.00000000    0.00441589
     atom   18 type  2   force =     0.00000005    0.00000001    0.00009731
     atom   19 type  1   force =     0.00000004    0.00000001   -0.00001220
     atom   20 type  1   force =     0.00000001    0.00000000   -0.00255925
     atom   21 type  2   force =     0.00000000   -0.00000000   -0.00017552
     atom   22 type  2   force =     0.00000002   -0.00000001    0.00003172
     atom   23 type  2   force =     0.00000005    0.00000001   -0.00009661
     atom   24 type  2   force =     0.00000001    0.00000000   -0.00441505
     atom   25 type  1   force =     0.00000000   -0.00000000    0.00255988
     atom   26 type  1   force =     0.00000008    0.00000003    0.00001528
     atom   27 type  2   force =     0.00000003    0.00000000   -0.00003288
     atom   28 type  2   force =     0.00000001    0.00000000    0.00017139
     atom   29 type  2   force =    -0.00000000    0.00000000    0.00441589
     atom   30 type  2   force =     0.00000003    0.00000003    0.00009733
     atom   31 type  1   force =     0.00000002    0.00000007   -0.00001217
     atom   32 type  1   force =     0.00000001    0.00000001   -0.00255925
     atom   33 type  2   force =     0.00000001    0.00000001   -0.00017553
     atom   34 type  2   force =     0.00000001    0.00000003    0.00003172
     atom   35 type  2   force =     0.00000005    0.00000004   -0.00009660
     atom   36 type  2   force =     0.00000001    0.00000000   -0.00441506
     atom   37 type  1   force =    -0.00000000   -0.00000000    0.00255988
     atom   38 type  1   force =     0.00000001    0.00000002    0.00001533
     atom   39 type  2   force =     0.00000001    0.00000002   -0.00003287
     atom   40 type  2   force =    -0.00000000   -0.00000001    0.00017139
     atom   41 type  2   force =    -0.00000000    0.00000000    0.00441589
     atom   42 type  2   force =     0.00000002    0.00000002    0.00009733
     atom   43 type  1   force =     0.00000004    0.00000003   -0.00001222
     atom   44 type  1   force =     0.00000001    0.00000001   -0.00255927
     atom   45 type  2   force =     0.00000001    0.00000001   -0.00017555
     atom   46 type  2   force =     0.00000002    0.00000002    0.00003171
     atom   47 type  2   force =     0.00000002    0.00000003   -0.00009659
     atom   48 type  2   force =     0.00000001    0.00000001   -0.00441505
     atom   49 type  1   force =    -0.00000000    0.00000000    0.00255988
     atom   50 type  1   force =    -0.00000001    0.00000001    0.00001533
     atom   51 type  2   force =    -0.00000002   -0.00000000   -0.00003286
     atom   52 type  2   force =     0.00000001    0.00000001    0.00017140
     atom   53 type  2   force =    -0.00000000    0.00000000    0.00441589
     atom   54 type  2   force =    -0.00000002   -0.00000001    0.00009731
     atom   55 type  1   force =    -0.00000002   -0.00000005   -0.00001222
     atom   56 type  1   force =    -0.00000001   -0.00000001   -0.00255927
     atom   57 type  2   force =    -0.00000001   -0.00000001   -0.00017551
     atom   58 type  2   force =    -0.00000003   -0.00000001    0.00003171
     atom   59 type  2   force =    -0.00000004   -0.00000002   -0.00009661
     atom   60 type  2   force =    -0.00000001   -0.00000001   -0.00441507
     atom   61 type  1   force =     0.00000000    0.00000000    0.00255990
     atom   62 type  1   force =    -0.00000002    0.00000004    0.00001533
     atom   63 type  2   force =    -0.00000001    0.00000001   -0.00003285
     atom   64 type  2   force =    -0.00000000    0.00000001    0.00017141
     atom   65 type  2   force =    -0.00000000    0.00000000    0.00441589
     atom   66 type  2   force =     0.00000001    0.00000001    0.00009729
     atom   67 type  1   force =    -0.00000001   -0.00000003   -0.00001224
     atom   68 type  1   force =    -0.00000001   -0.00000001   -0.00255925
     atom   69 type  2   force =    -0.00000001   -0.00000001   -0.00017551
     atom   70 type  2   force =    -0.00000002   -0.00000004    0.00003173
     atom   71 type  2   force =    -0.00000002   -0.00000003   -0.00009664
     atom   72 type  2   force =    -0.00000001   -0.00000000   -0.00441506
     atom   73 type  1   force =     0.00000001   -0.00000000    0.00255990
     atom   74 type  1   force =     0.00000003    0.00000001    0.00001532
     atom   75 type  2   force =     0.00000001   -0.00000002   -0.00003285
     atom   76 type  2   force =     0.00000001    0.00000001    0.00017142
     atom   77 type  2   force =    -0.00000000    0.00000000    0.00441589
     atom   78 type  2   force =     0.00000002    0.00000000    0.00009729
     atom   79 type  1   force =    -0.00000003    0.00000003   -0.00001223
     atom   80 type  1   force =    -0.00000001    0.00000000   -0.00255925
     atom   81 type  2   force =    -0.00000001    0.00000000   -0.00017550
     atom   82 type  2   force =    -0.00000003   -0.00000000    0.00003173
     atom   83 type  2   force =    -0.00000001    0.00000001   -0.00009665
     atom   84 type  2   force =    -0.00000001   -0.00000000   -0.00441507
     atom   85 type  1   force =     0.00000001   -0.00000001    0.00255988
     atom   86 type  1   force =     0.00000005   -0.00000002    0.00001532
     atom   87 type  2   force =    -0.00000000   -0.00000001   -0.00003286
     atom   88 type  2   force =     0.00000002   -0.00000001    0.00017141
     atom   89 type  2   force =     0.00000000    0.00000000    0.00441589
     atom   90 type  2   force =    -0.00000000    0.00000000    0.00009732
     atom   91 type  1   force =    -0.00000002   -0.00000000   -0.00001222
     atom   92 type  1   force =    -0.00000001   -0.00000000   -0.00255926
     atom   93 type  2   force =    -0.00000001   -0.00000000   -0.00017552
     atom   94 type  2   force =    -0.00000003   -0.00000000    0.00003172
     atom   95 type  2   force =    -0.00000001   -0.00000001   -0.00009662
     atom   96 type  2   force =    -0.00000001   -0.00000000   -0.00441508
     atom   97 type  1   force =     0.00000000   -0.00000000    0.00255988
     atom   98 type  1   force =     0.00000001   -0.00000006    0.00001530
     atom   99 type  2   force =     0.00000002    0.00000000   -0.00003286
     atom  100 type  2   force =     0.00000000   -0.00000001    0.00017140
     atom  101 type  2   force =    -0.00000000    0.00000000    0.00441589
     atom  102 type  2   force =    -0.00000001   -0.00000002    0.00009732
     atom  103 type  1   force =    -0.00000003   -0.00000004   -0.00001217
     atom  104 type  1   force =     0.00000001    0.00000000   -0.00255926
     atom  105 type  2   force =    -0.00000000   -0.00000001   -0.00017553
     atom  106 type  2   force =    -0.00000000    0.00000001    0.00003173
     atom  107 type  2   force =     0.00000000   -0.00000002   -0.00009661
     atom  108 type  2   force =     0.00000001    0.00000000   -0.00441504
     atom  109 type  1   force =    -0.00000000    0.00000000    0.00255989
     atom  110 type  1   force =    -0.00000004    0.00000002    0.00001530
     atom  111 type  2   force =    -0.00000000    0.00000003   -0.00003285
     atom  112 type  2   force =    -0.00000001    0.00000001    0.00017139
     atom  113 type  2   force =    -0.00000000    0.00000000    0.00441589
     atom  114 type  2   force =    -0.00000002    0.00000001    0.00009730
     atom  115 type  1   force =    -0.00000002   -0.00000004   -0.00001224
     atom  116 type  1   force =     0.00000001    0.00000001   -0.00255925
     atom  117 type  2   force =     0.00000001   -0.00000001   -0.00017552
     atom  118 type  2   force =     0.00000001   -0.00000002    0.00003173
     atom  119 type  2   force =    -0.00000002    0.00000000   -0.00009661
     atom  120 type  2   force =     0.00000001    0.00000001   -0.00441505
     atom  121 type  1   force =    -0.00000000    0.00000000    0.00255991
     atom  122 type  1   force =    -0.00000006    0.00000002    0.00001529
     atom  123 type  2   force =     0.00000001    0.00000000   -0.00003284
     atom  124 type  2   force =    -0.00000001    0.00000000    0.00017141
     atom  125 type  2   force =    -0.00000000    0.00000000    0.00441589
     atom  126 type  2   force =     0.00000000    0.00000001    0.00009729
     atom  127 type  1   force =    -0.00000001    0.00000002   -0.00001225
     atom  128 type  1   force =     0.00000001    0.00000001   -0.00255924
     atom  129 type  2   force =     0.00000000    0.00000001   -0.00017552
     atom  130 type  2   force =     0.00000002    0.00000002    0.00003173
     atom  131 type  2   force =    -0.00000001    0.00000002   -0.00009664
     atom  132 type  2   force =     0.00000001    0.00000001   -0.00441505
     atom  133 type  1   force =     0.00000000   -0.00000001    0.00255990
     atom  134 type  1   force =    -0.00000001   -0.00000002    0.00001531
     atom  135 type  2   force =     0.00000003   -0.00000001   -0.00003285
     atom  136 type  2   force =    -0.00000001   -0.00000001    0.00017142
     atom  137 type  2   force =    -0.00000000    0.00000000    0.00441589
     atom  138 type  2   force =     0.00000002   -0.00000002    0.00009730
     atom  139 type  1   force =    -0.00000002   -0.00000000   -0.00001224
     atom  140 type  1   force =     0.00000001    0.00000001   -0.00255925
     atom  141 type  2   force =     0.00000000    0.00000001   -0.00017553
     atom  142 type  2   force =     0.00000001    0.00000002    0.00003172
     atom  143 type  2   force =    -0.00000000   -0.00000000   -0.00009663
     atom  144 type  2   force =     0.00000001    0.00000000   -0.00441504
     atom  145 type  1   force =     0.00000000   -0.00000001    0.00255989
     atom  146 type  1   force =    -0.00000001   -0.00000005    0.00001531
     atom  147 type  2   force =    -0.00000001   -0.00000003   -0.00003286
     atom  148 type  2   force =    -0.00000000   -0.00000001    0.00017141
     atom  149 type  2   force =    -0.00000000    0.00000000    0.00441589
     atom  150 type  2   force =    -0.00000001   -0.00000004    0.00009729
     atom  151 type  1   force =     0.00000000   -0.00000004   -0.00001219
     atom  152 type  1   force =    -0.00000001   -0.00000001   -0.00255926
     atom  153 type  2   force =    -0.00000001   -0.00000001   -0.00017549
     atom  154 type  2   force =    -0.00000000    0.00000000    0.00003172
     atom  155 type  2   force =    -0.00000001   -0.00000002   -0.00009662
     atom  156 type  2   force =    -0.00000001   -0.00000001   -0.00441508
     atom  157 type  1   force =     0.00000000    0.00000000    0.00255988
     atom  158 type  1   force =    -0.00000000   -0.00000002    0.00001529
     atom  159 type  2   force =    -0.00000003   -0.00000001   -0.00003286
     atom  160 type  2   force =     0.00000000    0.00000000    0.00017140
     atom  161 type  2   force =    -0.00000000    0.00000000    0.00441589
     atom  162 type  2   force =    -0.00000003   -0.00000001    0.00009729
     atom  163 type  1   force =    -0.00000002    0.00000000   -0.00001220
     atom  164 type  1   force =    -0.00000001   -0.00000000   -0.00255925
     atom  165 type  2   force =    -0.00000001   -0.00000000   -0.00017550
     atom  166 type  2   force =    -0.00000001   -0.00000002    0.00003173
     atom  167 type  2   force =    -0.00000001   -0.00000002   -0.00009661
     atom  168 type  2   force =    -0.00000001   -0.00000000   -0.00441506
     atom  169 type  1   force =    -0.00000000   -0.00000000    0.00255989
     atom  170 type  1   force =    -0.00000005    0.00000001    0.00001528
     atom  171 type  2   force =    -0.00000005   -0.00000001   -0.00003286
     atom  172 type  2   force =    -0.00000000    0.00000000    0.00017140
     atom  173 type  2   force =    -0.00000000    0.00000000    0.00441589
     atom  174 type  2   force =    -0.00000005    0.00000000    0.00009729
     atom  175 type  1   force =     0.00000002    0.00000004   -0.00001221
     atom  176 type  1   force =    -0.00000001    0.00000000   -0.00255926
     atom  177 type  2   force =     0.00000000    0.00000000   -0.00017549
     atom  178 type  2   force =    -0.00000000    0.00000002    0.00003173
     atom  179 type  2   force =    -0.00000003    0.00000002   -0.00009661
     atom  180 type  2   force =    -0.00000001   -0.00000001   -0.00441506
     atom  181 type  1   force =    -0.00000000   -0.00000000    0.00255990
     atom  182 type  1   force =    -0.00000006   -0.00000001    0.00001531
     atom  183 type  2   force =    -0.00000003   -0.00000003   -0.00003285
     atom  184 type  2   force =    -0.00000001   -0.00000000    0.00017141
     atom  185 type  2   force =     0.00000000    0.00000000    0.00441589
     atom  186 type  2   force =    -0.00000002   -0.00000002    0.00009729
     atom  187 type  1   force =     0.00000000   -0.00000000   -0.00001221
     atom  188 type  1   force =    -0.00000001   -0.00000000   -0.00255926
     atom  189 type  2   force =     0.00000000    0.00000000   -0.00017551
     atom  190 type  2   force =     0.00000000    0.00000000    0.00003172
     atom  191 type  2   force =    -0.00000001   -0.00000000   -0.00009662
     atom  192 type  2   force =    -0.00000001   -0.00000001   -0.00441507

     Total force =     0.011332     Total SCF correction =     0.001618
     SCF correction compared to forces is large: reduce conv_thr to get better values

     Writing all to output data dir ./outdir/pwscf.save/
 
     init_run     :    130.77s CPU    136.10s WALL (       1 calls)
     electrons    :  20829.55s CPU  21470.74s WALL (       1 calls)
     forces       :     93.63s CPU     95.32s WALL (       1 calls)
     force_dftd3  :      0.59s CPU      0.63s WALL (       1 calls)

     Called by init_run:
     wfcinit      :    112.05s CPU    116.63s WALL (       1 calls)
     potinit      :      1.87s CPU      1.94s WALL (       1 calls)
     hinit0       :     10.98s CPU     11.04s WALL (       1 calls)

     Called by electrons:
     c_bands      :  19060.13s CPU  19600.73s WALL (      37 calls)
     sum_band     :   1659.90s CPU   1738.20s WALL (      37 calls)
     v_of_rho     :     11.13s CPU     12.05s WALL (      37 calls)
     newd         :     73.48s CPU     94.30s WALL (      37 calls)
     PAW_pot      :     19.16s CPU     19.24s WALL (      37 calls)
     mix_rho      :      3.45s CPU      3.78s WALL (      37 calls)
     energy_dftd3 :      0.37s CPU      0.38s WALL (       1 calls)

     Called by c_bands:
     init_us_2    :     69.33s CPU     69.98s WALL (     304 calls)
     init_us_2:cp :     69.32s CPU     69.98s WALL (     304 calls)
     cegterg      :  18778.57s CPU  19313.61s WALL (     153 calls)

     Called by *egterg:
     cdiaghg      :    686.60s CPU    691.45s WALL (    1678 calls)
     h_psi        :   9371.02s CPU   9814.30s WALL (    1687 calls)
     s_psi        :   2308.36s CPU   2326.80s WALL (    1687 calls)
     g_psi        :     22.67s CPU     22.75s WALL (    1530 calls)

     Called by h_psi:
     h_psi:calbec :   2310.07s CPU   2324.66s WALL (    1687 calls)
     vloc_psi     :   4683.49s CPU   5074.59s WALL (    1687 calls)
     add_vuspsi   :   2336.42s CPU   2358.93s WALL (    1687 calls)

     General routines
     calbec       :   2957.70s CPU   2976.65s WALL (    1851 calls)
     fft          :      9.16s CPU     10.58s WALL (     491 calls)
     ffts         :      0.57s CPU      0.67s WALL (      74 calls)
     fftw         :   3375.49s CPU   3801.84s WALL ( 1263084 calls)
     interpolate  :      1.05s CPU      1.20s WALL (      37 calls)
 
     Parallel routines
 
     PWSCF        :      5h51m CPU      6h 5m WALL

 
   This run was terminated on:  16:37:14   6Aug2023            

=------------------------------------------------------------------------------=
   JOB DONE.
=------------------------------------------------------------------------------=
