
     Program PWSCF v.7.2 starts on  6Aug2023 at  7:45:32 

     This program is part of the open-source Quantum ESPRESSO suite
     for quantum simulation of materials; please cite
         "P. Giannozzi et al., J. Phys.:Condens. Matter 21 395502 (2009);
         "P. Giannozzi et al., J. Phys.:Condens. Matter 29 465901 (2017);
         "P. Giannozzi et al., J. Chem. Phys. 152 154105 (2020);
          URL http://www.quantum-espresso.org", 
     in publications or presentations arising from this work. More details at
     http://www.quantum-espresso.org/quote

     Parallel version (MPI), running on    48 processors

     MPI processes distributed on     1 nodes
     1024061 MiB available memory on the printing compute node when the environment starts
 
     Waiting for input...
     Reading input from standard input
Warning: card &CELL ignored
Warning: card / ignored

     Current dimensions of program PWSCF are:
     Max number of different atomic species (ntypx) = 10
     Max number of k-points (npk) =  40000
     Max angular momentum in pseudopotentials (lmaxx) =  4
     file Mo.pbe-spn-kjpaw_psl.1.0.0.UPF: wavefunction(s)  4S 4D renormalized
     file S.pbe-n-kjpaw_psl.1.0.0.UPF: wavefunction(s)  3S 3P renormalized
     Found identity + ( -0.0000  0.2500  0.0000) symmetry
     This is a supercell, fractional translations are disabled
 
     R & G space division:  proc/nbgrp/npool/nimage =      48
     Subspace diagonalization in iterative solution of the eigenvalue problem:
     one sub-group per band group will be used
     ELPA distributed-memory algorithm (size of sub-group:  6*  6 procs)

 
     Parallelization info
     --------------------
     sticks:   dense  smooth     PW     G-vecs:    dense   smooth      PW
     Min         439     251     66               124057    53592    7316
     Max         440     253     67               124070    53602    7331
     Sum       21109   12085   3205              5955087  2572543  351657
 
     Using Slab Decomposition
 


     bravais-lattice index     =            0
     lattice parameter (alat)  =      23.8395  a.u.
     unit-cell volume          =   28182.8498 (a.u.)^3
     number of atoms/cell      =          144
     number of atomic types    =            2
     number of electrons       =      1248.00
     number of Kohn-Sham states=          749
     kinetic-energy cutoff     =      77.0000  Ry
     charge density cutoff     =     539.0000  Ry
     scf convergence threshold =      1.0E-06
     mixing beta               =       0.2000
     number of iterations used =            8  plain     mixing
     Exchange-correlation= SLA  PW   PBX  PBC
                           (   1   4   3   4   0   0   0)

     Effective Screening Medium Method
     =================================
     Boundary Conditions: Vacuum-Slab-Vacuum
     total charge in unit cell        =   0.0000
     grid points for fit at edges     =        4 
 

     celldm(1)=  23.839504  celldm(2)=   0.000000  celldm(3)=   0.000000
     celldm(4)=   0.000000  celldm(5)=   0.000000  celldm(6)=   0.000000

     crystal axes: (cart. coord. in units of alat)
               a(1) = (   1.000000   0.000000   0.000000 )  
               a(2) = (  -0.500001   0.866026   0.000000 )  
               a(3) = (   0.000000   0.000000   2.401941 )  

     reciprocal axes: (cart. coord. in units 2 pi/alat)
               b(1) = (  1.000000  0.577351  0.000000 )  
               b(2) = (  0.000000  1.154700  0.000000 )  
               b(3) = (  0.000000  0.000000  0.416330 )  


     PseudoPot. # 1 for Mo read from file:
     ./pseudo/Mo.pbe-spn-kjpaw_psl.1.0.0.UPF
     MD5 check sum: 317bf72632116215fd98f72de1686f13
     Pseudo is Projector augmented-wave + core cor, Zval = 14.0
     Generated using 'atomic' code by A. Dal Corso  v.7.2
     Shape of augmentation charge: PSQ
     Using radial grid of 1229 points,  6 beta functions with: 
                l(1) =   0
                l(2) =   0
                l(3) =   1
                l(4) =   1
                l(5) =   2
                l(6) =   2
     Q(r) pseudized with 0 coefficients 


     PseudoPot. # 2 for S  read from file:
     ./pseudo/S.pbe-n-kjpaw_psl.1.0.0.UPF
     MD5 check sum: 8b7b5302570d38d5e87fed6a1065abda
     Pseudo is Projector augmented-wave + core cor, Zval =  6.0
     Generated using 'atomic' code by A. Dal Corso  v.7.2
     Shape of augmentation charge: PSQ
     Using radial grid of 1151 points,  6 beta functions with: 
                l(1) =   0
                l(2) =   0
                l(3) =   1
                l(4) =   1
                l(5) =   2
                l(6) =   2
     Q(r) pseudized with 0 coefficients 


     atomic species   valence    mass     pseudopotential
        Mo            14.00    95.95000     Mo( 1.00)
        S              6.00    32.06000     S ( 1.00)

     No symmetry found



   Cartesian axes

     site n.     atom                  positions (alat units)
         1           Mo  tau(   1) = (   0.1249983   0.2165050   0.4823527  )
         2           Mo  tau(   2) = (   0.1250004   0.0721694  -0.4825273  )
         3           Mo  tau(   3) = (  -0.0000019   0.1443377  -0.0000751  )
         4           S   tau(   4) = (   0.0000004   0.0000006  -0.6064556  )
         5           S   tau(   5) = (   0.1249982   0.0721692  -0.1241671  )
         6           S   tau(   6) = (  -0.0000016   0.1443364   0.3582431  )
         7           S   tau(   7) = (   0.0000004   0.0000005  -0.3584711  )
         8           S   tau(   8) = (   0.1249982   0.0721691   0.1241550  )
         9           S   tau(   9) = (  -0.0000015   0.1443364   0.6067201  )
        10           Mo  tau(  10) = (  -0.0000021   0.4330115   0.4823527  )
        11           Mo  tau(  11) = (   0.0000001   0.2886759  -0.4825273  )
        12           Mo  tau(  12) = (  -0.1250009   0.3608432  -0.0000744  )
        13           S   tau(  13) = (  -0.1249999   0.2165071  -0.6064556  )
        14           S   tau(  14) = (  -0.0000017   0.2886753  -0.1241667  )
        15           S   tau(  15) = (  -0.1250020   0.3608427   0.3582430  )
        16           S   tau(  16) = (  -0.1249998   0.2165070  -0.3584711  )
        17           S   tau(  17) = (  -0.0000017   0.2886752   0.1241551  )
        18           S   tau(  18) = (  -0.1250020   0.3608428   0.6067200  )
        19           Mo  tau(  19) = (  -0.1250025   0.6495181   0.4823527  )
        20           Mo  tau(  20) = (  -0.1250002   0.5051824  -0.4825273  )
        21           Mo  tau(  21) = (  -0.2500019   0.5773502  -0.0000747  )
        22           S   tau(  22) = (  -0.2500002   0.4330136  -0.6064556  )
        23           S   tau(  23) = (  -0.1250019   0.5051815  -0.1241659  )
        24           S   tau(  24) = (  -0.2500023   0.5773492   0.3582430  )
        25           S   tau(  25) = (  -0.2500001   0.4330135  -0.3584711  )
        26           S   tau(  26) = (  -0.1250021   0.5051816   0.1241548  )
        27           S   tau(  27) = (  -0.2500023   0.5773492   0.6067201  )
        28           Mo  tau(  28) = (   0.2499985  -0.0000014   0.4823528  )
        29           Mo  tau(  29) = (  -0.2500004   0.7216889  -0.4825273  )
        30           Mo  tau(  30) = (  -0.3750035   0.7938587  -0.0000751  )
        31           S   tau(  31) = (  -0.3750004   0.6495201  -0.6064556  )
        32           S   tau(  32) = (  -0.2500024   0.7216883  -0.1241659  )
        33           S   tau(  33) = (  -0.3750023   0.7938557   0.3582430  )
        34           S   tau(  34) = (  -0.3750004   0.6495200  -0.3584711  )
        35           S   tau(  35) = (  -0.2500028   0.7216884   0.1241544  )
        36           S   tau(  36) = (  -0.3750023   0.7938556   0.6067199  )
        37           Mo  tau(  37) = (   0.3749981   0.2165050   0.4823525  )
        38           Mo  tau(  38) = (   0.3750004   0.0721694  -0.4825273  )
        39           Mo  tau(  39) = (   0.2499973   0.1443382  -0.0000750  )
        40           S   tau(  40) = (   0.2500004   0.0000006  -0.6064556  )
        41           S   tau(  41) = (   0.3749982   0.0721689  -0.1241664  )
        42           S   tau(  42) = (   0.2499983   0.1443364   0.3582430  )
        43           S   tau(  43) = (   0.2500004   0.0000005  -0.3584711  )
        44           S   tau(  44) = (   0.3749982   0.0721692   0.1241548  )
        45           S   tau(  45) = (   0.2499984   0.1443363   0.6067201  )
        46           Mo  tau(  46) = (   0.2499981   0.4330115   0.4823527  )
        47           Mo  tau(  47) = (   0.2500001   0.2886759  -0.4825273  )
        48           Mo  tau(  48) = (   0.1249978   0.3608446  -0.0000747  )
        49           S   tau(  49) = (   0.1250001   0.2165071  -0.6064556  )
        50           S   tau(  50) = (   0.2499977   0.2886754  -0.1241668  )
        51           S   tau(  51) = (   0.1249981   0.3608427   0.3582430  )
        52           S   tau(  52) = (   0.1250002   0.2165070  -0.3584711  )
        53           S   tau(  53) = (   0.2499978   0.2886754   0.1241550  )
        54           S   tau(  54) = (   0.1249981   0.3608427   0.6067200  )
        55           Mo  tau(  55) = (   0.1249976   0.6495181   0.4823528  )
        56           Mo  tau(  56) = (   0.1249998   0.5051824  -0.4825273  )
        57           Mo  tau(  57) = (  -0.0000011   0.5773502  -0.0000746  )
        58           S   tau(  58) = (  -0.0000002   0.4330136  -0.6064556  )
        59           S   tau(  59) = (   0.1249978   0.5051816  -0.1241667  )
        60           S   tau(  60) = (  -0.0000023   0.5773491   0.3582431  )
        61           S   tau(  61) = (  -0.0000001   0.4330135  -0.3584711  )
        62           S   tau(  62) = (   0.1249980   0.5051816   0.1241553  )
        63           S   tau(  63) = (  -0.0000022   0.5773492   0.6067201  )
        64           Mo  tau(  64) = (   0.4999983  -0.0000014   0.4823527  )
        65           Mo  tau(  65) = (  -0.0000004   0.7216889  -0.4825273  )
        66           Mo  tau(  66) = (  -0.1250019   0.7938576  -0.0000744  )
        67           S   tau(  67) = (  -0.1250004   0.6495201  -0.6064556  )
        68           S   tau(  68) = (  -0.0000024   0.7216881  -0.1241664  )
        69           S   tau(  69) = (  -0.1250026   0.7938558   0.3582428  )
        70           S   tau(  70) = (  -0.1250004   0.6495200  -0.3584711  )
        71           S   tau(  71) = (  -0.0000022   0.7216883   0.1241549  )
        72           S   tau(  72) = (  -0.1250025   0.7938557   0.6067204  )
        73           Mo  tau(  73) = (   0.6249983   0.2165053   0.4823528  )
        74           Mo  tau(  74) = (   0.6250004   0.0721694  -0.4825273  )
        75           Mo  tau(  75) = (   0.4999985   0.1443375  -0.0000751  )
        76           S   tau(  76) = (   0.5000004   0.0000006  -0.6064556  )
        77           S   tau(  77) = (   0.6249985   0.0721690  -0.1241669  )
        78           S   tau(  78) = (   0.4999982   0.1443364   0.3582430  )
        79           S   tau(  79) = (   0.5000004   0.0000005  -0.3584711  )
        80           S   tau(  80) = (   0.6249984   0.0721690   0.1241550  )
        81           S   tau(  81) = (   0.4999983   0.1443363   0.6067200  )
        82           Mo  tau(  82) = (   0.4999981   0.4330116   0.4823529  )
        83           Mo  tau(  83) = (   0.5000001   0.2886759  -0.4825273  )
        84           Mo  tau(  84) = (   0.3749964   0.3608441  -0.0000749  )
        85           S   tau(  85) = (   0.3750001   0.2165071  -0.6064556  )
        86           S   tau(  86) = (   0.4999978   0.2886755  -0.1241662  )
        87           S   tau(  87) = (   0.3749982   0.3608427   0.3582430  )
        88           S   tau(  88) = (   0.3750002   0.2165070  -0.3584711  )
        89           S   tau(  89) = (   0.4999977   0.2886754   0.1241546  )
        90           S   tau(  90) = (   0.3749981   0.3608426   0.6067200  )
        91           Mo  tau(  91) = (   0.3749980   0.6495180   0.4823527  )
        92           Mo  tau(  92) = (   0.3749998   0.5051824  -0.4825273  )
        93           Mo  tau(  93) = (   0.2499971   0.5773505  -0.0000748  )
        94           S   tau(  94) = (   0.2499998   0.4330136  -0.6064556  )
        95           S   tau(  95) = (   0.3749976   0.5051816  -0.1241666  )
        96           S   tau(  96) = (   0.2499978   0.5773492   0.3582431  )
        97           S   tau(  97) = (   0.2499999   0.4330135  -0.3584711  )
        98           S   tau(  98) = (   0.3749977   0.5051817   0.1241548  )
        99           S   tau(  99) = (   0.2499978   0.5773491   0.6067200  )
       100           Mo  tau( 100) = (   0.7499985  -0.0000012   0.4823529  )
       101           Mo  tau( 101) = (   0.2499996   0.7216889  -0.4825273  )
       102           Mo  tau( 102) = (   0.1249980   0.7938575  -0.0000752  )
       103           S   tau( 103) = (   0.1249996   0.6495201  -0.6064556  )
       104           S   tau( 104) = (   0.2499977   0.7216881  -0.1241669  )
       105           S   tau( 105) = (   0.1249975   0.7938558   0.3582429  )
       106           S   tau( 106) = (   0.1249996   0.6495200  -0.3584711  )
       107           S   tau( 107) = (   0.2499976   0.7216882   0.1241550  )
       108           S   tau( 108) = (   0.1249974   0.7938558   0.6067204  )
       109           Mo  tau( 109) = (  -0.1250017   0.2165052   0.4823527  )
       110           Mo  tau( 110) = (   0.8750004   0.0721694  -0.4825273  )
       111           Mo  tau( 111) = (   0.7499989   0.1443369  -0.0000749  )
       112           S   tau( 112) = (   0.7500004   0.0000006  -0.6064556  )
       113           S   tau( 113) = (   0.8749984   0.0721690  -0.1241671  )
       114           S   tau( 114) = (   0.7499983   0.1443364   0.3582431  )
       115           S   tau( 115) = (   0.7500004   0.0000005  -0.3584711  )
       116           S   tau( 116) = (   0.8749985   0.0721690   0.1241551  )
       117           S   tau( 117) = (   0.7499983   0.1443365   0.6067200  )
       118           Mo  tau( 118) = (  -0.2500019   0.4330117   0.4823526  )
       119           Mo  tau( 119) = (   0.7500001   0.2886759  -0.4825273  )
       120           Mo  tau( 120) = (   0.6249978   0.3608437  -0.0000747  )
       121           S   tau( 121) = (   0.6250001   0.2165071  -0.6064556  )
       122           S   tau( 122) = (   0.7499983   0.2886752  -0.1241661  )
       123           S   tau( 123) = (   0.6249980   0.3608429   0.3582430  )
       124           S   tau( 124) = (   0.6250002   0.2165070  -0.3584711  )
       125           S   tau( 125) = (   0.7499981   0.2886752   0.1241547  )
       126           S   tau( 126) = (   0.6249982   0.3608428   0.6067202  )
       127           Mo  tau( 127) = (  -0.3750021   0.6495181   0.4823527  )
       128           Mo  tau( 128) = (   0.6249998   0.5051824  -0.4825273  )
       129           Mo  tau( 129) = (   0.4999969   0.5773509  -0.0000752  )
       130           S   tau( 130) = (   0.4999998   0.4330136  -0.6064556  )
       131           S   tau( 131) = (   0.6249978   0.5051817  -0.1241660  )
       132           S   tau( 132) = (   0.4999980   0.5773491   0.3582431  )
       133           S   tau( 133) = (   0.4999999   0.4330135  -0.3584711  )
       134           S   tau( 134) = (   0.6249975   0.5051818   0.1241544  )
       135           S   tau( 135) = (   0.4999981   0.5773491   0.6067201  )
       136           Mo  tau( 136) = (  -0.0000012  -0.0000013   0.4823527  )
       137           Mo  tau( 137) = (   0.4999996   0.7216889  -0.4825273  )
       138           Mo  tau( 138) = (   0.3749969   0.7938580  -0.0000749  )
       139           S   tau( 139) = (   0.3749996   0.6495201  -0.6064556  )
       140           S   tau( 140) = (   0.4999973   0.7216884  -0.1241666  )
       141           S   tau( 141) = (   0.3749976   0.7938558   0.3582430  )
       142           S   tau( 142) = (   0.3749996   0.6495200  -0.3584711  )
       143           S   tau( 143) = (   0.4999974   0.7216884   0.1241546  )
       144           S   tau( 144) = (   0.3749976   0.7938557   0.6067202  )

     --------------------------------------------
     DFT-D3 Dispersion Correction (3-body terms):
     --------------------------------------------
       Reference C6 values for interpolation: 

         atom   Coordination number   C6
         S          0.000           268.01
         S          0.995           261.99
         S          1.990           251.62
         Mo         0.000          1691.79
         Mo         1.942          1004.01
         Mo        11.056           674.22

       Values used:

         atom   Coordination number  R0_AB[au]  C6      C8
         Mo        10.186            3.547    674.22  77634.20
         Mo        10.189            3.547    674.22  77634.20
         Mo        10.201            3.547    674.22  77634.20
         S          3.753            3.128    251.62  12327.25
         S          3.858            3.128    251.62  12327.25
         S          3.857            3.128    251.62  12327.25
         S          3.859            3.128    251.62  12327.25
         S          3.858            3.128    251.62  12327.25
         S          3.748            3.128    251.62  12327.25
         Mo        10.186            3.547    674.22  77634.20
         Mo        10.189            3.547    674.22  77634.20
         Mo        10.201            3.547    674.22  77634.20
         S          3.753            3.128    251.62  12327.25
         S          3.858            3.128    251.62  12327.25
         S          3.857            3.128    251.62  12327.25
         S          3.859            3.128    251.62  12327.25
         S          3.858            3.128    251.62  12327.25
         S          3.748            3.128    251.62  12327.25
         Mo        10.186            3.547    674.22  77634.20
         Mo        10.189            3.547    674.22  77634.20
         Mo        10.201            3.547    674.22  77634.20
         S          3.753            3.128    251.62  12327.25
         S          3.858            3.128    251.62  12327.25
         S          3.857            3.128    251.62  12327.25
         S          3.859            3.128    251.62  12327.25
         S          3.858            3.128    251.62  12327.25
         S          3.748            3.128    251.62  12327.25
         Mo        10.186            3.547    674.22  77634.20
         Mo        10.189            3.547    674.22  77634.20
         Mo        10.201            3.547    674.22  77634.20
         S          3.753            3.128    251.62  12327.25
         S          3.858            3.128    251.62  12327.25
         S          3.857            3.128    251.62  12327.25
         S          3.859            3.128    251.62  12327.25
         S          3.858            3.128    251.62  12327.25
         S          3.748            3.128    251.62  12327.25
         Mo        10.186            3.547    674.22  77634.20
         Mo        10.189            3.547    674.22  77634.20
         Mo        10.201            3.547    674.22  77634.20
         S          3.753            3.128    251.62  12327.25
         S          3.858            3.128    251.62  12327.25
         S          3.857            3.128    251.62  12327.25
         S          3.859            3.128    251.62  12327.25
         S          3.858            3.128    251.62  12327.25
         S          3.748            3.128    251.62  12327.25
         Mo        10.186            3.547    674.22  77634.20
         Mo        10.189            3.547    674.22  77634.20
         Mo        10.201            3.547    674.22  77634.20
         S          3.753            3.128    251.62  12327.25
         S          3.858            3.128    251.62  12327.25
         S          3.857            3.128    251.62  12327.25
         S          3.859            3.128    251.62  12327.25
         S          3.858            3.128    251.62  12327.25
         S          3.748            3.128    251.62  12327.25
         Mo        10.186            3.547    674.22  77634.20
         Mo        10.189            3.547    674.22  77634.20
         Mo        10.201            3.547    674.22  77634.20
         S          3.753            3.128    251.62  12327.25
         S          3.858            3.128    251.62  12327.25
         S          3.857            3.128    251.62  12327.25
         S          3.859            3.128    251.62  12327.25
         S          3.858            3.128    251.62  12327.25
         S          3.748            3.128    251.62  12327.25
         Mo        10.186            3.547    674.22  77634.20
         Mo        10.189            3.547    674.22  77634.20
         Mo        10.201            3.547    674.22  77634.20
         S          3.753            3.128    251.62  12327.25
         S          3.858            3.128    251.62  12327.25
         S          3.857            3.128    251.62  12327.25
         S          3.859            3.128    251.62  12327.25
         S          3.858            3.128    251.62  12327.25
         S          3.748            3.128    251.62  12327.25
         Mo        10.186            3.547    674.22  77634.20
         Mo        10.189            3.547    674.22  77634.20
         Mo        10.201            3.547    674.22  77634.20
         S          3.753            3.128    251.62  12327.25
         S          3.858            3.128    251.62  12327.25
         S          3.857            3.128    251.62  12327.25
         S          3.859            3.128    251.62  12327.25
         S          3.858            3.128    251.62  12327.25
         S          3.748            3.128    251.62  12327.25
         Mo        10.186            3.547    674.22  77634.20
         Mo        10.189            3.547    674.22  77634.20
         Mo        10.201            3.547    674.22  77634.20
         S          3.753            3.128    251.62  12327.25
         S          3.858            3.128    251.62  12327.25
         S          3.857            3.128    251.62  12327.25
         S          3.859            3.128    251.62  12327.25
         S          3.858            3.128    251.62  12327.25
         S          3.748            3.128    251.62  12327.25
         Mo        10.186            3.547    674.22  77634.20
         Mo        10.189            3.547    674.22  77634.20
         Mo        10.201            3.547    674.22  77634.20
         S          3.753            3.128    251.62  12327.25
         S          3.858            3.128    251.62  12327.25
         S          3.857            3.128    251.62  12327.25
         S          3.859            3.128    251.62  12327.25
         S          3.858            3.128    251.62  12327.25
         S          3.748            3.128    251.62  12327.25
         Mo        10.186            3.547    674.22  77634.20
         Mo        10.189            3.547    674.22  77634.20
         Mo        10.201            3.547    674.22  77634.20
         S          3.753            3.128    251.62  12327.25
         S          3.858            3.128    251.62  12327.25
         S          3.857            3.128    251.62  12327.25
         S          3.859            3.128    251.62  12327.25
         S          3.858            3.128    251.62  12327.25
         S          3.748            3.128    251.62  12327.25
         Mo        10.186            3.547    674.22  77634.20
         Mo        10.189            3.547    674.22  77634.20
         Mo        10.201            3.547    674.22  77634.20
         S          3.753            3.128    251.62  12327.25
         S          3.858            3.128    251.62  12327.25
         S          3.857            3.128    251.62  12327.25
         S          3.859            3.128    251.62  12327.25
         S          3.858            3.128    251.62  12327.25
         S          3.748            3.128    251.62  12327.25
         Mo        10.186            3.547    674.22  77634.20
         Mo        10.189            3.547    674.22  77634.20
         Mo        10.201            3.547    674.22  77634.20
         S          3.753            3.128    251.62  12327.25
         S          3.858            3.128    251.62  12327.25
         S          3.857            3.128    251.62  12327.25
         S          3.859            3.128    251.62  12327.25
         S          3.858            3.128    251.62  12327.25
         S          3.748            3.128    251.62  12327.25
         Mo        10.186            3.547    674.22  77634.20
         Mo        10.189            3.547    674.22  77634.20
         Mo        10.201            3.547    674.22  77634.20
         S          3.753            3.128    251.62  12327.25
         S          3.858            3.128    251.62  12327.25
         S          3.857            3.128    251.62  12327.25
         S          3.859            3.128    251.62  12327.25
         S          3.858            3.128    251.62  12327.25
         S          3.748            3.128    251.62  12327.25
         Mo        10.186            3.547    674.22  77634.20
         Mo        10.189            3.547    674.22  77634.20
         Mo        10.201            3.547    674.22  77634.20
         S          3.753            3.128    251.62  12327.25
         S          3.858            3.128    251.62  12327.25
         S          3.857            3.128    251.62  12327.25
         S          3.859            3.128    251.62  12327.25
         S          3.858            3.128    251.62  12327.25
         S          3.748            3.128    251.62  12327.25

         Molecular C6 ( Ry / a.u.^6 ) =   7657708.49


     number of k points=     4  Gaussian smearing, width (Ry)=  0.0100
                       cart. coord. in units 2pi/alat
        k(    1) = (   0.0000000   0.0000000   0.0000000), wk =   0.5000000
        k(    2) = (   0.0000000  -0.5773499   0.0000000), wk =   0.5000000
        k(    3) = (  -0.5000000  -0.2886755   0.0000000), wk =   0.5000000
        k(    4) = (  -0.5000000  -0.8660254   0.0000000), wk =   0.5000000

     Dense  grid:  5955087 G-vectors     FFT dimensions: ( 180, 180, 432)

     Smooth grid:  2572543 G-vectors     FFT dimensions: ( 135, 135, 320)

     Estimated max dynamical RAM per process >       1.58 GB

     Estimated total dynamical RAM >      75.99 GB

     Initial potential from superposition of free atoms

     starting charge    1247.9546, renormalised to    1248.0000

     negative rho (up, down):  7.243E-04 0.000E+00
     Starting wfcs are  864 randomized atomic wfcs
     Checking if some PAW data can be deallocated... 

     total cpu time spent up to now is       70.5 secs

     Self-consistent Calculation

     iteration #  1     ecut=    77.00 Ry     beta= 0.20
     Davidson diagonalization with overlap
     ethr =  1.00E-02,  avg # of iterations =  2.0

     Threshold (ethr) on eigenvalues was too large:
     Diagonalizing with lowered threshold

     Davidson diagonalization with overlap
     ethr =  1.13E-04,  avg # of iterations = 19.0

     negative rho (up, down):  2.275E-04 0.000E+00

     total cpu time spent up to now is     1035.0 secs

     total energy              =  -23845.26689013 Ry
     estimated scf accuracy    <       5.14260181 Ry

     iteration #  2     ecut=    77.00 Ry     beta= 0.20
     Davidson diagonalization with overlap
     ethr =  4.12E-04,  avg # of iterations =  1.0

     negative rho (up, down):  4.260E-05 0.000E+00

     total cpu time spent up to now is     1172.1 secs

     total energy              =  -23844.22396990 Ry
     estimated scf accuracy    <       2.58344839 Ry

     iteration #  3     ecut=    77.00 Ry     beta= 0.20
     Davidson diagonalization with overlap
     ethr =  2.07E-04,  avg # of iterations =  5.2

     negative rho (up, down):  2.883E-05 0.000E+00

     total cpu time spent up to now is     1330.4 secs

     total energy              =  -23844.06771888 Ry
     estimated scf accuracy    <       0.58829358 Ry

     iteration #  4     ecut=    77.00 Ry     beta= 0.20
     Davidson diagonalization with overlap
     ethr =  4.71E-05,  avg # of iterations = 16.5

     negative rho (up, down):  1.777E-05 0.000E+00

     total cpu time spent up to now is     2050.3 secs

     total energy              =  -23846.58594496 Ry
     estimated scf accuracy    <       3.13765370 Ry

     iteration #  5     ecut=    77.00 Ry     beta= 0.20
     Davidson diagonalization with overlap
     ethr =  4.71E-05,  avg # of iterations =  2.8

     negative rho (up, down):  1.222E-05 0.000E+00

     total cpu time spent up to now is     2205.3 secs

     total energy              =  -23846.90851050 Ry
     estimated scf accuracy    <       3.76403317 Ry

     iteration #  6     ecut=    77.00 Ry     beta= 0.20
     Davidson diagonalization with overlap
     ethr =  4.71E-05,  avg # of iterations =  4.8

     negative rho (up, down):  1.572E-05 0.000E+00

     total cpu time spent up to now is     2362.0 secs

     total energy              =  -23845.46032229 Ry
     estimated scf accuracy    <       4.28053475 Ry

     iteration #  7     ecut=    77.00 Ry     beta= 0.20
     Davidson diagonalization with overlap
     ethr =  4.71E-05,  avg # of iterations =  2.8

     negative rho (up, down):  4.156E-05 0.000E+00

     total cpu time spent up to now is     2511.6 secs

     total energy              =  -23844.12223764 Ry
     estimated scf accuracy    <       2.03894250 Ry

     iteration #  8     ecut=    77.00 Ry     beta= 0.20
     Davidson diagonalization with overlap
     ethr =  4.71E-05,  avg # of iterations = 11.2

     negative rho (up, down):  3.978E-05 0.000E+00

     total cpu time spent up to now is     2902.0 secs

     total energy              =  -23845.53258041 Ry
     estimated scf accuracy    <       0.67519927 Ry

     iteration #  9     ecut=    77.00 Ry     beta= 0.20
     Davidson diagonalization with overlap
     ethr =  4.71E-05,  avg # of iterations =  1.0

     negative rho (up, down):  3.902E-05 0.000E+00

     total cpu time spent up to now is     3038.4 secs

     total energy              =  -23845.54226760 Ry
     estimated scf accuracy    <       0.69488186 Ry

     iteration # 10     ecut=    77.00 Ry     beta= 0.20
     Davidson diagonalization with overlap
     ethr =  4.71E-05,  avg # of iterations =  1.0

     negative rho (up, down):  3.747E-05 0.000E+00

     total cpu time spent up to now is     3174.4 secs

     total energy              =  -23845.48272217 Ry
     estimated scf accuracy    <       0.70077400 Ry

     iteration # 11     ecut=    77.00 Ry     beta= 0.20
     Davidson diagonalization with overlap
     ethr =  4.71E-05,  avg # of iterations =  1.0

     negative rho (up, down):  8.513E-05 0.000E+00

     total cpu time spent up to now is     3310.8 secs

     total energy              =  -23845.18995371 Ry
     estimated scf accuracy    <       0.61030805 Ry

     iteration # 12     ecut=    77.00 Ry     beta= 0.20
     Davidson diagonalization with overlap
     ethr =  4.71E-05,  avg # of iterations =  2.5

     negative rho (up, down):  1.302E-04 0.000E+00

     total cpu time spent up to now is     3460.1 secs

     total energy              =  -23845.22771322 Ry
     estimated scf accuracy    <       0.20249493 Ry

     iteration # 13     ecut=    77.00 Ry     beta= 0.20
     Davidson diagonalization with overlap
     ethr =  1.62E-05,  avg # of iterations =  6.2

     negative rho (up, down):  1.528E-03 0.000E+00

     total cpu time spent up to now is     3627.6 secs

     total energy              =  -23845.38834686 Ry
     estimated scf accuracy    <       0.19348513 Ry

     iteration # 14     ecut=    77.00 Ry     beta= 0.20
     Davidson diagonalization with overlap
     ethr =  1.55E-05,  avg # of iterations =  6.2

     negative rho (up, down):  1.022E-03 0.000E+00

     total cpu time spent up to now is     3927.9 secs

     total energy              =  -23845.66237623 Ry
     estimated scf accuracy    <       0.60348534 Ry

     iteration # 15     ecut=    77.00 Ry     beta= 0.20
     Davidson diagonalization with overlap
     ethr =  1.55E-05,  avg # of iterations = 11.2

     negative rho (up, down):  1.863E-04 0.000E+00

     total cpu time spent up to now is     4330.9 secs

     total energy              =  -23844.87774711 Ry
     estimated scf accuracy    <       1.66371946 Ry

     iteration # 16     ecut=    77.00 Ry     beta= 0.20
     Davidson diagonalization with overlap
     ethr =  1.55E-05,  avg # of iterations = 11.0

     negative rho (up, down):  2.963E-04 0.000E+00

     total cpu time spent up to now is     4703.2 secs

     total energy              =  -23845.20947938 Ry
     estimated scf accuracy    <       0.03303035 Ry

     iteration # 17     ecut=    77.00 Ry     beta= 0.20
     Davidson diagonalization with overlap
     c_bands:  5 eigenvalues not converged
     c_bands:  4 eigenvalues not converged
     c_bands:  4 eigenvalues not converged
     c_bands:  4 eigenvalues not converged
     ethr =  2.65E-06,  avg # of iterations = 35.0

     negative rho (up, down):  2.951E-04 0.000E+00

     total cpu time spent up to now is     5162.2 secs

     total energy              =  -23845.21892343 Ry
     estimated scf accuracy    <       0.03598923 Ry

     iteration # 18     ecut=    77.00 Ry     beta= 0.20
     Davidson diagonalization with overlap
     c_bands:  3 eigenvalues not converged
     c_bands:  1 eigenvalues not converged
     ethr =  2.65E-06,  avg # of iterations = 16.0

     negative rho (up, down):  3.736E-04 0.000E+00

     total cpu time spent up to now is     5370.3 secs

     total energy              =  -23845.21295561 Ry
     estimated scf accuracy    <       0.01916234 Ry

     iteration # 19     ecut=    77.00 Ry     beta= 0.20
     Davidson diagonalization with overlap
     ethr =  1.54E-06,  avg # of iterations =  9.2

     negative rho (up, down):  6.706E-04 0.000E+00

     total cpu time spent up to now is     5602.0 secs

     total energy              =  -23845.22086619 Ry
     estimated scf accuracy    <       0.00463763 Ry

     iteration # 20     ecut=    77.00 Ry     beta= 0.20
     Davidson diagonalization with overlap
     ethr =  3.72E-07,  avg # of iterations =  9.5

     negative rho (up, down):  7.577E-04 0.000E+00

     total cpu time spent up to now is     5899.1 secs

     total energy              =  -23845.22817614 Ry
     estimated scf accuracy    <       0.00358308 Ry

     iteration # 21     ecut=    77.00 Ry     beta= 0.20
     Davidson diagonalization with overlap
     c_bands:  3 eigenvalues not converged
     c_bands:  3 eigenvalues not converged
     ethr =  2.87E-07,  avg # of iterations = 13.8

     negative rho (up, down):  6.597E-04 0.000E+00

     total cpu time spent up to now is     6136.6 secs

     total energy              =  -23845.22526672 Ry
     estimated scf accuracy    <       0.01257001 Ry

     iteration # 22     ecut=    77.00 Ry     beta= 0.20
     Davidson diagonalization with overlap
     ethr =  2.87E-07,  avg # of iterations =  4.5

     negative rho (up, down):  6.071E-04 0.000E+00

     total cpu time spent up to now is     6296.6 secs

     total energy              =  -23845.22364912 Ry
     estimated scf accuracy    <       0.00631717 Ry

     iteration # 23     ecut=    77.00 Ry     beta= 0.20
     Davidson diagonalization with overlap
     ethr =  2.87E-07,  avg # of iterations =  5.2

     negative rho (up, down):  6.211E-04 0.000E+00

     total cpu time spent up to now is     6459.9 secs

     total energy              =  -23845.22380787 Ry
     estimated scf accuracy    <       0.00315975 Ry

     iteration # 24     ecut=    77.00 Ry     beta= 0.20
     Davidson diagonalization with overlap
     ethr =  2.53E-07,  avg # of iterations =  2.0

     negative rho (up, down):  7.120E-04 0.000E+00

     total cpu time spent up to now is     6611.5 secs

     total energy              =  -23845.22229500 Ry
     estimated scf accuracy    <       0.00269594 Ry

     iteration # 25     ecut=    77.00 Ry     beta= 0.20
     Davidson diagonalization with overlap
     ethr =  2.16E-07,  avg # of iterations =  8.2

     negative rho (up, down):  7.825E-04 0.000E+00

     total cpu time spent up to now is     6912.7 secs

     total energy              =  -23845.22457103 Ry
     estimated scf accuracy    <       0.00081802 Ry

     iteration # 26     ecut=    77.00 Ry     beta= 0.20
     Davidson diagonalization with overlap
     ethr =  6.55E-08,  avg # of iterations =  6.2

     negative rho (up, down):  8.309E-04 0.000E+00

     total cpu time spent up to now is     7093.3 secs

     total energy              =  -23845.22464774 Ry
     estimated scf accuracy    <       0.00010803 Ry

     iteration # 27     ecut=    77.00 Ry     beta= 0.20
     Davidson diagonalization with overlap
     c_bands:  1 eigenvalues not converged
     c_bands:  1 eigenvalues not converged
     c_bands:  1 eigenvalues not converged
     ethr =  8.66E-09,  avg # of iterations = 19.2

     negative rho (up, down):  8.321E-04 0.000E+00

     total cpu time spent up to now is     7628.5 secs

     total energy              =  -23845.22492064 Ry
     estimated scf accuracy    <       0.00014866 Ry

     iteration # 28     ecut=    77.00 Ry     beta= 0.20
     Davidson diagonalization with overlap
     c_bands:  2 eigenvalues not converged
     ethr =  8.66E-09,  avg # of iterations =  5.8

     negative rho (up, down):  8.330E-04 0.000E+00

     total cpu time spent up to now is     7779.1 secs

     total energy              =  -23845.22491462 Ry
     estimated scf accuracy    <       0.00012502 Ry

     iteration # 29     ecut=    77.00 Ry     beta= 0.20
     Davidson diagonalization with overlap
     ethr =  8.66E-09,  avg # of iterations =  5.5

     negative rho (up, down):  8.423E-04 0.000E+00

     total cpu time spent up to now is     7940.2 secs

     total energy              =  -23845.22487539 Ry
     estimated scf accuracy    <       0.00010521 Ry

     iteration # 30     ecut=    77.00 Ry     beta= 0.20
     Davidson diagonalization with overlap
     ethr =  8.43E-09,  avg # of iterations =  3.0

     negative rho (up, down):  8.627E-04 0.000E+00

     total cpu time spent up to now is     8092.6 secs

     total energy              =  -23845.22486613 Ry
     estimated scf accuracy    <       0.00002264 Ry

     iteration # 31     ecut=    77.00 Ry     beta= 0.20
     Davidson diagonalization with overlap
     ethr =  1.81E-09,  avg # of iterations = 11.0

     negative rho (up, down):  8.675E-04 0.000E+00

     total cpu time spent up to now is     8522.2 secs

     total energy              =  -23845.22490840 Ry
     estimated scf accuracy    <       0.00003996 Ry

     iteration # 32     ecut=    77.00 Ry     beta= 0.20
     Davidson diagonalization with overlap
     ethr =  1.81E-09,  avg # of iterations =  1.2

     negative rho (up, down):  8.715E-04 0.000E+00

     total cpu time spent up to now is     8662.6 secs

     total energy              =  -23845.22489496 Ry
     estimated scf accuracy    <       0.00002711 Ry

     iteration # 33     ecut=    77.00 Ry     beta= 0.20
     Davidson diagonalization with overlap
     ethr =  1.81E-09,  avg # of iterations =  5.8

     negative rho (up, down):  8.732E-04 0.000E+00

     total cpu time spent up to now is     8831.5 secs

     total energy              =  -23845.22489782 Ry
     estimated scf accuracy    <       0.00000258 Ry

     iteration # 34     ecut=    77.00 Ry     beta= 0.20
     Davidson diagonalization with overlap
     ethr =  2.07E-10,  avg # of iterations = 16.2

     negative rho (up, down):  8.709E-04 0.000E+00

     total cpu time spent up to now is     9353.1 secs

     total energy              =  -23845.22490433 Ry
     estimated scf accuracy    <       0.00000188 Ry

     iteration # 35     ecut=    77.00 Ry     beta= 0.20
     Davidson diagonalization with overlap
     ethr =  1.51E-10,  avg # of iterations =  9.0

     negative rho (up, down):  8.731E-04 0.000E+00

     total cpu time spent up to now is     9640.8 secs

     total energy              =  -23845.22490469 Ry
     estimated scf accuracy    <       0.00000158 Ry

     iteration # 36     ecut=    77.00 Ry     beta= 0.20
     Davidson diagonalization with overlap
     ethr =  1.26E-10,  avg # of iterations =  1.2

     negative rho (up, down):  8.767E-04 0.000E+00

     total cpu time spent up to now is     9780.9 secs

     End of self-consistent calculation

          k = 0.0000 0.0000 0.0000 (321495 PWs)   bands (ev):

   -66.8430 -66.8219 -66.8219 -66.8219 -66.8219 -66.8219 -66.8219 -66.8007
   -66.8007 -66.8007 -66.8007 -66.8007 -66.8007 -66.8007 -66.8007 -66.8007
   -66.7769 -66.7558 -66.7558 -66.7558 -66.7558 -66.7558 -66.7558 -66.7347
   -66.7347 -66.7346 -66.7346 -66.7346 -66.7346 -66.7346 -66.7346 -66.7346
   -66.7075 -66.6865 -66.6865 -66.6865 -66.6865 -66.6864 -66.6864 -66.6653
   -66.6653 -66.6653 -66.6653 -66.6653 -66.6653 -66.6653 -66.6653 -66.6653
   -41.1694 -41.1694 -41.1694 -41.1022 -41.1022 -41.1022 -41.0946 -41.0946
   -41.0946 -41.0946 -41.0946 -41.0946 -41.0316 -41.0316 -41.0316 -41.0274
   -41.0274 -41.0274 -41.0274 -41.0274 -41.0274 -41.0031 -40.9690 -40.9690
   -40.9690 -40.9690 -40.9690 -40.9690 -40.9617 -40.9617 -40.9617 -40.9616
   -40.9616 -40.9616 -40.9569 -40.9569 -40.9569 -40.9569 -40.9569 -40.9569
   -40.9375 -40.9342 -40.9342 -40.9342 -40.9342 -40.9342 -40.9342 -40.9200
   -40.9200 -40.9200 -40.9200 -40.9200 -40.9200 -40.9199 -40.9199 -40.9199
   -40.9020 -40.9020 -40.9020 -40.9020 -40.9020 -40.9020 -40.8961 -40.8961
   -40.8961 -40.8961 -40.8961 -40.8961 -40.8672 -40.8672 -40.8672 -40.8672
   -40.8672 -40.8672 -40.8665 -40.8564 -40.8564 -40.8564 -40.8545 -40.8545
   -40.8545 -40.8545 -40.8545 -40.8545 -40.8544 -40.8544 -40.8544 -40.8316
   -40.8316 -40.8316 -40.8316 -40.8316 -40.8316 -40.8252 -40.8252 -40.8252
   -40.8252 -40.8252 -40.8252 -40.8096 -40.8096 -40.8096 -40.8096 -40.8096
   -40.8096 -40.7969 -40.7969 -40.7969 -40.7969 -40.7969 -40.7969 -40.7895
   -40.7895 -40.7895 -40.7837 -40.7837 -40.7837 -40.7837 -40.7837 -40.7837
   -40.7836 -40.7836 -40.7836 -40.7623 -40.7623 -40.7427 -40.7427 -40.7427
   -40.7427 -40.7427 -40.7427 -40.7193 -40.7193 -40.7193 -40.6954 -40.6954
   -40.6726 -40.6725 -40.6725 -40.6725 -40.6725 -40.6725 -40.6253 -40.6253
   -20.2730 -20.1438 -20.0022 -19.4069 -19.4069 -19.4069 -19.4069 -19.4069
   -19.4069 -19.2887 -19.2887 -19.2887 -19.2887 -19.2887 -19.2887 -19.1540
   -19.1540 -19.1540 -19.1540 -19.1540 -19.1540 -19.0098 -18.8052 -18.6274
   -18.6058 -18.6058 -18.6058 -18.6058 -18.6058 -18.6058 -18.4468 -18.4468
   -18.4468 -18.4468 -18.4468 -18.4468 -18.3085 -18.3085 -18.3085 -18.3085
   -18.3085 -18.3085 -18.3024 -18.3024 -18.3024 -18.3024 -18.3024 -18.3024
   -18.2622 -18.2622 -18.2622 -18.2224 -18.2224 -18.2224 -18.2224 -18.2224
   -18.2224 -18.1906 -18.1906 -18.1905 -18.1301 -18.1301 -18.1301 -18.1301
   -18.1300 -18.1300 -18.1147 -18.1147 -18.1147 -18.0775 -18.0775 -18.0775
   -18.0677 -18.0677 -18.0676 -18.0676 -18.0676 -18.0676 -18.0205 -18.0205
   -18.0205 -17.9929 -17.9928 -17.9928 -17.9928 -17.9928 -17.9928 -17.9339
   -17.9339 -17.9339 -17.9038 -17.9038 -17.9038 -17.9038 -17.9038 -17.9038
   -12.0817 -11.9183 -11.9183 -11.9183 -11.8416 -11.8416 -11.8416 -11.7288
   -11.7288 -11.7288 -11.6874 -11.3620 -11.3620 -11.3619 -11.3619 -11.3619
   -11.3619 -11.2895 -11.2895 -11.2895 -11.2895 -11.2895 -11.2895 -11.2621
   -11.1607 -11.1607 -11.1607 -11.1607 -11.1607 -11.1607 -11.0651 -11.0651
   -11.0651 -11.0651 -11.0651 -11.0651 -11.0460 -11.0460 -11.0460 -11.0460
   -11.0460 -11.0460 -10.9935 -10.9935 -10.9935 -10.9935 -10.9935 -10.9935
   -10.9658 -10.9658 -10.9658 -10.9412 -10.9412 -10.9412 -10.9412 -10.9412
   -10.9412 -10.8814 -10.8814 -10.8814 -10.8639 -10.8639 -10.8639 -10.8639
   -10.8639 -10.8639 -10.7454 -10.7454 -10.7454 -10.7454 -10.7454 -10.7454
   -10.7305 -10.7305 -10.7304 -10.2107 -10.2107 -10.2107 -10.0606 -10.0606
   -10.0606  -9.9313  -9.9313  -9.9313  -9.9313  -9.9313  -9.9313  -9.8989
    -9.8989  -9.8988  -9.8350  -9.8350  -9.8349  -9.8349  -9.8349  -9.8349
    -9.7794  -9.7794  -9.7794  -9.7794  -9.7794  -9.7794  -9.7361  -9.7361
    -9.7361  -9.7361  -9.7361  -9.7361  -9.6787  -9.6787  -9.6787  -9.6787
    -9.6787  -9.6787  -9.6392  -9.6392  -9.6392  -9.6392  -9.6391  -9.6391
    -9.5833  -9.5833  -9.5833  -9.5833  -9.5833  -9.5833  -9.4557  -9.4557
    -9.4557  -9.4557  -9.4557  -9.4557  -9.3398  -9.3398  -9.3398  -9.3398
    -9.3398  -9.3398  -9.3225  -9.3224  -9.3224  -9.3224  -9.3224  -9.3224
    -9.1811  -9.1810  -9.1810  -9.1578  -9.1578  -9.1578  -9.1578  -9.1578
    -9.1578  -9.1064  -9.1064  -9.1064  -9.0164  -9.0164  -9.0163  -8.9976
    -8.9976  -8.9976  -8.9976  -8.9976  -8.9976  -8.9560  -8.9560  -8.9560
    -8.9560  -8.9560  -8.9560  -8.8762  -8.8762  -8.8761  -8.8761  -8.8761
    -8.8761  -8.7978  -8.7978  -8.7978  -8.7978  -8.7978  -8.7978  -8.5922
    -8.5922  -8.5543  -8.5196  -8.5196  -8.4800  -8.4800  -8.4800  -8.4800
    -8.4799  -8.4799  -8.4371  -8.4371  -8.4075  -8.4075  -8.4075  -8.4075
    -8.4074  -8.4074  -8.3193  -8.3193  -8.3193  -8.3193  -8.3193  -8.3193
    -8.1233  -8.1233  -8.1233  -7.8775  -7.8775  -7.8775  -7.8268  -7.7445
    -7.7445  -7.7445  -7.7445  -7.7445  -7.7445  -7.6980  -7.6980  -7.6980
    -7.6980  -7.6980  -7.6980  -7.6702  -7.6702  -7.6702  -7.6702  -7.6702
    -7.6702  -7.6448  -7.6448  -7.6448  -7.6251  -7.6251  -7.6251  -7.6251
    -7.6251  -7.6251  -7.5823  -7.5823  -7.5823  -7.5823  -7.5823  -7.5823
    -7.5761  -7.5761  -7.5761  -7.5761  -7.5761  -7.5761  -7.5110  -7.5110
    -7.5110  -7.5110  -7.5110  -7.5110  -7.4633  -7.4633  -7.3944  -7.3944
    -7.3104  -7.3103  -7.3047  -7.3047  -7.3047  -7.3047  -7.3047  -7.3047
    -6.9838  -6.9838  -6.9838  -6.9838  -6.9838  -6.9838  -6.9739  -6.9649
    -6.9649  -6.9649  -6.8575  -6.8575  -6.8575  -6.7676  -6.7676  -6.7676
    -6.7676  -6.7676  -6.7676  -6.7440  -6.7440  -6.7440  -6.6816  -6.6816
    -6.6816  -6.6564  -6.6564  -6.6564  -6.6564  -6.6564  -6.6564  -6.5878
    -6.5878  -6.5877  -6.5700  -6.5700  -6.5700  -6.5700  -6.5700  -6.5700
    -6.5112  -6.5112  -6.5112  -6.5112  -6.5112  -6.5112  -6.4922  -6.4922
    -6.4922  -6.4340  -6.4340  -6.4340  -6.4340  -6.4340  -6.4340  -6.3524
    -6.3524  -6.3524  -6.3524  -6.3524  -6.3524  -6.2721  -5.6502  -5.3087
    -3.9911  -3.9911  -3.9911  -3.9911  -3.9911  -3.9911  -3.9578  -3.9578
    -3.9578  -3.9578  -3.9578  -3.9578  -3.7323  -3.7323  -3.7322  -3.7322
    -3.7322  -3.7321  -3.7237  -3.7237  -3.7237  -3.7237  -3.7237  -3.7232
    -3.6519  -3.6519  -3.6519  -3.6340  -3.6340  -3.6340  -3.6339  -3.6339
    -3.6339  -3.5846  -3.5846  -3.5845  -3.5296  -3.5296  -3.5296  -3.5295
    -3.5295  -3.5295  -3.5109  -3.5109  -3.5109  -3.5108  -3.5108  -3.5108
    -3.5077  -3.5077  -3.5077  -3.4174  -3.4174  -3.4173  -3.4173  -3.4173
    -3.4173  -3.3910  -3.3910  -3.3910  -3.3910  -3.3909  -3.3909  -3.1855
    -3.1855  -3.1855  -3.1803  -3.1800  -3.1124  -3.1124  -3.1123  -3.1122
    -3.1121  -3.1120  -3.1119  -3.1116  -3.0885  -3.0884  -3.0882  -3.0542
    -3.0542  -3.0541  -3.0541  -3.0540  -3.0539  -3.0396  -3.0394  -3.0393
    -3.0393  -3.0392  -3.0391  -3.0350  -3.0349  -2.9885  -2.9884  -2.9883
    -2.9277  -2.9277  -2.9211  -2.9180  -2.9178  -2.9176  -2.9175  -2.9169
    -2.8861  -2.8845  -2.8842  -2.8839  -2.8836  -2.8832  -2.8556  -2.8556
    -2.7917  -2.7916  -2.7916  -2.7916  -2.7916  -2.7862  -2.7740  -2.7739
    -2.6171  -2.6162  -2.6159  -2.6157  -2.6156

          k = 0.0000-0.5773 0.0000 (321564 PWs)   bands (ev):

   -66.8368 -66.8368 -66.8263 -66.8263 -66.8113 -66.8113 -66.8113 -66.8113
   -66.8069 -66.8069 -66.8007 -66.8007 -66.8007 -66.8007 -66.7963 -66.7963
   -66.7707 -66.7707 -66.7602 -66.7602 -66.7452 -66.7452 -66.7452 -66.7452
   -66.7409 -66.7408 -66.7347 -66.7346 -66.7346 -66.7346 -66.7302 -66.7302
   -66.7014 -66.7013 -66.6908 -66.6908 -66.6759 -66.6759 -66.6759 -66.6759
   -66.6715 -66.6715 -66.6653 -66.6653 -66.6653 -66.6653 -66.6609 -66.6609
   -41.1380 -41.1380 -41.1380 -41.1380 -41.1114 -41.1113 -41.0994 -41.0994
   -41.0708 -41.0708 -41.0708 -41.0707 -41.0490 -41.0490 -41.0490 -41.0490
   -41.0442 -41.0441 -41.0322 -41.0322 -41.0002 -41.0002 -41.0002 -41.0002
   -40.9910 -40.9910 -40.9819 -40.9819 -40.9819 -40.9819 -40.9811 -40.9811
   -40.9737 -40.9736 -40.9703 -40.9703 -40.9617 -40.9617 -40.9408 -40.9408
   -40.9408 -40.9408 -40.9322 -40.9322 -40.9254 -40.9254 -40.9201 -40.9201
   -40.9199 -40.9199 -40.9199 -40.9199 -40.9140 -40.9140 -40.9114 -40.9114
   -40.9114 -40.9114 -40.9113 -40.9113 -40.9047 -40.9047 -40.8893 -40.8893
   -40.8893 -40.8893 -40.8753 -40.8753 -40.8753 -40.8753 -40.8667 -40.8666
   -40.8548 -40.8548 -40.8548 -40.8548 -40.8545 -40.8545 -40.8545 -40.8544
   -40.8544 -40.8544 -40.8531 -40.8530 -40.8458 -40.8458 -40.8437 -40.8437
   -40.8427 -40.8427 -40.8338 -40.8338 -40.8235 -40.8235 -40.8224 -40.8224
   -40.8223 -40.8223 -40.8067 -40.8066 -40.8045 -40.8045 -40.8045 -40.8045
   -40.7958 -40.7958 -40.7879 -40.7879 -40.7879 -40.7879 -40.7837 -40.7836
   -40.7836 -40.7836 -40.7828 -40.7828 -40.7762 -40.7762 -40.7758 -40.7758
   -40.7750 -40.7750 -40.7567 -40.7566 -40.7521 -40.7521 -40.7521 -40.7521
   -40.7398 -40.7398 -40.7177 -40.7177 -40.7177 -40.7177 -40.7093 -40.7093
   -40.7056 -40.7056 -40.6865 -40.6864 -40.6696 -40.6696 -40.6392 -40.6392
   -20.0365 -20.0365 -19.9091 -19.9091 -19.7684 -19.7684 -19.6020 -19.6020
   -19.4802 -19.4802 -19.3428 -19.3428 -18.8991 -18.8991 -18.8944 -18.8944
   -18.8944 -18.8944 -18.7895 -18.7895 -18.7895 -18.7895 -18.7061 -18.7061
   -18.6956 -18.6956 -18.6650 -18.6650 -18.6649 -18.6649 -18.6470 -18.6470
   -18.5529 -18.5528 -18.5390 -18.5389 -18.5253 -18.5253 -18.4380 -18.4380
   -18.3778 -18.3778 -18.3647 -18.3647 -18.3647 -18.3647 -18.2828 -18.2828
   -18.2828 -18.2828 -18.2589 -18.2589 -18.2377 -18.2377 -18.2377 -18.2377
   -18.2068 -18.2067 -18.2067 -18.2067 -18.1528 -18.1528 -18.1227 -18.1227
   -18.1227 -18.1227 -18.1214 -18.1214 -18.1213 -18.1213 -18.0734 -18.0734
   -18.0734 -18.0734 -18.0501 -18.0501 -18.0193 -18.0193 -18.0065 -18.0065
   -18.0065 -18.0065 -17.9596 -17.9596 -17.9432 -17.9432 -17.9190 -17.9190
   -17.9190 -17.9190 -17.9013 -17.9013 -17.8577 -17.8577 -17.7972 -17.7972
   -11.8224 -11.8223 -11.6296 -11.6296 -11.6296 -11.6296 -11.6048 -11.6048
   -11.5436 -11.5436 -11.5436 -11.5436 -11.4899 -11.4899 -11.4378 -11.4378
   -11.4315 -11.4315 -11.4255 -11.4255 -11.4255 -11.4255 -11.4121 -11.4121
   -11.3661 -11.3661 -11.3614 -11.3613 -11.3048 -11.3047 -11.3047 -11.3047
   -11.2742 -11.2742 -11.1213 -11.1213 -11.1213 -11.1213 -11.0858 -11.0858
   -11.0678 -11.0678 -11.0123 -11.0122 -11.0025 -11.0025 -10.9854 -10.9854
   -10.9854 -10.9854 -10.9420 -10.9420 -10.9420 -10.9420 -10.9206 -10.9206
   -10.9206 -10.9206 -10.8938 -10.8938 -10.8010 -10.8010 -10.8010 -10.8010
   -10.6928 -10.6928 -10.6440 -10.6440 -10.5179 -10.5179 -10.3492 -10.3492
   -10.2742 -10.2742 -10.2742 -10.2742 -10.1723 -10.1723 -10.1723 -10.1723
   -10.0888 -10.0888 -10.0888 -10.0888 -10.0511 -10.0511 -10.0453 -10.0453
   -10.0393 -10.0393 -10.0393 -10.0393  -9.9352  -9.9352  -9.9352  -9.9352
    -9.8949  -9.8949  -9.8892  -9.8892  -9.8606  -9.8606  -9.8605  -9.8605
    -9.7754  -9.7754  -9.7723  -9.7723  -9.7723  -9.7723  -9.7570  -9.7570
    -9.7570  -9.7570  -9.7290  -9.7290  -9.6820  -9.6820  -9.6225  -9.6225
    -9.6040  -9.6040  -9.6040  -9.6040  -9.5497  -9.5497  -9.4314  -9.4313
    -9.3884  -9.3884  -9.2848  -9.2848  -9.2848  -9.2848  -9.2778  -9.2778
    -9.2778  -9.2778  -9.2522  -9.2522  -9.1544  -9.1544  -9.1544  -9.1544
    -9.1315  -9.1315  -9.1024  -9.1024  -9.1024  -9.1024  -9.0856  -9.0856
    -9.0755  -9.0755  -9.0496  -9.0496  -9.0445  -9.0445  -9.0445  -9.0445
    -9.0219  -9.0218  -9.0059  -9.0058  -8.9947  -8.9947  -8.9555  -8.9555
    -8.9555  -8.9555  -8.9275  -8.9275  -8.9226  -8.9225  -8.9206  -8.9205
    -8.8677  -8.8677  -8.8601  -8.8601  -8.8310  -8.8309  -8.6678  -8.6678
    -8.5873  -8.5873  -8.5390  -8.5390  -8.5094  -8.5094  -8.3486  -8.3486
    -8.2765  -8.2765  -8.2241  -8.2241  -8.1932  -8.1932  -8.0881  -8.0881
    -8.0206  -8.0206  -8.0206  -8.0206  -8.0024  -8.0023  -8.0018  -8.0018
    -7.9958  -7.9958  -7.9554  -7.9554  -7.9554  -7.9554  -7.9319  -7.9319
    -7.9142  -7.9142  -7.9142  -7.9142  -7.9051  -7.9051  -7.8815  -7.8815
    -7.8815  -7.8815  -7.8463  -7.8463  -7.8463  -7.8463  -7.8441  -7.8441
    -7.8166  -7.8166  -7.7868  -7.7868  -7.7868  -7.7868  -7.7861  -7.7861
    -7.7861  -7.7861  -7.7460  -7.7460  -7.7353  -7.7353  -7.7170  -7.7170
    -7.7170  -7.7170  -7.6605  -7.6605  -7.5881  -7.5881  -7.5881  -7.5881
    -7.4726  -7.4726  -7.3918  -7.3918  -7.3918  -7.3918  -7.2683  -7.2682
    -7.2509  -7.2509  -7.2509  -7.2509  -7.1679  -7.1679  -7.0925  -7.0925
    -7.0925  -7.0925  -7.0913  -7.0913  -7.0771  -7.0771  -7.0611  -7.0611
    -6.9822  -6.9822  -6.9752  -6.9751  -6.9087  -6.9087  -6.8582  -6.8582
    -6.8134  -6.8134  -6.8134  -6.8134  -6.7576  -6.7575  -6.7456  -6.7456
    -6.7456  -6.7456  -6.6644  -6.6644  -6.6644  -6.6644  -6.6533  -6.6533
    -6.6465  -6.6465  -6.5405  -6.5405  -6.4820  -6.4820  -6.4820  -6.4820
    -6.4143  -6.4143  -6.4026  -6.4025  -6.4025  -6.4025  -6.3394  -6.3394
    -6.3163  -6.3163  -6.3163  -6.3163  -6.3105  -6.3105  -6.1334  -6.1334
    -6.0578  -6.0578  -5.9760  -5.9760  -5.8863  -5.8863  -5.7060  -5.7060
    -4.1673  -4.1673  -4.1673  -4.1672  -4.0488  -4.0488  -4.0262  -4.0262
    -3.9837  -3.9837  -3.9075  -3.9075  -3.9075  -3.9074  -3.9058  -3.9058
    -3.8205  -3.8205  -3.7492  -3.7492  -3.7492  -3.7492  -3.7345  -3.7344
    -3.6789  -3.6789  -3.6789  -3.6789  -3.6570  -3.6569  -3.6285  -3.6285
    -3.6273  -3.6273  -3.6176  -3.6176  -3.6176  -3.6176  -3.5672  -3.5672
    -3.5071  -3.5070  -3.5070  -3.5070  -3.5019  -3.5019  -3.4732  -3.4732
    -3.4634  -3.4633  -3.4249  -3.4249  -3.4248  -3.4242  -3.4146  -3.4145
    -3.3935  -3.3934  -3.3901  -3.3900  -3.3525  -3.3525  -3.3525  -3.3514
    -3.3504  -3.3504  -3.3189  -3.3188  -3.2548  -3.2547  -3.2531  -3.2531
    -3.2531  -3.2530  -3.2218  -3.2218  -3.1826  -3.1826  -3.1620  -3.1618
    -3.1615  -3.1614  -3.1614  -3.1614  -3.1244  -3.1243  -3.1127  -3.1127
    -3.0961  -3.0960  -3.0663  -3.0661  -3.0661  -3.0660  -3.0385  -3.0384
    -3.0115  -3.0115  -3.0004  -3.0003  -3.0002  -2.9997  -2.9522  -2.9521
    -2.9521  -2.9521  -2.9422  -2.9415  -2.8293  -2.8291  -2.7985  -2.7985
    -2.7727  -2.7727  -2.7726  -2.7605  -2.7148  -2.7148  -2.6329  -2.6328
    -2.6327  -2.6256  -2.6255  -2.4595  -2.4590

          k =-0.5000-0.2887 0.0000 (321564 PWs)   bands (ev):

   -66.8368 -66.8368 -66.8263 -66.8263 -66.8113 -66.8113 -66.8113 -66.8113
   -66.8069 -66.8069 -66.8007 -66.8007 -66.8007 -66.8007 -66.7963 -66.7963
   -66.7707 -66.7707 -66.7602 -66.7602 -66.7452 -66.7452 -66.7452 -66.7452
   -66.7408 -66.7408 -66.7346 -66.7346 -66.7346 -66.7346 -66.7302 -66.7302
   -66.7014 -66.7014 -66.6908 -66.6908 -66.6759 -66.6759 -66.6759 -66.6759
   -66.6715 -66.6715 -66.6653 -66.6653 -66.6653 -66.6653 -66.6609 -66.6609
   -41.1380 -41.1380 -41.1380 -41.1380 -41.1114 -41.1113 -41.0994 -41.0994
   -41.0708 -41.0708 -41.0708 -41.0708 -41.0490 -41.0490 -41.0490 -41.0490
   -41.0442 -41.0441 -41.0322 -41.0322 -41.0002 -41.0002 -41.0002 -41.0002
   -40.9910 -40.9910 -40.9819 -40.9819 -40.9819 -40.9819 -40.9811 -40.9811
   -40.9736 -40.9736 -40.9703 -40.9703 -40.9617 -40.9617 -40.9408 -40.9408
   -40.9408 -40.9408 -40.9322 -40.9322 -40.9254 -40.9254 -40.9201 -40.9201
   -40.9200 -40.9199 -40.9199 -40.9199 -40.9141 -40.9141 -40.9114 -40.9114
   -40.9114 -40.9114 -40.9113 -40.9113 -40.9047 -40.9047 -40.8893 -40.8893
   -40.8893 -40.8893 -40.8753 -40.8753 -40.8753 -40.8753 -40.8667 -40.8666
   -40.8548 -40.8548 -40.8548 -40.8548 -40.8545 -40.8545 -40.8544 -40.8544
   -40.8544 -40.8544 -40.8531 -40.8531 -40.8458 -40.8458 -40.8437 -40.8437
   -40.8427 -40.8427 -40.8338 -40.8338 -40.8235 -40.8235 -40.8224 -40.8223
   -40.8223 -40.8223 -40.8066 -40.8066 -40.8045 -40.8045 -40.8045 -40.8045
   -40.7958 -40.7958 -40.7879 -40.7879 -40.7879 -40.7879 -40.7837 -40.7836
   -40.7836 -40.7836 -40.7828 -40.7828 -40.7762 -40.7762 -40.7758 -40.7758
   -40.7750 -40.7750 -40.7566 -40.7566 -40.7521 -40.7521 -40.7521 -40.7521
   -40.7398 -40.7398 -40.7177 -40.7177 -40.7177 -40.7177 -40.7093 -40.7093
   -40.7056 -40.7056 -40.6865 -40.6864 -40.6696 -40.6696 -40.6392 -40.6392
   -20.0365 -20.0365 -19.9091 -19.9091 -19.7684 -19.7684 -19.6020 -19.6020
   -19.4802 -19.4802 -19.3428 -19.3428 -18.8991 -18.8991 -18.8944 -18.8944
   -18.8944 -18.8944 -18.7895 -18.7895 -18.7895 -18.7895 -18.7061 -18.7061
   -18.6956 -18.6956 -18.6650 -18.6650 -18.6649 -18.6649 -18.6470 -18.6470
   -18.5528 -18.5528 -18.5390 -18.5389 -18.5253 -18.5253 -18.4380 -18.4380
   -18.3778 -18.3778 -18.3647 -18.3647 -18.3647 -18.3647 -18.2828 -18.2828
   -18.2828 -18.2828 -18.2589 -18.2589 -18.2377 -18.2377 -18.2377 -18.2377
   -18.2067 -18.2067 -18.2067 -18.2067 -18.1528 -18.1528 -18.1227 -18.1227
   -18.1227 -18.1227 -18.1214 -18.1214 -18.1214 -18.1214 -18.0734 -18.0734
   -18.0734 -18.0734 -18.0501 -18.0501 -18.0193 -18.0193 -18.0065 -18.0065
   -18.0065 -18.0065 -17.9596 -17.9596 -17.9432 -17.9432 -17.9190 -17.9190
   -17.9190 -17.9190 -17.9013 -17.9013 -17.8577 -17.8577 -17.7972 -17.7972
   -11.8223 -11.8223 -11.6296 -11.6296 -11.6296 -11.6296 -11.6048 -11.6048
   -11.5436 -11.5436 -11.5436 -11.5436 -11.4899 -11.4899 -11.4378 -11.4378
   -11.4315 -11.4315 -11.4255 -11.4255 -11.4255 -11.4255 -11.4121 -11.4121
   -11.3661 -11.3661 -11.3613 -11.3613 -11.3048 -11.3047 -11.3047 -11.3047
   -11.2742 -11.2742 -11.1213 -11.1213 -11.1213 -11.1213 -11.0858 -11.0858
   -11.0678 -11.0678 -11.0123 -11.0123 -11.0025 -11.0025 -10.9854 -10.9854
   -10.9854 -10.9854 -10.9420 -10.9420 -10.9420 -10.9420 -10.9206 -10.9206
   -10.9206 -10.9206 -10.8938 -10.8938 -10.8010 -10.8010 -10.8010 -10.8010
   -10.6928 -10.6928 -10.6440 -10.6440 -10.5179 -10.5179 -10.3492 -10.3492
   -10.2742 -10.2742 -10.2742 -10.2742 -10.1723 -10.1723 -10.1723 -10.1723
   -10.0888 -10.0888 -10.0888 -10.0888 -10.0511 -10.0511 -10.0453 -10.0453
   -10.0393 -10.0393 -10.0393 -10.0393  -9.9352  -9.9352  -9.9352  -9.9352
    -9.8949  -9.8949  -9.8892  -9.8892  -9.8606  -9.8606  -9.8606  -9.8606
    -9.7754  -9.7754  -9.7723  -9.7723  -9.7723  -9.7723  -9.7570  -9.7570
    -9.7570  -9.7570  -9.7290  -9.7290  -9.6820  -9.6820  -9.6225  -9.6225
    -9.6040  -9.6040  -9.6040  -9.6040  -9.5497  -9.5497  -9.4314  -9.4314
    -9.3884  -9.3884  -9.2848  -9.2848  -9.2848  -9.2848  -9.2778  -9.2778
    -9.2778  -9.2778  -9.2522  -9.2522  -9.1544  -9.1544  -9.1544  -9.1544
    -9.1315  -9.1315  -9.1024  -9.1024  -9.1024  -9.1024  -9.0856  -9.0856
    -9.0755  -9.0755  -9.0496  -9.0496  -9.0445  -9.0445  -9.0445  -9.0445
    -9.0219  -9.0218  -9.0059  -9.0059  -8.9947  -8.9947  -8.9555  -8.9555
    -8.9555  -8.9555  -8.9275  -8.9275  -8.9225  -8.9225  -8.9206  -8.9206
    -8.8677  -8.8677  -8.8601  -8.8601  -8.8310  -8.8310  -8.6678  -8.6678
    -8.5873  -8.5873  -8.5390  -8.5390  -8.5094  -8.5094  -8.3486  -8.3486
    -8.2765  -8.2765  -8.2241  -8.2241  -8.1932  -8.1932  -8.0881  -8.0881
    -8.0206  -8.0206  -8.0206  -8.0206  -8.0023  -8.0023  -8.0018  -8.0018
    -7.9958  -7.9958  -7.9554  -7.9554  -7.9554  -7.9554  -7.9319  -7.9319
    -7.9142  -7.9142  -7.9142  -7.9142  -7.9051  -7.9051  -7.8815  -7.8815
    -7.8815  -7.8815  -7.8463  -7.8463  -7.8463  -7.8463  -7.8441  -7.8441
    -7.8166  -7.8166  -7.7868  -7.7868  -7.7868  -7.7868  -7.7861  -7.7861
    -7.7861  -7.7861  -7.7460  -7.7460  -7.7353  -7.7353  -7.7170  -7.7170
    -7.7170  -7.7170  -7.6605  -7.6605  -7.5881  -7.5881  -7.5881  -7.5881
    -7.4726  -7.4726  -7.3918  -7.3918  -7.3918  -7.3918  -7.2682  -7.2682
    -7.2509  -7.2509  -7.2509  -7.2509  -7.1680  -7.1679  -7.0925  -7.0925
    -7.0925  -7.0925  -7.0913  -7.0913  -7.0771  -7.0771  -7.0611  -7.0611
    -6.9822  -6.9821  -6.9752  -6.9752  -6.9087  -6.9087  -6.8582  -6.8582
    -6.8134  -6.8134  -6.8134  -6.8134  -6.7575  -6.7575  -6.7456  -6.7456
    -6.7456  -6.7456  -6.6644  -6.6644  -6.6644  -6.6644  -6.6533  -6.6533
    -6.6465  -6.6465  -6.5405  -6.5405  -6.4820  -6.4820  -6.4820  -6.4820
    -6.4143  -6.4143  -6.4025  -6.4025  -6.4025  -6.4025  -6.3394  -6.3394
    -6.3163  -6.3163  -6.3163  -6.3163  -6.3105  -6.3105  -6.1334  -6.1334
    -6.0578  -6.0578  -5.9760  -5.9760  -5.8863  -5.8863  -5.7060  -5.7060
    -4.1673  -4.1673  -4.1673  -4.1672  -4.0488  -4.0488  -4.0262  -4.0262
    -3.9838  -3.9837  -3.9076  -3.9076  -3.9076  -3.9075  -3.9059  -3.9058
    -3.8205  -3.8205  -3.7492  -3.7491  -3.7491  -3.7491  -3.7345  -3.7345
    -3.6789  -3.6789  -3.6789  -3.6788  -3.6570  -3.6569  -3.6285  -3.6284
    -3.6273  -3.6273  -3.6176  -3.6176  -3.6176  -3.6176  -3.5672  -3.5672
    -3.5071  -3.5070  -3.5070  -3.5070  -3.5019  -3.5019  -3.4731  -3.4731
    -3.4633  -3.4633  -3.4249  -3.4249  -3.4249  -3.4243  -3.4146  -3.4145
    -3.3935  -3.3935  -3.3900  -3.3899  -3.3525  -3.3525  -3.3525  -3.3514
    -3.3505  -3.3505  -3.3191  -3.3190  -3.2548  -3.2548  -3.2531  -3.2531
    -3.2530  -3.2529  -3.2218  -3.2218  -3.1826  -3.1826  -3.1620  -3.1620
    -3.1615  -3.1614  -3.1613  -3.1613  -3.1244  -3.1243  -3.1126  -3.1126
    -3.0961  -3.0961  -3.0661  -3.0661  -3.0660  -3.0659  -3.0385  -3.0385
    -3.0115  -3.0114  -3.0001  -3.0001  -3.0000  -2.9997  -2.9521  -2.9520
    -2.9519  -2.9518  -2.9448  -2.9444  -2.8301  -2.8299  -2.7985  -2.7984
    -2.7726  -2.7725  -2.7724  -2.7612  -2.7148  -2.7148  -2.6329  -2.6328
    -2.6327  -2.6257  -2.6257  -2.4614  -2.4606

          k =-0.5000-0.8660 0.0000 (321564 PWs)   bands (ev):

   -66.8368 -66.8368 -66.8263 -66.8263 -66.8113 -66.8113 -66.8113 -66.8113
   -66.8069 -66.8069 -66.8007 -66.8007 -66.8007 -66.8007 -66.7963 -66.7963
   -66.7707 -66.7707 -66.7602 -66.7602 -66.7452 -66.7452 -66.7452 -66.7452
   -66.7408 -66.7408 -66.7346 -66.7346 -66.7346 -66.7346 -66.7302 -66.7302
   -66.7014 -66.7014 -66.6908 -66.6908 -66.6759 -66.6759 -66.6759 -66.6759
   -66.6715 -66.6715 -66.6653 -66.6653 -66.6653 -66.6653 -66.6609 -66.6609
   -41.1380 -41.1380 -41.1380 -41.1380 -41.1114 -41.1113 -41.0994 -41.0994
   -41.0708 -41.0708 -41.0708 -41.0708 -41.0490 -41.0490 -41.0490 -41.0490
   -41.0442 -41.0441 -41.0322 -41.0322 -41.0002 -41.0002 -41.0002 -41.0002
   -40.9910 -40.9910 -40.9819 -40.9819 -40.9819 -40.9819 -40.9811 -40.9811
   -40.9736 -40.9736 -40.9703 -40.9703 -40.9617 -40.9617 -40.9408 -40.9408
   -40.9408 -40.9408 -40.9322 -40.9321 -40.9254 -40.9254 -40.9201 -40.9201
   -40.9200 -40.9199 -40.9199 -40.9199 -40.9140 -40.9140 -40.9114 -40.9114
   -40.9114 -40.9114 -40.9113 -40.9113 -40.9047 -40.9047 -40.8893 -40.8893
   -40.8893 -40.8893 -40.8753 -40.8753 -40.8753 -40.8753 -40.8667 -40.8666
   -40.8548 -40.8548 -40.8548 -40.8548 -40.8545 -40.8545 -40.8544 -40.8544
   -40.8544 -40.8544 -40.8530 -40.8530 -40.8458 -40.8458 -40.8437 -40.8437
   -40.8427 -40.8427 -40.8338 -40.8338 -40.8235 -40.8235 -40.8224 -40.8224
   -40.8223 -40.8223 -40.8067 -40.8067 -40.8045 -40.8045 -40.8045 -40.8045
   -40.7958 -40.7958 -40.7879 -40.7879 -40.7879 -40.7879 -40.7836 -40.7836
   -40.7836 -40.7836 -40.7828 -40.7827 -40.7762 -40.7762 -40.7758 -40.7758
   -40.7750 -40.7750 -40.7566 -40.7566 -40.7521 -40.7521 -40.7521 -40.7521
   -40.7398 -40.7398 -40.7177 -40.7177 -40.7177 -40.7177 -40.7093 -40.7093
   -40.7056 -40.7056 -40.6865 -40.6864 -40.6696 -40.6696 -40.6392 -40.6392
   -20.0365 -20.0365 -19.9091 -19.9091 -19.7684 -19.7684 -19.6020 -19.6020
   -19.4802 -19.4802 -19.3428 -19.3428 -18.8991 -18.8991 -18.8944 -18.8944
   -18.8944 -18.8944 -18.7895 -18.7895 -18.7895 -18.7895 -18.7061 -18.7061
   -18.6956 -18.6956 -18.6650 -18.6650 -18.6649 -18.6649 -18.6470 -18.6470
   -18.5529 -18.5528 -18.5390 -18.5389 -18.5253 -18.5253 -18.4380 -18.4380
   -18.3778 -18.3778 -18.3647 -18.3647 -18.3647 -18.3647 -18.2828 -18.2828
   -18.2828 -18.2828 -18.2589 -18.2589 -18.2377 -18.2377 -18.2377 -18.2377
   -18.2067 -18.2067 -18.2067 -18.2067 -18.1528 -18.1528 -18.1227 -18.1227
   -18.1227 -18.1227 -18.1214 -18.1214 -18.1213 -18.1213 -18.0734 -18.0734
   -18.0734 -18.0734 -18.0501 -18.0501 -18.0193 -18.0193 -18.0065 -18.0065
   -18.0065 -18.0065 -17.9596 -17.9596 -17.9432 -17.9432 -17.9190 -17.9190
   -17.9190 -17.9190 -17.9013 -17.9013 -17.8577 -17.8577 -17.7972 -17.7972
   -11.8223 -11.8223 -11.6296 -11.6296 -11.6296 -11.6296 -11.6048 -11.6048
   -11.5436 -11.5436 -11.5436 -11.5436 -11.4899 -11.4899 -11.4378 -11.4378
   -11.4315 -11.4315 -11.4255 -11.4255 -11.4255 -11.4255 -11.4121 -11.4121
   -11.3661 -11.3661 -11.3614 -11.3613 -11.3047 -11.3047 -11.3047 -11.3047
   -11.2742 -11.2742 -11.1213 -11.1213 -11.1213 -11.1213 -11.0858 -11.0858
   -11.0678 -11.0678 -11.0123 -11.0123 -11.0025 -11.0025 -10.9855 -10.9854
   -10.9854 -10.9854 -10.9420 -10.9420 -10.9420 -10.9420 -10.9206 -10.9206
   -10.9206 -10.9206 -10.8938 -10.8938 -10.8010 -10.8010 -10.8010 -10.8010
   -10.6928 -10.6928 -10.6440 -10.6440 -10.5179 -10.5179 -10.3492 -10.3492
   -10.2742 -10.2742 -10.2742 -10.2742 -10.1723 -10.1723 -10.1723 -10.1723
   -10.0888 -10.0888 -10.0888 -10.0888 -10.0511 -10.0511 -10.0453 -10.0453
   -10.0393 -10.0393 -10.0393 -10.0393  -9.9352  -9.9352  -9.9352  -9.9352
    -9.8949  -9.8949  -9.8892  -9.8892  -9.8606  -9.8606  -9.8605  -9.8605
    -9.7754  -9.7754  -9.7723  -9.7723  -9.7723  -9.7723  -9.7570  -9.7570
    -9.7570  -9.7570  -9.7290  -9.7290  -9.6820  -9.6820  -9.6225  -9.6225
    -9.6040  -9.6040  -9.6040  -9.6040  -9.5497  -9.5497  -9.4314  -9.4314
    -9.3884  -9.3884  -9.2848  -9.2848  -9.2848  -9.2848  -9.2778  -9.2778
    -9.2778  -9.2778  -9.2522  -9.2522  -9.1544  -9.1544  -9.1544  -9.1544
    -9.1315  -9.1315  -9.1024  -9.1024  -9.1024  -9.1024  -9.0856  -9.0856
    -9.0755  -9.0755  -9.0496  -9.0496  -9.0445  -9.0445  -9.0445  -9.0445
    -9.0219  -9.0218  -9.0059  -9.0058  -8.9947  -8.9947  -8.9555  -8.9555
    -8.9555  -8.9555  -8.9275  -8.9275  -8.9225  -8.9225  -8.9206  -8.9205
    -8.8677  -8.8677  -8.8601  -8.8601  -8.8310  -8.8309  -8.6678  -8.6678
    -8.5873  -8.5873  -8.5390  -8.5390  -8.5094  -8.5094  -8.3486  -8.3486
    -8.2765  -8.2765  -8.2241  -8.2241  -8.1932  -8.1932  -8.0881  -8.0881
    -8.0206  -8.0206  -8.0206  -8.0206  -8.0023  -8.0023  -8.0018  -8.0018
    -7.9958  -7.9958  -7.9554  -7.9554  -7.9554  -7.9554  -7.9319  -7.9319
    -7.9142  -7.9142  -7.9142  -7.9142  -7.9051  -7.9051  -7.8815  -7.8815
    -7.8815  -7.8815  -7.8463  -7.8463  -7.8463  -7.8463  -7.8441  -7.8441
    -7.8166  -7.8166  -7.7868  -7.7868  -7.7868  -7.7868  -7.7861  -7.7861
    -7.7861  -7.7861  -7.7460  -7.7460  -7.7353  -7.7353  -7.7170  -7.7170
    -7.7170  -7.7170  -7.6605  -7.6605  -7.5881  -7.5881  -7.5881  -7.5881
    -7.4726  -7.4726  -7.3918  -7.3918  -7.3918  -7.3918  -7.2683  -7.2682
    -7.2509  -7.2509  -7.2509  -7.2509  -7.1679  -7.1679  -7.0925  -7.0925
    -7.0925  -7.0925  -7.0913  -7.0913  -7.0771  -7.0771  -7.0611  -7.0611
    -6.9822  -6.9822  -6.9752  -6.9751  -6.9087  -6.9087  -6.8582  -6.8582
    -6.8134  -6.8134  -6.8134  -6.8134  -6.7576  -6.7575  -6.7456  -6.7456
    -6.7456  -6.7456  -6.6644  -6.6644  -6.6644  -6.6644  -6.6533  -6.6533
    -6.6465  -6.6465  -6.5405  -6.5405  -6.4820  -6.4820  -6.4820  -6.4820
    -6.4143  -6.4143  -6.4026  -6.4026  -6.4025  -6.4025  -6.3394  -6.3394
    -6.3163  -6.3163  -6.3163  -6.3163  -6.3105  -6.3105  -6.1334  -6.1334
    -6.0578  -6.0578  -5.9760  -5.9760  -5.8863  -5.8863  -5.7060  -5.7060
    -4.1673  -4.1673  -4.1673  -4.1673  -4.0489  -4.0488  -4.0262  -4.0262
    -3.9837  -3.9837  -3.9075  -3.9075  -3.9075  -3.9075  -3.9058  -3.9058
    -3.8206  -3.8205  -3.7492  -3.7492  -3.7492  -3.7492  -3.7345  -3.7344
    -3.6789  -3.6789  -3.6789  -3.6789  -3.6570  -3.6569  -3.6285  -3.6285
    -3.6272  -3.6272  -3.6177  -3.6176  -3.6176  -3.6176  -3.5672  -3.5672
    -3.5071  -3.5070  -3.5070  -3.5070  -3.5020  -3.5020  -3.4731  -3.4731
    -3.4634  -3.4633  -3.4248  -3.4247  -3.4247  -3.4243  -3.4145  -3.4144
    -3.3935  -3.3935  -3.3901  -3.3900  -3.3525  -3.3525  -3.3523  -3.3514
    -3.3504  -3.3504  -3.3190  -3.3190  -3.2548  -3.2547  -3.2531  -3.2531
    -3.2531  -3.2530  -3.2218  -3.2218  -3.1827  -3.1824  -3.1620  -3.1618
    -3.1615  -3.1615  -3.1615  -3.1614  -3.1243  -3.1243  -3.1128  -3.1127
    -3.0960  -3.0960  -3.0661  -3.0661  -3.0660  -3.0660  -3.0386  -3.0385
    -3.0115  -3.0115  -3.0001  -3.0000  -3.0000  -2.9991  -2.9522  -2.9521
    -2.9520  -2.9520  -2.9454  -2.9451  -2.8306  -2.8303  -2.7985  -2.7984
    -2.7728  -2.7727  -2.7727  -2.7598  -2.7148  -2.7147  -2.6330  -2.6328
    -2.6328  -2.6257  -2.6256  -2.4639  -2.4629

     the Fermi energy is    -4.7575 ev

!    total energy              =  -23845.22490359 Ry
     total all-electron energy =   -465365.075040 Ry
     estimated scf accuracy    <       0.00000056 Ry
     smearing contrib. (-TS)   =      -0.00000000 Ry
     internal energy E=F+TS    =  -23845.22490359 Ry

     The total energy is F=E-TS. E is the sum of the following terms:
     one-electron contribution =  439075.29178814 Ry
     hartree contribution      = -219644.97279818 Ry
     xc contribution           =   -1427.88649236 Ry
     ewald contribution        = -226501.12346970 Ry
     DFT-D3 Dispersion         =      -3.94343111 Ry
     one-center paw contrib.   =  -15342.59050039 Ry

     convergence has been achieved in  36 iterations

     negative rho (up, down):  8.767E-04 0.000E+00

     Forces acting on atoms (cartesian axes, Ry/au):

     atom    1 type  1   force =    -0.00000286    0.00000611    0.00001283
     atom    2 type  1   force =    -0.00001140    0.00000676    0.00188734
     atom    3 type  1   force =    -0.00000579    0.00000533   -0.00001609
     atom    4 type  2   force =    -0.00000213   -0.00000180   -0.00318377
     atom    5 type  2   force =    -0.00000129   -0.00000011    0.00003330
     atom    6 type  2   force =     0.00000281   -0.00000049   -0.00000250
     atom    7 type  2   force =    -0.00000105   -0.00000085    0.00146250
     atom    8 type  2   force =    -0.00000300   -0.00000224   -0.00005286
     atom    9 type  2   force =     0.00000063   -0.00000078   -0.00013178
     atom   10 type  1   force =     0.00000571    0.00000825    0.00001743
     atom   11 type  1   force =    -0.00001172    0.00002080    0.00188607
     atom   12 type  1   force =    -0.00002113    0.00001044   -0.00001986
     atom   13 type  2   force =    -0.00000126    0.00000147   -0.00317003
     atom   14 type  2   force =    -0.00000243    0.00000112    0.00002667
     atom   15 type  2   force =     0.00000072    0.00000079   -0.00000459
     atom   16 type  2   force =    -0.00000064    0.00000175    0.00146181
     atom   17 type  2   force =    -0.00000022   -0.00000066   -0.00004619
     atom   18 type  2   force =    -0.00000034   -0.00000044   -0.00012820
     atom   19 type  1   force =     0.00000161    0.00000311    0.00001204
     atom   20 type  1   force =    -0.00000062   -0.00002172    0.00188747
     atom   21 type  1   force =    -0.00000899   -0.00000652   -0.00001133
     atom   22 type  2   force =    -0.00000141   -0.00000007   -0.00317629
     atom   23 type  2   force =    -0.00000180   -0.00000139    0.00001248
     atom   24 type  2   force =     0.00000136    0.00000006    0.00000054
     atom   25 type  2   force =     0.00000068   -0.00000049    0.00146972
     atom   26 type  2   force =    -0.00000238   -0.00000189   -0.00004387
     atom   27 type  2   force =    -0.00000130   -0.00000100   -0.00013438
     atom   28 type  1   force =     0.00000462   -0.00000588    0.00001291
     atom   29 type  1   force =    -0.00001763   -0.00001648    0.00188606
     atom   30 type  1   force =     0.00000999   -0.00002961   -0.00001140
     atom   31 type  2   force =     0.00000042   -0.00000156   -0.00318231
     atom   32 type  2   force =    -0.00000254   -0.00000063    0.00001795
     atom   33 type  2   force =     0.00000174   -0.00000208   -0.00000314
     atom   34 type  2   force =     0.00000090   -0.00000349    0.00146831
     atom   35 type  2   force =    -0.00000387    0.00000001   -0.00004910
     atom   36 type  2   force =     0.00000051   -0.00000229   -0.00013039
     atom   37 type  1   force =    -0.00000672   -0.00000074    0.00001906
     atom   38 type  1   force =    -0.00000847    0.00001840    0.00188819
     atom   39 type  1   force =     0.00001557    0.00000062   -0.00001290
     atom   40 type  2   force =    -0.00000214   -0.00000253   -0.00317909
     atom   41 type  2   force =    -0.00000503    0.00000131    0.00003119
     atom   42 type  2   force =     0.00000111   -0.00000409    0.00000210
     atom   43 type  2   force =     0.00000057   -0.00000230    0.00146807
     atom   44 type  2   force =    -0.00000302    0.00000179   -0.00005118
     atom   45 type  2   force =    -0.00000014   -0.00000210   -0.00013947
     atom   46 type  1   force =    -0.00000193    0.00000256    0.00001563
     atom   47 type  1   force =     0.00000100    0.00001554    0.00189025
     atom   48 type  1   force =    -0.00000307   -0.00000976   -0.00002120
     atom   49 type  2   force =    -0.00000164    0.00000195   -0.00317305
     atom   50 type  2   force =    -0.00000263    0.00000267    0.00002255
     atom   51 type  2   force =    -0.00000279    0.00000041    0.00000135
     atom   52 type  2   force =    -0.00000145    0.00000212    0.00145683
     atom   53 type  2   force =    -0.00000421   -0.00000108   -0.00004503
     atom   54 type  2   force =    -0.00000360    0.00000062   -0.00013749
     atom   55 type  1   force =    -0.00001646   -0.00000135    0.00001022
     atom   56 type  1   force =    -0.00000374   -0.00001812    0.00188911
     atom   57 type  1   force =    -0.00002059    0.00000509   -0.00001379
     atom   58 type  2   force =    -0.00000301   -0.00000089   -0.00317150
     atom   59 type  2   force =    -0.00000302   -0.00000364    0.00002118
     atom   60 type  2   force =    -0.00000079    0.00000027   -0.00000001
     atom   61 type  2   force =    -0.00000204   -0.00000003    0.00145998
     atom   62 type  2   force =    -0.00000218   -0.00000361   -0.00004479
     atom   63 type  2   force =     0.00000013    0.00000021   -0.00013502
     atom   64 type  1   force =    -0.00001381   -0.00001422    0.00001011
     atom   65 type  1   force =    -0.00000098   -0.00001575    0.00188629
     atom   66 type  1   force =    -0.00000117   -0.00001269   -0.00001722
     atom   67 type  2   force =    -0.00000173   -0.00000473   -0.00318789
     atom   68 type  2   force =    -0.00000117   -0.00000122    0.00002802
     atom   69 type  2   force =    -0.00000021   -0.00000156    0.00000695
     atom   70 type  2   force =    -0.00000207   -0.00000340    0.00148020
     atom   71 type  2   force =    -0.00000042    0.00000034   -0.00005496
     atom   72 type  2   force =    -0.00000156   -0.00000244   -0.00013975
     atom   73 type  1   force =    -0.00000164    0.00000853    0.00000989
     atom   74 type  1   force =     0.00000957    0.00001885    0.00189068
     atom   75 type  1   force =     0.00000267   -0.00000047   -0.00001107
     atom   76 type  2   force =     0.00000134    0.00000060   -0.00318665
     atom   77 type  2   force =     0.00000016    0.00000408    0.00003129
     atom   78 type  2   force =    -0.00000152   -0.00000126    0.00000155
     atom   79 type  2   force =     0.00000026   -0.00000212    0.00147600
     atom   80 type  2   force =     0.00000193   -0.00000152   -0.00005436
     atom   81 type  2   force =    -0.00000142    0.00000114   -0.00013405
     atom   82 type  1   force =    -0.00000081    0.00000767    0.00001771
     atom   83 type  1   force =    -0.00000155    0.00002297    0.00189006
     atom   84 type  1   force =     0.00002153    0.00000475   -0.00001798
     atom   85 type  2   force =     0.00000132   -0.00000016   -0.00317054
     atom   86 type  2   force =    -0.00000089    0.00000138    0.00002165
     atom   87 type  2   force =     0.00000065    0.00000024    0.00000140
     atom   88 type  2   force =    -0.00000003    0.00000163    0.00145669
     atom   89 type  2   force =    -0.00000297   -0.00000282   -0.00004877
     atom   90 type  2   force =     0.00000026    0.00000136   -0.00013719
     atom   91 type  1   force =     0.00000545   -0.00000164    0.00001368
     atom   92 type  1   force =     0.00001125   -0.00000884    0.00188441
     atom   93 type  1   force =     0.00001665    0.00000161   -0.00001911
     atom   94 type  2   force =    -0.00000034    0.00000068   -0.00317089
     atom   95 type  2   force =     0.00000080    0.00000004    0.00002127
     atom   96 type  2   force =     0.00000231   -0.00000066   -0.00000300
     atom   97 type  2   force =     0.00000015   -0.00000020    0.00145725
     atom   98 type  2   force =    -0.00000187    0.00000234   -0.00004497
     atom   99 type  2   force =     0.00000144   -0.00000167   -0.00012794
     atom  100 type  1   force =    -0.00000232   -0.00001049    0.00000979
     atom  101 type  1   force =     0.00001206   -0.00000882    0.00188794
     atom  102 type  1   force =    -0.00000905   -0.00000382   -0.00000598
     atom  103 type  2   force =     0.00000032   -0.00000119   -0.00318160
     atom  104 type  2   force =    -0.00000024    0.00000102    0.00002689
     atom  105 type  2   force =    -0.00000152   -0.00000245    0.00000064
     atom  106 type  2   force =     0.00000106   -0.00000055    0.00147424
     atom  107 type  2   force =    -0.00000233    0.00000062   -0.00004996
     atom  108 type  2   force =    -0.00000105   -0.00000325   -0.00013388
     atom  109 type  1   force =     0.00001122    0.00000913    0.00001591
     atom  110 type  1   force =     0.00000782    0.00001152    0.00189360
     atom  111 type  1   force =    -0.00000460    0.00000975   -0.00001480
     atom  112 type  2   force =     0.00000157   -0.00000070   -0.00319123
     atom  113 type  2   force =     0.00000060    0.00000480    0.00003307
     atom  114 type  2   force =     0.00000169    0.00000105   -0.00000724
     atom  115 type  2   force =    -0.00000022    0.00000020    0.00147372
     atom  116 type  2   force =    -0.00000161    0.00000082   -0.00005453
     atom  117 type  2   force =     0.00000240    0.00000247   -0.00012433
     atom  118 type  1   force =     0.00000230    0.00001518    0.00001936
     atom  119 type  1   force =     0.00000466    0.00001680    0.00188473
     atom  120 type  1   force =     0.00001292    0.00001329   -0.00001608
     atom  121 type  2   force =     0.00000165    0.00000210   -0.00318366
     atom  122 type  2   force =     0.00000260    0.00000411    0.00001300
     atom  123 type  2   force =     0.00000381    0.00000286   -0.00000442
     atom  124 type  2   force =     0.00000283    0.00000378    0.00147104
     atom  125 type  2   force =     0.00000209    0.00000052   -0.00004585
     atom  126 type  2   force =     0.00000326    0.00000218   -0.00012669
     atom  127 type  1   force =     0.00001307   -0.00000014    0.00001550
     atom  128 type  1   force =    -0.00000474   -0.00000922    0.00188577
     atom  129 type  1   force =     0.00001027   -0.00000684   -0.00001223
     atom  130 type  2   force =     0.00000260    0.00000100   -0.00317229
     atom  131 type  2   force =     0.00000152   -0.00000091    0.00000014
[...]
     atom   62 type  2   force =    -0.00000353   -0.00000872    0.00017185
     atom   63 type  2   force =     0.00000612   -0.00000702    0.00029231
     atom   64 type  1   force =     0.00002640    0.00006287    0.00000485
     atom   65 type  1   force =     0.00001178    0.00002146    0.00003423
     atom   66 type  1   force =     0.00000632    0.00006390   -0.00002255
     atom   67 type  2   force =     0.00000451    0.00000871   -0.00032357
     atom   68 type  2   force =     0.00001140    0.00001339   -0.00019817
     atom   69 type  2   force =    -0.00000053    0.00002218   -0.00018777
     atom   70 type  2   force =     0.00000884    0.00000935    0.00020049
     atom   71 type  2   force =     0.00000904    0.00001449    0.00016817
     atom   72 type  2   force =    -0.00000113    0.00002009    0.00028893
     atom   73 type  1   force =     0.00001068   -0.00004176    0.00000301
     atom   74 type  1   force =    -0.00000200   -0.00005699    0.00003538
     atom   75 type  1   force =    -0.00000547   -0.00003290   -0.00001946
     atom   76 type  2   force =    -0.00000299   -0.00000740   -0.00032134
     atom   77 type  2   force =     0.00000633   -0.00000626   -0.00018921
     atom   78 type  2   force =    -0.00000265    0.00000055   -0.00017457
     atom   79 type  2   force =     0.00000036   -0.00000037    0.00021321
     atom   80 type  2   force =     0.00000387    0.00000082    0.00016103
     atom   81 type  2   force =    -0.00000413    0.00000054    0.00027245
     atom   82 type  1   force =    -0.00001871   -0.00004108    0.00000416
     atom   83 type  1   force =    -0.00001218   -0.00004650    0.00002867
     atom   84 type  1   force =    -0.00003322   -0.00006581   -0.00002128
     atom   85 type  2   force =    -0.00001273   -0.00000303   -0.00033898
     atom   86 type  2   force =    -0.00000267   -0.00002605   -0.00019520
     atom   87 type  2   force =    -0.00001215   -0.00002048   -0.00017227
     atom   88 type  2   force =    -0.00001418   -0.00000673    0.00023359
     atom   89 type  2   force =     0.00000015   -0.00002585    0.00017320
     atom   90 type  2   force =    -0.00001030   -0.00001707    0.00028177
     atom   91 type  1   force =    -0.00001655    0.00003404    0.00000930
     atom   92 type  1   force =    -0.00005177    0.00003574    0.00003126
     atom   93 type  1   force =    -0.00005413    0.00001930   -0.00003030
     atom   94 type  2   force =    -0.00000805    0.00000165   -0.00032854
     atom   95 type  2   force =    -0.00001791   -0.00000460   -0.00021823
     atom   96 type  2   force =    -0.00000322   -0.00000205   -0.00017784
     atom   97 type  2   force =    -0.00001062   -0.00000113    0.00021850
     atom   98 type  2   force =    -0.00001303   -0.00000838    0.00018498
     atom   99 type  2   force =    -0.00000120   -0.00000334    0.00028253
     atom  100 type  1   force =     0.00002010    0.00004470    0.00000114
     atom  101 type  1   force =    -0.00001197    0.00001176    0.00003538
     atom  102 type  1   force =     0.00001275    0.00003484   -0.00003020
     atom  103 type  2   force =     0.00000448   -0.00000285   -0.00032178
     atom  104 type  2   force =    -0.00000668    0.00001900   -0.00020361
     atom  105 type  2   force =     0.00000642    0.00001627   -0.00018257
     atom  106 type  2   force =     0.00000545   -0.00000186    0.00020441
     atom  107 type  2   force =    -0.00000474    0.00002284    0.00016922
     atom  108 type  2   force =     0.00000548    0.00001340    0.00028232
     atom  109 type  1   force =     0.00001541   -0.00003542   -0.00000496
     atom  110 type  1   force =     0.00000989   -0.00002619    0.00003230
     atom  111 type  1   force =     0.00002683   -0.00002530   -0.00002224
     atom  112 type  2   force =     0.00000497   -0.00000562   -0.00031223
     atom  113 type  2   force =     0.00000402    0.00000453   -0.00019227
     atom  114 type  2   force =     0.00000707   -0.00000380   -0.00016745
     atom  115 type  2   force =     0.00000614   -0.00000333    0.00021266
     atom  116 type  2   force =     0.00000644    0.00000926    0.00016319
     atom  117 type  2   force =     0.00000579   -0.00000457    0.00026101
     atom  118 type  1   force =     0.00001531   -0.00007177    0.00000079
     atom  119 type  1   force =     0.00002344   -0.00004801    0.00003815
     atom  120 type  1   force =     0.00000791   -0.00008773   -0.00002583
     atom  121 type  2   force =     0.00000309   -0.00000855   -0.00033207
     atom  122 type  2   force =     0.00001387   -0.00002892   -0.00018244
     atom  123 type  2   force =    -0.00000181   -0.00002532   -0.00017440
     atom  124 type  2   force =     0.00000240   -0.00001481    0.00022481
     atom  125 type  2   force =     0.00001166   -0.00002987    0.00016528
     atom  126 type  2   force =    -0.00000346   -0.00001811    0.00027892
     atom  127 type  1   force =    -0.00003686    0.00004043    0.00001134
     atom  128 type  1   force =     0.00000834    0.00003803    0.00002506
     atom  129 type  1   force =    -0.00001403    0.00004478   -0.00002888
     atom  130 type  2   force =    -0.00000852    0.00000672   -0.00034300
     atom  131 type  2   force =     0.00000258   -0.00000681   -0.00019600
     atom  132 type  2   force =    -0.00001064    0.00000572   -0.00018113
     atom  133 type  2   force =    -0.00001284    0.00000179    0.00022460
     atom  134 type  2   force =     0.00000418   -0.00000737    0.00017664
     atom  135 type  2   force =    -0.00000887    0.00000292    0.00028448
     atom  136 type  1   force =    -0.00001159    0.00005330    0.00000477
     atom  137 type  1   force =    -0.00002124    0.00003681    0.00002812
     atom  138 type  1   force =    -0.00000872    0.00007626   -0.00002970
     atom  139 type  2   force =    -0.00000398    0.00000438   -0.00032127
     atom  140 type  2   force =    -0.00000949    0.00003213   -0.00020392
     atom  141 type  2   force =     0.00000123    0.00002218   -0.00017342
     atom  142 type  2   force =    -0.00000808    0.00000869    0.00020703
     atom  143 type  2   force =    -0.00000747    0.00003317    0.00017332
     atom  144 type  2   force =     0.00000388    0.00001654    0.00026994

     DFT-D3 dispersion contribution to forces:
     atom    1 type  1   force =    -0.00000000    0.00000000   -0.00263904
     atom    2 type  1   force =    -0.00000000    0.00000000    0.00260429
     atom    3 type  1   force =    -0.00000000    0.00000001   -0.00003332
     atom    4 type  2   force =     0.00000000    0.00000000    0.00441245
     atom    5 type  2   force =    -0.00000001    0.00000002   -0.00004794
     atom    6 type  2   force =     0.00000001    0.00000001   -0.00020163
     atom    7 type  2   force =    -0.00000001    0.00000001    0.00023483
     atom    8 type  2   force =    -0.00000000    0.00000002    0.00008468
     atom    9 type  2   force =     0.00000000    0.00000000   -0.00441433
     atom   10 type  1   force =    -0.00000000   -0.00000001   -0.00263904
     atom   11 type  1   force =     0.00000000   -0.00000000    0.00260430
     atom   12 type  1   force =     0.00000003   -0.00000003   -0.00003331
     atom   13 type  2   force =     0.00000000    0.00000000    0.00441245
     atom   14 type  2   force =     0.00000001   -0.00000001   -0.00004794
     atom   15 type  2   force =     0.00000001   -0.00000000   -0.00020163
     atom   16 type  2   force =     0.00000000   -0.00000001    0.00023483
     atom   17 type  2   force =     0.00000001   -0.00000000    0.00008468
     atom   18 type  2   force =     0.00000000    0.00000000   -0.00441433
     atom   19 type  1   force =    -0.00000001   -0.00000000   -0.00263902
     atom   20 type  1   force =     0.00000000   -0.00000000    0.00260428
     atom   21 type  1   force =     0.00000001   -0.00000001   -0.00003331
     atom   22 type  2   force =     0.00000000    0.00000000    0.00441245
     atom   23 type  2   force =     0.00000002   -0.00000001   -0.00004795
     atom   24 type  2   force =     0.00000000   -0.00000000   -0.00020161
     atom   25 type  2   force =     0.00000000   -0.00000001    0.00023482
     atom   26 type  2   force =     0.00000001   -0.00000001    0.00008469
     atom   27 type  2   force =     0.00000000   -0.00000000   -0.00441433
     atom   28 type  1   force =    -0.00000000    0.00000000   -0.00263903
     atom   29 type  1   force =    -0.00000000    0.00000000    0.00260428
     atom   30 type  1   force =    -0.00000002    0.00000003   -0.00003332
     atom   31 type  2   force =     0.00000000    0.00000000    0.00441245
     atom   32 type  2   force =    -0.00000000    0.00000001   -0.00004795
     atom   33 type  2   force =    -0.00000000    0.00000001   -0.00020162
     atom   34 type  2   force =    -0.00000001    0.00000000    0.00023482
     atom   35 type  2   force =     0.00000000    0.00000000    0.00008469
     atom   36 type  2   force =     0.00000000    0.00000000   -0.00441433
     atom   37 type  1   force =    -0.00000001   -0.00000000   -0.00263903
     atom   38 type  1   force =    -0.00000000    0.00000000    0.00260429
     atom   39 type  1   force =    -0.00000003    0.00000002   -0.00003332
     atom   40 type  2   force =     0.00000000    0.00000000    0.00441245
     atom   41 type  2   force =    -0.00000000    0.00000001   -0.00004795
     atom   42 type  2   force =    -0.00000001    0.00000001   -0.00020163
     atom   43 type  2   force =    -0.00000001    0.00000001    0.00023482
     atom   44 type  2   force =    -0.00000000    0.00000001    0.00008469
     atom   45 type  2   force =     0.00000000   -0.00000000   -0.00441433
     atom   46 type  1   force =    -0.00000000   -0.00000001   -0.00263904
     atom   47 type  1   force =    -0.00000000   -0.00000000    0.00260430
     atom   48 type  1   force =    -0.00000000   -0.00000001   -0.00003331
     atom   49 type  2   force =     0.00000000    0.00000000    0.00441245
     atom   50 type  2   force =    -0.00000001    0.00000000   -0.00004794
     atom   51 type  2   force =    -0.00000000   -0.00000000   -0.00020163
     atom   52 type  2   force =    -0.00000000    0.00000000    0.00023483
     atom   53 type  2   force =    -0.00000001    0.00000000    0.00008468
     atom   54 type  2   force =    -0.00000000   -0.00000000   -0.00441433
     atom   55 type  1   force =    -0.00000001   -0.00000001   -0.00263904
     atom   56 type  1   force =     0.00000000   -0.00000000    0.00260429
     atom   57 type  1   force =     0.00000003   -0.00000002   -0.00003331
     atom   58 type  2   force =     0.00000000    0.00000000    0.00441245
     atom   59 type  2   force =     0.00000001   -0.00000001   -0.00004794
     atom   60 type  2   force =     0.00000000   -0.00000001   -0.00020163
     atom   61 type  2   force =     0.00000001   -0.00000001    0.00023483
     atom   62 type  2   force =    -0.00000000   -0.00000001    0.00008468
     atom   63 type  2   force =    -0.00000000   -0.00000000   -0.00441433
     atom   64 type  1   force =    -0.00000001    0.00000000   -0.00263903
     atom   65 type  1   force =     0.00000000   -0.00000000    0.00260428
     atom   66 type  1   force =     0.00000001    0.00000001   -0.00003331
     atom   67 type  2   force =     0.00000000    0.00000000    0.00441245
     atom   68 type  2   force =     0.00000002   -0.00000000   -0.00004795
     atom   69 type  2   force =    -0.00000000    0.00000000   -0.00020162
     atom   70 type  2   force =     0.00000000   -0.00000000    0.00023482
     atom   71 type  2   force =     0.00000001   -0.00000001    0.00008469
     atom   72 type  2   force =    -0.00000000    0.00000000   -0.00441434
     atom   73 type  1   force =    -0.00000000    0.00000001   -0.00263903
     atom   74 type  1   force =     0.00000000   -0.00000000    0.00260429
     atom   75 type  1   force =    -0.00000000    0.00000000   -0.00003332
     atom   76 type  2   force =     0.00000000    0.00000000    0.00441245
     atom   77 type  2   force =     0.00000001   -0.00000000   -0.00004795
     atom   78 type  2   force =    -0.00000000    0.00000001   -0.00020162
     atom   79 type  2   force =     0.00000000    0.00000000    0.00023482
     atom   80 type  2   force =     0.00000001   -0.00000000    0.00008469
     atom   81 type  2   force =    -0.00000000    0.00000000   -0.00441433
     atom   82 type  1   force =     0.00000000   -0.00000001   -0.00263903
     atom   83 type  1   force =    -0.00000000   -0.00000000    0.00260429
     atom   84 type  1   force =    -0.00000004   -0.00000001   -0.00003332
     atom   85 type  2   force =     0.00000000    0.00000000    0.00441245
     atom   86 type  2   force =    -0.00000000   -0.00000000   -0.00004795
     atom   87 type  2   force =    -0.00000001   -0.00000000   -0.00020163
     atom   88 type  2   force =    -0.00000001    0.00000000    0.00023483
     atom   89 type  2   force =    -0.00000000   -0.00000001    0.00008469
     atom   90 type  2   force =     0.00000000    0.00000000   -0.00441433
     atom   91 type  1   force =     0.00000000   -0.00000001   -0.00263903
     atom   92 type  1   force =    -0.00000001   -0.00000000    0.00260429
     atom   93 type  1   force =    -0.00000001   -0.00000001   -0.00003332
     atom   94 type  2   force =     0.00000000    0.00000000    0.00441245
     atom   95 type  2   force =    -0.00000001    0.00000000   -0.00004794
     atom   96 type  2   force =    -0.00000000   -0.00000001   -0.00020163
     atom   97 type  2   force =    -0.00000001   -0.00000000    0.00023483
     atom   98 type  2   force =    -0.00000001   -0.00000000    0.00008468
     atom   99 type  2   force =     0.00000000   -0.00000000   -0.00441433
     atom  100 type  1   force =     0.00000000    0.00000001   -0.00263903
     atom  101 type  1   force =    -0.00000000    0.00000000    0.00260429
     atom  102 type  1   force =     0.00000002   -0.00000000   -0.00003333
     atom  103 type  2   force =     0.00000000    0.00000000    0.00441245
     atom  104 type  2   force =     0.00000001    0.00000000   -0.00004795
     atom  105 type  2   force =     0.00000000    0.00000000   -0.00020163
     atom  106 type  2   force =     0.00000001   -0.00000000    0.00023483
     atom  107 type  2   force =     0.00000000   -0.00000001    0.00008468
     atom  108 type  2   force =    -0.00000000    0.00000000   -0.00441433
     atom  109 type  1   force =     0.00000000    0.00000000   -0.00263904
     atom  110 type  1   force =     0.00000000   -0.00000000    0.00260430
     atom  111 type  1   force =     0.00000002   -0.00000001   -0.00003332
     atom  112 type  2   force =     0.00000000    0.00000000    0.00441245
     atom  113 type  2   force =     0.00000001    0.00000000   -0.00004795
     atom  114 type  2   force =     0.00000001    0.00000001   -0.00020163
     atom  115 type  2   force =     0.00000000   -0.00000000    0.00023483
     atom  116 type  2   force =     0.00000000    0.00000001    0.00008468
     atom  117 type  2   force =     0.00000000    0.00000000   -0.00441433
     atom  118 type  1   force =    -0.00000000   -0.00000000   -0.00263902
     atom  119 type  1   force =     0.00000000   -0.00000001    0.00260429
     atom  120 type  1   force =    -0.00000000   -0.00000002   -0.00003331
     atom  121 type  2   force =     0.00000000    0.00000000    0.00441245
     atom  122 type  2   force =     0.00000001   -0.00000001   -0.00004795
     atom  123 type  2   force =     0.00000000   -0.00000000   -0.00020162
     atom  124 type  2   force =     0.00000000   -0.00000000    0.00023482
     atom  125 type  2   force =     0.00000001   -0.00000001    0.00008469
     atom  126 type  2   force =     0.00000000    0.00000000   -0.00441434
     atom  127 type  1   force =     0.00000000   -0.00000000   -0.00263902
     atom  128 type  1   force =    -0.00000000   -0.00000000    0.00260428
     atom  129 type  1   force =    -0.00000003    0.00000001   -0.00003332
     atom  130 type  2   force =     0.00000000    0.00000000    0.00441245
     atom  131 type  2   force =    -0.00000000   -0.00000000   -0.00004795
     atom  132 type  2   force =    -0.00000000    0.00000000   -0.00020162
     atom  133 type  2   force =    -0.00000001   -0.00000000    0.00023482
     atom  134 type  2   force =    -0.00000000   -0.00000001    0.00008469
     atom  135 type  2   force =     0.00000000   -0.00000000   -0.00441433
     atom  136 type  1   force =     0.00000001    0.00000001   -0.00263903
     atom  137 type  1   force =    -0.00000001    0.00000000    0.00260429
     atom  138 type  1   force =    -0.00000001    0.00000001   -0.00003332
     atom  139 type  2   force =     0.00000000    0.00000000    0.00441245
     atom  140 type  2   force =    -0.00000001    0.00000001   -0.00004795
     atom  141 type  2   force =     0.00000000    0.00000001   -0.00020163
     atom  142 type  2   force =    -0.00000001    0.00000000    0.00023483
     atom  143 type  2   force =    -0.00000001    0.00000000    0.00008469
     atom  144 type  2   force =     0.00000001    0.00000000   -0.00441433

     Total force =     0.015920     Total SCF correction =     0.002341
     SCF correction compared to forces is large: reduce conv_thr to get better values

     Writing all to output data dir ./outdir/pwscf.save/
 
     init_run     :     68.64s CPU     70.26s WALL (       1 calls)
     electrons    :   9601.42s CPU   9710.98s WALL (       1 calls)
     forces       :     50.22s CPU     51.31s WALL (       1 calls)
     force_dftd3  :      0.32s CPU      0.34s WALL (       1 calls)

     Called by init_run:
     wfcinit      :     54.61s CPU     55.65s WALL (       1 calls)
     potinit      :      1.51s CPU      1.55s WALL (       1 calls)
     hinit0       :      8.02s CPU      8.06s WALL (       1 calls)

     Called by electrons:
     c_bands      :   8684.00s CPU   8756.08s WALL (      37 calls)
     sum_band     :    833.93s CPU    854.74s WALL (      37 calls)
     v_of_rho     :      8.99s CPU      9.69s WALL (      37 calls)
     newd         :     55.36s CPU     71.04s WALL (      37 calls)
     PAW_pot      :     14.88s CPU     14.92s WALL (      37 calls)
     mix_rho      :      2.80s CPU      3.02s WALL (      37 calls)
     energy_dftd3 :      0.19s CPU      0.19s WALL (       1 calls)

     Called by c_bands:
     init_us_2    :     42.73s CPU     43.05s WALL (     304 calls)
     init_us_2:cp :     42.72s CPU     43.05s WALL (     304 calls)
     cegterg      :   8508.25s CPU   8577.77s WALL (     153 calls)

     Called by *egterg:
     cdiaghg      :    227.93s CPU    228.81s WALL (    1322 calls)
     h_psi        :   4319.07s CPU   4353.76s WALL (    1330 calls)
     s_psi        :   1019.65s CPU   1023.02s WALL (    1330 calls)
     g_psi        :     12.65s CPU     12.70s WALL (    1173 calls)

     Called by h_psi:
     h_psi:calbec :    999.24s CPU   1003.24s WALL (    1330 calls)
     vloc_psi     :   2267.13s CPU   2282.53s WALL (    1330 calls)
     add_vuspsi   :   1029.34s CPU   1035.20s WALL (    1330 calls)

     General routines
     calbec       :   1300.92s CPU   1305.99s WALL (    1494 calls)
     fft          :      6.28s CPU      7.36s WALL (     491 calls)
     ffts         :      0.41s CPU      0.49s WALL (      74 calls)
     fftw         :   1602.12s CPU   1613.28s WALL (  887042 calls)
     interpolate  :      0.81s CPU      0.91s WALL (      37 calls)
 
     Parallel routines
 
     PWSCF        :      2h42m CPU      2h45m WALL

 
   This run was terminated on:  10:30:55   6Aug2023            

=------------------------------------------------------------------------------=
   JOB DONE.
=------------------------------------------------------------------------------=
