
     Program PWSCF v.7.3 starts on  6May2024 at 19:37: 3 

     This program is part of the open-source Quantum ESPRESSO suite
     for quantum simulation of materials; please cite
         "P. Giannozzi et al., J. Phys.:Condens. Matter 21 395502 (2009);
         "P. Giannozzi et al., J. Phys.:Condens. Matter 29 465901 (2017);
         "P. Giannozzi et al., J. Chem. Phys. 152 154105 (2020);
          URL http://www.quantum-espresso.org", 
     in publications or presentations arising from this work. More details at
     http://www.quantum-espresso.org/quote

     Parallel version (MPI & OpenMP), running on      36 processor cores
     Number of MPI processes:                36
     Threads/MPI process:                     1

     MPI processes distributed on     1 nodes
     556850 MiB available memory on the printing compute node when the environment starts
 
     Waiting for input...
     Reading input from standard input
Warning: card &CELL ignored
Warning: card / ignored

     Current dimensions of program PWSCF are:
     Max number of different atomic species (ntypx) = 10
     Max number of k-points (npk) =  40000
     Max angular momentum in pseudopotentials (lmaxx) =  4
     file Mo.pbe-spn-kjpaw_psl.1.0.0.UPF: wavefunction(s)  4S 4D renormalized
     file S.pbe-n-kjpaw_psl.1.0.0.UPF: wavefunction(s)  3S 3P renormalized
     file Pt.pbe-spfn-kjpaw_psl.1.0.0.UPF: wavefunction(s)  5P 4F renormalized
     file Pd.pbe-spn-kjpaw_psl.1.0.0.UPF: wavefunction(s)  4S 5S 4D renormalized
 
     R & G space division:  proc/nbgrp/npool/nimage =      36
     Subspace diagonalization in iterative solution of the eigenvalue problem:
     one sub-group per band group will be used
     scalapack distributed-memory algorithm (size of sub-group:  6*  6 procs)

 
     Parallelization info
     --------------------
     sticks:   dense  smooth     PW     G-vecs:    dense   smooth      PW
     Min         585     334     89               198743    85850   11735
     Max         586     335     90               198750    85861   11748
     Sum       21073   12049   3205              7154885  3090769  422587
 
     Using Slab Decomposition
 


     bravais-lattice index     =            0
     lattice parameter (alat)  =      23.8199  a.u.
     unit-cell volume          =   33861.0370 (a.u.)^3
     number of atoms/cell      =          195
     number of atomic types    =            4
     number of electrons       =      1732.00
     number of Kohn-Sham states=         1039
     kinetic-energy cutoff     =      77.0000  Ry
     charge density cutoff     =     539.0000  Ry
     scf convergence threshold =      1.0E-06
     mixing beta               =       0.2000
     number of iterations used =            8  plain     mixing
     energy convergence thresh.=      1.0E-04
     force convergence thresh. =      1.0E-03
     Exchange-correlation= SLA  PW   PBX  PBC
                           (   1   4   3   4   0   0   0)
     nstep                     =         1000


     Effective Screening Medium Method
     =================================
     Boundary Conditions: Vacuum-Slab-Vacuum
     total charge in unit cell        =   0.0000
     grid points for fit at edges     =        4 
 

     celldm(1)=  23.819920  celldm(2)=   0.000000  celldm(3)=   0.000000
     celldm(4)=   0.000000  celldm(5)=   0.000000  celldm(6)=   0.000000

     crystal axes: (cart. coord. in units of alat)
               a(1) = (   1.000000   0.000000   0.000000 )  
               a(2) = (  -0.499999   0.866026   0.000000 )  
               a(3) = (   0.000000   0.000000   2.893000 )  

     reciprocal axes: (cart. coord. in units 2 pi/alat)
               b(1) = (  1.000000  0.577349  0.000000 )  
               b(2) = (  0.000000  1.154700  0.000000 )  
               b(3) = (  0.000000  0.000000  0.345662 )  


     PseudoPot. # 1 for Mo read from file:
     ./pseudo/Mo.pbe-spn-kjpaw_psl.1.0.0.UPF
     MD5 check sum: 317bf72632116215fd98f72de1686f13
     Pseudo is Projector augmented-wave + core cor, Zval = 14.0
     Generated using 'atomic' code by A. Dal Corso  v.7.2
     Shape of augmentation charge: PSQ
     Using radial grid of 1229 points,  6 beta functions with: 
                l(1) =   0
                l(2) =   0
                l(3) =   1
                l(4) =   1
                l(5) =   2
                l(6) =   2
     Q(r) pseudized with 0 coefficients 


     PseudoPot. # 2 for S  read from file:
     ./pseudo/S.pbe-n-kjpaw_psl.1.0.0.UPF
     MD5 check sum: 8b7b5302570d38d5e87fed6a1065abda
     Pseudo is Projector augmented-wave + core cor, Zval =  6.0
     Generated using 'atomic' code by A. Dal Corso  v.7.2
     Shape of augmentation charge: PSQ
     Using radial grid of 1151 points,  6 beta functions with: 
                l(1) =   0
                l(2) =   0
                l(3) =   1
                l(4) =   1
                l(5) =   2
                l(6) =   2
     Q(r) pseudized with 0 coefficients 


     PseudoPot. # 3 for Pt read from file:
     ./pseudo/Pt.pbe-spfn-kjpaw_psl.1.0.0.UPF
     MD5 check sum: 620096ebf4e6ebacc94de60fd67efcb5
     Pseudo is Projector augmented-wave + core cor, Zval = 32.0
     Generated using 'atomic' code by A. Dal Corso  v.7.2
     Shape of augmentation charge: PSQ
     Using radial grid of 1277 points,  8 beta functions with: 
                l(1) =   0
                l(2) =   0
                l(3) =   1
                l(4) =   1
                l(5) =   2
                l(6) =   2
                l(7) =   3
                l(8) =   3
     Q(r) pseudized with 0 coefficients 


     PseudoPot. # 4 for Pd read from file:
     ./pseudo/Pd.pbe-spn-kjpaw_psl.1.0.0.UPF
     MD5 check sum: a60571a671f2502b8a6a4569d20a6edb
     Pseudo is Projector augmented-wave + core cor, Zval = 18.0
     Generated using 'atomic' code by A. Dal Corso  v.7.2
     Shape of augmentation charge: PSQ
     Using radial grid of 1235 points,  6 beta functions with: 
                l(1) =   0
                l(2) =   0
                l(3) =   1
                l(4) =   1
                l(5) =   2
                l(6) =   2
     Q(r) pseudized with 0 coefficients 


     atomic species   valence    mass     pseudopotential
     Mo               14.00    95.95000     Mo( 1.00)
     S                 6.00    32.06000     S ( 1.00)
     Pt               32.00   195.08400     Pt( 1.00)
     Pd               18.00   106.42000     Pd( 1.00)

     No symmetry found



   Cartesian axes

     site n.     atom                  positions (alat units)
         1        Mo     tau(   1) = (   0.0000010   0.1443372  -0.7272732  )
         2        Mo     tau(   2) = (   0.1249995   0.0721706  -0.2424038  )
         3        S      tau(   3) = (   0.0000015   0.1443386  -0.3667807  )
         4        S      tau(   4) = (   0.1250010   0.0721682  -0.6030489  )
         5        S      tau(   5) = (   0.1250010   0.0721683  -0.8514963  )
         6        S      tau(   6) = (   0.0000015   0.1443389  -0.1180260  )
         7        Mo     tau(   7) = (   0.0000005   0.1443381   0.2424561  )
         8        Mo     tau(   8) = (   0.1251981   0.0716023   0.7276027  )
         9        S      tau(   9) = (  -0.0003031   0.1454842   0.6052312  )
        10        S      tau(  10) = (   0.1249558   0.0721599   0.3668208  )
        11        S      tau(  11) = (   0.1250088   0.0721517   0.1180857  )
        12        S      tau(  12) = (  -0.0004157   0.1382876   0.8564685  )
        13        Mo     tau(  13) = (  -0.1249989   0.3608437  -0.7272732  )
        14        Mo     tau(  14) = (   0.0000030   0.2886752  -0.2424042  )
        15        S      tau(  15) = (  -0.1249977   0.3608450  -0.3667802  )
        16        S      tau(  16) = (   0.0000012   0.2886747  -0.6030489  )
        17        S      tau(  17) = (   0.0000012   0.2886748  -0.8514963  )
        18        S      tau(  18) = (  -0.1249977   0.3608454  -0.1180274  )
        19        Mo     tau(  19) = (  -0.1249623   0.3608201   0.2425155  )
        20        Mo     tau(  20) = (  -0.0007801   0.2872696   0.7308518  )
        21        S      tau(  21) = (  -0.1240398   0.3604107   0.6055268  )
        22        S      tau(  22) = (   0.0000411   0.2886546   0.3669163  )
        23        S      tau(  23) = (   0.0000035   0.2886726   0.1180964  )
        24        S      tau(  24) = (  -0.1315418   0.3638985   0.8543850  )
        25        Mo     tau(  25) = (  -0.2499987   0.5773502  -0.7272732  )
        26        Mo     tau(  26) = (  -0.1249977   0.5051839  -0.2424055  )
        27        S      tau(  27) = (  -0.2499981   0.5773518  -0.3667809  )
        28        S      tau(  28) = (  -0.1249986   0.5051812  -0.6030489  )
        29        S      tau(  29) = (  -0.1249986   0.5051813  -0.8514963  )
        30        S      tau(  30) = (  -0.2499979   0.5773512  -0.1180266  )
        31        Mo     tau(  31) = (  -0.2499787   0.5773156   0.2425145  )
        32        Mo     tau(  32) = (  -0.1271807   0.5060660   0.7281741  )
        33        S      tau(  33) = (  -0.2502658   0.5775034   0.6017985  )
        34        S      tau(  34) = (  -0.1249543   0.5051367   0.3669386  )
        35        S      tau(  35) = (  -0.1249864   0.5051552   0.1181399  )
        36        S      tau(  36) = (  -0.2525628   0.5785576   0.8514793  )
        37        Mo     tau(  37) = (  -0.3749985   0.7938567  -0.7272732  )
        38        Mo     tau(  38) = (  -0.2500001   0.7216874  -0.2424031  )
        39        S      tau(  39) = (  -0.3749980   0.7938584  -0.3667800  )
        40        S      tau(  40) = (  -0.2499984   0.7216877  -0.6030489  )
        41        S      tau(  41) = (  -0.2499984   0.7216878  -0.8514963  )
        42        S      tau(  42) = (  -0.3749982   0.7938585  -0.1180264  )
        43        Mo     tau(  43) = (  -0.3750043   0.7938372   0.2424536  )
        44        Mo     tau(  44) = (  -0.2503619   0.7218808   0.7263407  )
        45        S      tau(  45) = (  -0.3755748   0.7941519   0.6023691  )
        46        S      tau(  46) = (  -0.2500067   0.7216811   0.3668312  )
        47        S      tau(  47) = (  -0.2499793   0.7216445   0.1181126  )
        48        S      tau(  48) = (  -0.3746959   0.7932047   0.8515893  )
        49        Mo     tau(  49) = (   0.2500010   0.1443372  -0.7272732  )
        50        Mo     tau(  50) = (   0.3750034   0.0721723  -0.2424032  )
        51        S      tau(  51) = (   0.2500017   0.1443391  -0.3667788  )
        52        S      tau(  52) = (   0.3750010   0.0721682  -0.6030489  )
        53        S      tau(  53) = (   0.3750010   0.0721683  -0.8514963  )
        54        S      tau(  54) = (   0.2500016   0.1443391  -0.1180271  )
        55        Mo     tau(  55) = (   0.2500033   0.1443124   0.2424881  )
        56        Mo     tau(  56) = (   0.3752595   0.0716472   0.7255395  )
        57        S      tau(  57) = (   0.2498544   0.1431280   0.6011361  )
        58        S      tau(  58) = (   0.3750516   0.0721435   0.3668117  )
        59        S      tau(  59) = (   0.3750079   0.0721203   0.1180977  )
        60        S      tau(  60) = (   0.2517312   0.1427646   0.8506906  )
        61        Mo     tau(  61) = (   0.1250012   0.3608437  -0.7272732  )
        62        Mo     tau(  62) = (   0.2500029   0.2886782  -0.2424031  )
        63        S      tau(  63) = (   0.1250024   0.3608455  -0.3667794  )
        64        S      tau(  64) = (   0.2500012   0.2886747  -0.6030489  )
        65        S      tau(  65) = (   0.2500012   0.2886748  -0.8514963  )
        66        S      tau(  66) = (   0.1250021   0.3608455  -0.1180270  )
        67        Mo     tau(  67) = (   0.1249995   0.3608273   0.2424838  )
        68        Mo     tau(  68) = (   0.2535704   0.2866116   0.7259154  )
        69        S      tau(  69) = (   0.1241106   0.3617788   0.6079553  )
        70        S      tau(  70) = (   0.2499752   0.2886689   0.3668869  )
        71        S      tau(  71) = (   0.2500098   0.2886475   0.1181123  )
        72        S      tau(  72) = (   0.1336503   0.3523048   0.8541313  )
        73        Mo     tau(  73) = (   0.0000014   0.5773502  -0.7272732  )
        74        Mo     tau(  74) = (   0.1250045   0.5051840  -0.2424036  )
        75        S      tau(  75) = (   0.0000030   0.5773520  -0.3667799  )
        76        S      tau(  76) = (   0.1250014   0.5051812  -0.6030489  )
        77        S      tau(  77) = (   0.1250014   0.5051813  -0.8514963  )
        78        S      tau(  78) = (   0.0000026   0.5773517  -0.1180274  )
        79        Mo     tau(  79) = (   0.0000276   0.5772927   0.2425177  )
        80        Mo     tau(  80) = (   0.1255270   0.5059369   0.7313762  )
        81        S      tau(  81) = (   0.0011816   0.5764663   0.6064450  )
        82        S      tau(  82) = (   0.1250222   0.5051261   0.3669341  )
        83        S      tau(  83) = (   0.1249880   0.5051467   0.1180950  )
        84        S      tau(  84) = (  -0.0088763   0.5830479   0.8565830  )
        85        Mo     tau(  85) = (  -0.1249984   0.7938567  -0.7272732  )
        86        Mo     tau(  86) = (   0.0000069   0.7216896  -0.2424039  )
        87        S      tau(  87) = (  -0.1249975   0.7938582  -0.3667782  )
        88        S      tau(  88) = (   0.0000016   0.7216877  -0.6030489  )
        89        S      tau(  89) = (   0.0000016   0.7216878  -0.8514963  )
        90        S      tau(  90) = (  -0.1249973   0.7938582  -0.1180279  )
        91        Mo     tau(  91) = (  -0.1249699   0.7938095   0.2424907  )
        92        Mo     tau(  92) = (  -0.0004895   0.7231014   0.7275053  )
        93        S      tau(  93) = (  -0.1248847   0.7932555   0.6014963  )
        94        S      tau(  94) = (   0.0000405   0.7216116   0.3668908  )
        95        S      tau(  95) = (   0.0000242   0.7216332   0.1181249  )
        96        S      tau(  96) = (  -0.1259194   0.7949777   0.8510667  )
        97        Mo     tau(  97) = (   0.5000010   0.1443372  -0.7272732  )
        98        Mo     tau(  98) = (   0.6250001   0.0721662  -0.2424040  )
        99        S      tau(  99) = (   0.5000017   0.1443386  -0.3667801  )
       100        S      tau( 100) = (   0.6250010   0.0721682  -0.6030489  )
       101        S      tau( 101) = (   0.6250010   0.0721683  -0.8514963  )
       102        S      tau( 102) = (   0.5000020   0.1443388  -0.1180261  )
       103        Mo     tau( 103) = (   0.5000355   0.1442968   0.2424343  )
       104        Mo     tau( 104) = (   0.6251054   0.0720760   0.7269638  )
       105        S      tau( 105) = (   0.5007812   0.1439212   0.6015111  )
       106        S      tau( 106) = (   0.6250309   0.0721295   0.3668346  )
       107        S      tau( 107) = (   0.6250410   0.0721183   0.1180973  )
       108        S      tau( 108) = (   0.4998652   0.1442971   0.8504179  )
       109        Mo     tau( 109) = (   0.3750012   0.3608437  -0.7272732  )
       110        Mo     tau( 110) = (   0.4999991   0.2886761  -0.2424038  )
       111        S      tau( 111) = (   0.3750012   0.3608452  -0.3667804  )
       112        S      tau( 112) = (   0.5000012   0.2886747  -0.6030489  )
       113        S      tau( 113) = (   0.5000012   0.2886748  -0.8514963  )
       114        S      tau( 114) = (   0.3750014   0.3608455  -0.1180261  )
       115        Mo     tau( 115) = (   0.3749988   0.3608207   0.2424913  )
       116        Mo     tau( 116) = (   0.5005676   0.2886014   0.7258090  )
       117        S      tau( 117) = (   0.3761076   0.3615161   0.6013079  )
       118        S      tau( 118) = (   0.5000282   0.2886169   0.3668001  )
       119        S      tau( 119) = (   0.5000158   0.2886613   0.1180928  )
       120        S      tau( 120) = (   0.3768791   0.3600665   0.8508100  )
       121        Mo     tau( 121) = (   0.2500014   0.5773502  -0.7272732  )
       122        Mo     tau( 122) = (   0.3749983   0.5051825  -0.2424043  )
       123        S      tau( 123) = (   0.2500017   0.5773519  -0.3667810  )
       124        S      tau( 124) = (   0.3750014   0.5051812  -0.6030489  )
       125        S      tau( 125) = (   0.3750014   0.5051813  -0.8514963  )
       126        S      tau( 126) = (   0.2500018   0.5773519  -0.1180256  )
       127        Mo     tau( 127) = (   0.2499755   0.5773110   0.2424609  )
       128        Mo     tau( 128) = (   0.3758691   0.5051374   0.7277779  )
       129        S      tau( 129) = (   0.2483182   0.5768077   0.6062789  )
       130        S      tau( 130) = (   0.3749464   0.5051844   0.3668408  )
       131        S      tau( 131) = (   0.3749944   0.5051486   0.1180923  )
       132        S      tau( 132) = (   0.2574557   0.5818559   0.8585037  )
       133        Mo     tau( 133) = (   0.1250016   0.7938567  -0.7272732  )
       134        Mo     tau( 134) = (   0.2499995   0.7216883  -0.2424036  )
       135        S      tau( 135) = (   0.1250024   0.7938578  -0.3667813  )
       136        S      tau( 136) = (   0.2500016   0.7216877  -0.6030489  )
       137        S      tau( 137) = (   0.2500016   0.7216878  -0.8514963  )
       138        S      tau( 138) = (   0.1250024   0.7938579  -0.1180253  )
       139        Mo     tau( 139) = (   0.1250229   0.7938069   0.2425006  )
       140        Mo     tau( 140) = (   0.2504358   0.7224862   0.7284223  )
       141        S      tau( 141) = (   0.1254429   0.7935457   0.6029055  )
       142        S      tau( 142) = (   0.2500049   0.7216116   0.3668842  )
       143        S      tau( 143) = (   0.2500022   0.7216616   0.1181021  )
       144        S      tau( 144) = (   0.1246626   0.7944127   0.8519137  )
       145        Mo     tau( 145) = (   0.7500010   0.1443372  -0.7272732  )
       146        Mo     tau( 146) = (   0.8750038   0.0721696  -0.2424038  )
       147        S      tau( 147) = (   0.7500016   0.1443382  -0.3667789  )
       148        S      tau( 148) = (   0.8750010   0.0721682  -0.6030489  )
       149        S      tau( 149) = (   0.8750010   0.0721683  -0.8514963  )
       150        S      tau( 150) = (   0.7500016   0.1443384  -0.1180279  )
       151        Mo     tau( 151) = (   0.7500289   0.1443141   0.2424936  )
       152        Mo     tau( 152) = (   0.8748115   0.0715393   0.7280420  )
       153        S      tau( 153) = (   0.7503587   0.1440662   0.6027403  )
       154        S      tau( 154) = (   0.8750369   0.0721618   0.3668742  )
       155        S      tau( 155) = (   0.8750002   0.0721408   0.1181001  )
       156        S      tau( 156) = (   0.7494385   0.1444101   0.8516821  )
       157        Mo     tau( 157) = (   0.6250012   0.3608437  -0.7272732  )
       158        Mo     tau( 158) = (   0.7500028   0.2886769  -0.2424041  )
       159        S      tau( 159) = (   0.6250015   0.3608451  -0.3667792  )
       160        S      tau( 160) = (   0.7500012   0.2886747  -0.6030489  )
       161        S      tau( 161) = (   0.7500012   0.2886748  -0.8514963  )
       162        S      tau( 162) = (   0.6250016   0.3608454  -0.1180280  )
       163        Mo     tau( 163) = (   0.6250302   0.3608127   0.2424760  )
       164        Mo     tau( 164) = (   0.7487590   0.2885376   0.7272130  )
       165        S      tau( 165) = (   0.6254237   0.3608917   0.6015174  )
       166        S      tau( 166) = (   0.7500486   0.2886525   0.3668797  )
       167        S      tau( 167) = (   0.7500385   0.2886557   0.1181169  )
       168        S      tau( 168) = (   0.6239430   0.3610912   0.8510113  )
       169        Mo     tau( 169) = (   0.5000014   0.5773502  -0.7272732  )
       170        Mo     tau( 170) = (   0.6250029   0.5051841  -0.2424047  )
       171        S      tau( 171) = (   0.5000014   0.5773518  -0.3667794  )
       172        S      tau( 172) = (   0.6250014   0.5051812  -0.6030489  )
       173        S      tau( 173) = (   0.6250014   0.5051813  -0.8514963  )
       174        S      tau( 174) = (   0.5000016   0.5773516  -0.1180277  )
       175        Mo     tau( 175) = (   0.4999859   0.5773250   0.2424709  )
       176        Mo     tau( 176) = (   0.6245890   0.5053660   0.7261562  )
       177        S      tau( 177) = (   0.4993068   0.5776651   0.6022414  )
       178        S      tau( 178) = (   0.6249823   0.5051501   0.3668388  )
       179        S      tau( 179) = (   0.6250205   0.5051637   0.1181147  )
       180        S      tau( 180) = (   0.5009766   0.5773609   0.8515797  )
       181        Mo     tau( 181) = (   0.3750016   0.7938567  -0.7272732  )
       182        Mo     tau( 182) = (   0.5000025   0.7216901  -0.2424039  )
       183        S      tau( 183) = (   0.3750019   0.7938578  -0.3667793  )
       184        S      tau( 184) = (   0.5000016   0.7216877  -0.6030489  )
       185        S      tau( 185) = (   0.5000016   0.7216878  -0.8514963  )
       186        S      tau( 186) = (   0.3750020   0.7938579  -0.1180272  )
       187        Mo     tau( 187) = (   0.3749951   0.7938323   0.2424893  )
       188        Mo     tau( 188) = (   0.4998599   0.7217391   0.7271366  )
       189        S      tau( 189) = (   0.3746033   0.7939741   0.6029663  )
       190        S      tau( 190) = (   0.4999946   0.7216688   0.3668260  )
       191        S      tau( 191) = (   0.4999891   0.7216628   0.1180901  )
       192        S      tau( 192) = (   0.3755955   0.7938624   0.8526444  )
       193        Pt     tau( 193) = (   0.1194898   0.4990527   0.9549993  )
       194        Pd     tau( 194) = (   0.0026419   0.2990244   0.9662205  )
       195        Pd     tau( 195) = (   0.1194768   0.4990893   1.1454222  )

     --------------------------------------------
     DFT-D3 Dispersion Correction (3-body terms):
     --------------------------------------------
       Reference C6 values for interpolation: 

         atom   Coordination number   C6
         S          0.000           268.01
         S          0.995           261.99
         S          1.990           251.62
         Mo         0.000          1691.79
         Mo         1.942          1004.01
         Mo        11.056           674.22
         Pd         0.000          1217.01
         Pd         1.863           573.90
         Pd         5.710           531.75
         Pt         0.000           782.29
         Pt         1.919           692.72
         Pt         6.667           673.75

       Values used:

         atom   Coordination number  R0_AB[au]  C6      C8
         Mo        10.208            3.547    674.22  77634.20
         Mo        10.221            3.547    674.22  77634.20
         S          3.858            3.128    251.62  12327.25
         S          3.859            3.128    251.62  12327.25
         S          3.758            3.128    251.62  12327.25
         S          3.859            3.128    251.62  12327.25
         Mo        10.221            3.547    674.22  77634.20
         Mo        10.228            3.547    674.22  77634.20
         S          3.849            3.128    251.62  12327.25
         S          3.859            3.128    251.62  12327.25
         S          3.859            3.128    251.62  12327.25
         S          4.621            3.128    251.62  12327.25
         Mo        10.208            3.547    674.22  77634.20
         Mo        10.221            3.547    674.22  77634.20
         S          3.858            3.128    251.62  12327.25
         S          3.859            3.128    251.62  12327.25
         S          3.758            3.128    251.62  12327.25
         S          3.859            3.128    251.62  12327.25
         Mo        10.222            3.547    674.22  77634.20
         Mo        10.721            3.547    674.21  77634.20
         S          3.862            3.128    251.62  12327.25
         S          3.850            3.128    251.62  12327.25
         S          3.859            3.128    251.62  12327.25
         S          4.669            3.128    251.62  12327.25
         Mo        10.208            3.547    674.22  77634.20
         Mo        10.221            3.547    674.22  77634.20
         S          3.858            3.128    251.62  12327.25
         S          3.859            3.128    251.62  12327.25
         S          3.758            3.128    251.62  12327.25
         S          3.859            3.128    251.62  12327.25
         Mo        10.220            3.547    674.22  77634.20
         Mo        10.171            3.547    674.22  77634.20
         S          3.842            3.128    251.62  12327.25
         S          3.853            3.128    251.62  12327.25
         S          3.859            3.128    251.62  12327.25
         S          3.843            3.128    251.62  12327.25
         Mo        10.208            3.547    674.22  77634.20
         Mo        10.220            3.547    674.22  77634.20
         S          3.858            3.128    251.62  12327.25
         S          3.859            3.128    251.62  12327.25
         S          3.758            3.128    251.62  12327.25
         S          3.859            3.128    251.62  12327.25
         Mo        10.220            3.547    674.22  77634.20
         Mo        10.260            3.547    674.22  77634.20
         S          3.856            3.128    251.62  12327.25
         S          3.861            3.128    251.62  12327.25
         S          3.859            3.128    251.62  12327.25
         S          3.808            3.128    251.62  12327.25
         Mo        10.208            3.547    674.22  77634.20
         Mo        10.221            3.547    674.22  77634.20
         S          3.858            3.128    251.62  12327.25
         S          3.859            3.128    251.62  12327.25
         S          3.758            3.128    251.62  12327.25
         S          3.859            3.128    251.62  12327.25
         Mo        10.220            3.547    674.22  77634.20
         Mo        10.278            3.547    674.22  77634.20
         S          3.837            3.128    251.62  12327.25
         S          3.863            3.128    251.62  12327.25
         S          3.859            3.128    251.62  12327.25
         S          3.842            3.128    251.62  12327.25
         Mo        10.208            3.547    674.22  77634.20
         Mo        10.221            3.547    674.22  77634.20
         S          3.858            3.128    251.62  12327.25
         S          3.859            3.128    251.62  12327.25
         S          3.758            3.128    251.62  12327.25
         S          3.859            3.128    251.62  12327.25
         Mo        10.222            3.547    674.22  77634.20
         Mo        10.177            3.547    674.22  77634.20
         S          3.873            3.128    251.62  12327.25
         S          3.855            3.128    251.62  12327.25
         S          3.859            3.128    251.62  12327.25
         S          5.648            3.128    251.62  12327.25
         Mo        10.208            3.547    674.22  77634.20
         Mo        10.221            3.547    674.22  77634.20
         S          3.858            3.128    251.62  12327.25
         S          3.859            3.128    251.62  12327.25
         S          3.758            3.128    251.62  12327.25
         S          3.859            3.128    251.62  12327.25
         Mo        10.222            3.547    674.22  77634.20
         Mo        10.868            3.547    674.22  77634.20
         S          3.860            3.128    251.62  12327.25
         S          3.850            3.128    251.62  12327.25
         S          3.859            3.128    251.62  12327.25
         S          4.678            3.128    251.62  12327.25
         Mo        10.208            3.547    674.22  77634.20
         Mo        10.221            3.547    674.22  77634.20
         S          3.858            3.128    251.62  12327.25
         S          3.859            3.128    251.62  12327.25
         S          3.758            3.128    251.62  12327.25
         S          3.859            3.128    251.62  12327.25
         Mo        10.220            3.547    674.22  77634.20
         Mo        10.215            3.547    674.22  77634.20
         S          3.850            3.128    251.62  12327.25
         S          3.856            3.128    251.62  12327.25
         S          3.859            3.128    251.62  12327.25
         S          3.827            3.128    251.62  12327.25
         Mo        10.208            3.547    674.22  77634.20
         Mo        10.221            3.547    674.22  77634.20
         S          3.858            3.128    251.62  12327.25
         S          3.859            3.128    251.62  12327.25
         S          3.758            3.128    251.62  12327.25
         S          3.859            3.128    251.62  12327.25
         Mo        10.220            3.547    674.22  77634.20
         Mo        10.250            3.547    674.22  77634.20
         S          3.856            3.128    251.62  12327.25
         S          3.861            3.128    251.62  12327.25
         S          3.859            3.128    251.62  12327.25
         S          3.790            3.128    251.62  12327.25
         Mo        10.208            3.547    674.22  77634.20
         Mo        10.221            3.547    674.22  77634.20
         S          3.858            3.128    251.62  12327.25
         S          3.859            3.128    251.62  12327.25
         S          3.758            3.128    251.62  12327.25
         S          3.859            3.128    251.62  12327.25
         Mo        10.220            3.547    674.22  77634.20
         Mo        10.277            3.547    674.22  77634.20
         S          3.839            3.128    251.62  12327.25
         S          3.863            3.128    251.62  12327.25
         S          3.859            3.128    251.62  12327.25
         S          3.819            3.128    251.62  12327.25
         Mo        10.208            3.547    674.22  77634.20
         Mo        10.221            3.547    674.22  77634.20
         S          3.858            3.128    251.62  12327.25
         S          3.859            3.128    251.62  12327.25
         S          3.758            3.128    251.62  12327.25
         S          3.859            3.128    251.62  12327.25
         Mo        10.222            3.547    674.22  77634.20
         Mo        10.220            3.547    674.22  77634.20
         S          3.851            3.128    251.62  12327.25
         S          3.858            3.128    251.62  12327.25
         S          3.859            3.128    251.62  12327.25
         S          4.648            3.128    251.62  12327.25
         Mo        10.208            3.547    674.22  77634.20
         Mo        10.221            3.547    674.22  77634.20
         S          3.858            3.128    251.62  12327.25
         S          3.859            3.128    251.62  12327.25
         S          3.758            3.128    251.62  12327.25
         S          3.859            3.128    251.62  12327.25
         Mo        10.221            3.547    674.22  77634.20
         Mo        10.226            3.547    674.22  77634.20
         S          3.863            3.128    251.62  12327.25
         S          3.856            3.128    251.62  12327.25
         S          3.859            3.128    251.62  12327.25
         S          3.765            3.128    251.62  12327.25
         Mo        10.208            3.547    674.22  77634.20
         Mo        10.221            3.547    674.22  77634.20
         S          3.858            3.128    251.62  12327.25
         S          3.859            3.128    251.62  12327.25
         S          3.758            3.128    251.62  12327.25
         S          3.859            3.128    251.62  12327.25
         Mo        10.221            3.547    674.22  77634.20
         Mo        10.241            3.547    674.22  77634.20
         S          3.864            3.128    251.62  12327.25
         S          3.857            3.128    251.62  12327.25
         S          3.859            3.128    251.62  12327.25
         S          3.767            3.128    251.62  12327.25
         Mo        10.208            3.547    674.21  77634.20
         Mo        10.220            3.547    674.22  77634.20
         S          3.858            3.128    251.62  12327.25
         S          3.859            3.128    251.62  12327.25
         S          3.758            3.128    251.62  12327.25
         S          3.859            3.128    251.62  12327.25
         Mo        10.220            3.547    674.22  77634.20
         Mo        10.226            3.547    674.22  77634.20
         S          3.854            3.128    251.62  12327.25
         S          3.857            3.128    251.62  12327.25
         S          3.859            3.128    251.62  12327.25
         S          3.809            3.128    251.62  12327.25
         Mo        10.208            3.547    674.22  77634.20
         Mo        10.221            3.547    674.22  77634.20
         S          3.858            3.128    251.62  12327.25
         S          3.859            3.128    251.62  12327.25
         S          3.758            3.128    251.62  12327.25
         S          3.859            3.128    251.62  12327.25
         Mo        10.220            3.547    674.22  77634.20
         Mo        10.267            3.547    674.22  77634.20
         S          3.853            3.128    251.62  12327.25
         S          3.861            3.128    251.62  12327.25
         S          3.859            3.128    251.62  12327.25
         S          3.821            3.128    251.62  12327.25
         Mo        10.208            3.547    674.22  77634.20
         Mo        10.221            3.547    674.22  77634.20
         S          3.858            3.128    251.62  12327.25
         S          3.859            3.128    251.62  12327.25
         S          3.758            3.128    251.62  12327.25
         S          3.859            3.128    251.62  12327.25
         Mo        10.221            3.547    674.22  77634.20
         Mo        10.250            3.547    674.22  77634.20
         S          3.853            3.128    251.62  12327.25
         S          3.860            3.128    251.62  12327.25
         S          3.859            3.128    251.62  12327.25
         S          3.823            3.128    251.62  12327.25
         Pt         5.433            3.168    673.75  70061.90
         Pd         4.142            3.168    531.75  48720.79
         Pd         1.030            3.168    672.50  61617.24

         Molecular C6 ( Ry / a.u.^6 ) =  14169987.76


     number of k points=     4  Gaussian smearing, width (Ry)=  0.0100
                       cart. coord. in units 2pi/alat
        k(    1) = (   0.0000000   0.0000000   0.0000000), wk =   0.5000000
        k(    2) = (   0.0000000  -0.5773499   0.0000000), wk =   0.5000000
        k(    3) = (  -0.5000000  -0.2886744   0.0000000), wk =   0.5000000
        k(    4) = (  -0.5000000  -0.8660242   0.0000000), wk =   0.5000000

     Dense  grid:  7154885 G-vectors     FFT dimensions: ( 180, 180, 512)

     Smooth grid:  3090769 G-vectors     FFT dimensions: ( 135, 135, 400)

     Estimated max dynamical RAM per process >       4.32 GB

     Estimated total dynamical RAM >     155.52 GB

     Atomic positions and unit cell read from directory:
     ./outdir/pwscf.save/
     Atomic positions from file used, from input discarded
 

     The initial density is read from file :
     ./outdir/pwscf.save/charge-density


     negative rho (up, down):  9.218E-04 0.000E+00
     Cannot read wfcs: file not found
     Starting wfcs are 1189 randomized atomic wfcs
     Checking if some PAW data can be deallocated... 

     total cpu time spent up to now is      183.5 secs

     Self-consistent Calculation

     iteration #  1     ecut=    77.00 Ry     beta= 0.20
     Davidson diagonalization with overlap
     c_bands:  2 eigenvalues not converged
     c_bands:  5 eigenvalues not converged
     c_bands:  3 eigenvalues not converged
     c_bands:  2 eigenvalues not converged
     ethr =  1.00E-05,  avg # of iterations =100.0

     Threshold (ethr) on eigenvalues was too large:
     Diagonalizing with lowered threshold

     Davidson diagonalization with overlap
     c_bands:  3 eigenvalues not converged
     c_bands:  4 eigenvalues not converged
     c_bands:  2 eigenvalues not converged
     ethr =  2.16E-07,  avg # of iterations = 50.5

     negative rho (up, down):  9.224E-04 0.000E+00

     total cpu time spent up to now is    12961.0 secs

     total energy              =  -34492.24226205 Ry
     estimated scf accuracy    <       0.00012706 Ry

     iteration #  2     ecut=    77.00 Ry     beta= 0.20
     Davidson diagonalization with overlap
     ethr =  7.34E-09,  avg # of iterations = 24.8

     negative rho (up, down):  9.226E-04 0.000E+00

     total cpu time spent up to now is    15406.0 secs

     total energy              =  -34492.24300904 Ry
     estimated scf accuracy    <       0.00021304 Ry

     iteration #  3     ecut=    77.00 Ry     beta= 0.20
     Davidson diagonalization with overlap
     ethr =  7.34E-09,  avg # of iterations =  2.5

     negative rho (up, down):  9.226E-04 0.000E+00

     total cpu time spent up to now is    15810.8 secs

     total energy              =  -34492.24301619 Ry
     estimated scf accuracy    <       0.00005402 Ry

     iteration #  4     ecut=    77.00 Ry     beta= 0.20
     Davidson diagonalization with overlap
     ethr =  3.12E-09,  avg # of iterations = 13.0

     negative rho (up, down):  9.227E-04 0.000E+00

     total cpu time spent up to now is    16264.7 secs

     total energy              =  -34492.24301266 Ry
     estimated scf accuracy    <       0.00003806 Ry

     iteration #  5     ecut=    77.00 Ry     beta= 0.20
     Davidson diagonalization with overlap
     ethr =  2.20E-09,  avg # of iterations = 12.0

     negative rho (up, down):  9.226E-04 0.000E+00

     total cpu time spent up to now is    16766.0 secs

     total energy              =  -34492.24302145 Ry
     estimated scf accuracy    <       0.00000580 Ry

     iteration #  6     ecut=    77.00 Ry     beta= 0.20
     Davidson diagonalization with overlap
     c_bands:  1 eigenvalues not converged
     c_bands:  3 eigenvalues not converged
     ethr =  3.35E-10,  avg # of iterations = 16.5

     negative rho (up, down):  9.222E-04 0.000E+00

     total cpu time spent up to now is    18215.6 secs

     End of self-consistent calculation

          k = 0.0000 0.0000 0.0000 (386245 PWs)   bands (ev):

  -103.1741 -89.0930 -87.2759 -71.5599 -71.5527 -71.5080 -71.4636 -71.4481
   -71.4457 -71.4367 -66.6336 -66.6160 -66.6159 -66.6146 -66.6133 -66.6045
   -66.6005 -66.5950 -66.5949 -66.5947 -66.5946 -66.5946 -66.5946 -66.5946
   -66.5946 -66.5946 -66.5946 -66.5945 -66.5943 -66.5934 -66.5933 -66.5933
   -66.5933 -66.5933 -66.5933 -66.5933 -66.5895 -66.5874 -66.5841 -66.5774
   -66.5737 -66.5735 -66.5735 -66.5734 -66.5733 -66.5732 -66.5732 -66.5732
   -66.5732 -66.5732 -66.5732 -66.5732 -66.5732 -66.5732 -66.5732 -66.5732
   -66.5730 -66.5726 -66.5719 -66.5719 -66.5719 -66.5719 -66.5719 -66.5719
   -66.5719 -66.5719 -66.5719 -66.5671 -66.5619 -66.5571 -66.5448 -66.5324
   -66.5303 -66.5252 -57.4565 -57.4217 -57.2153 -54.9770 -54.9334 -54.6898
   -53.2555 -53.1484 -52.7913 -40.9435 -40.9434 -40.9434 -40.9433 -40.9433
   -40.9432 -40.9429 -40.9428 -40.9428 -40.9428 -40.9398 -40.9356 -40.8729
   -40.8691 -40.8683 -40.8681 -40.8681 -40.8680 -40.8680 -40.8680 -40.8680
   -40.8680 -40.8680 -40.8680 -40.8679 -40.8678 -40.8674 -40.8674 -40.8674
   -40.8674 -40.8674 -40.8674 -40.8592 -40.8537 -40.8449 -40.8337 -40.8020
   -40.7757 -40.7756 -40.7750 -40.7707 -40.7623 -40.7526 -40.7521 -40.7486
   -40.7422 -40.7420 -40.7418 -40.7417 -40.7417 -40.7417 -40.7417 -40.7417
   -40.7417 -40.7417 -40.7416 -40.7415 -40.7414 -40.7409 -40.7409 -40.7409
   -40.7409 -40.7409 -40.7409 -40.7395 -40.7366 -40.7343 -40.7341 -40.7341
   -40.7339 -40.7339 -40.7339 -40.7339 -40.7339 -40.7339 -40.7339 -40.7338
   -40.7337 -40.7333 -40.7332 -40.7332 -40.7332 -40.7332 -40.7332 -40.7322
   -40.7278 -40.7224 -40.7210 -40.7162 -40.7104 -40.7090 -40.7072 -40.7070
   -40.7068 -40.7067 -40.7067 -40.7067 -40.7066 -40.7066 -40.7066 -40.7066
   -40.7066 -40.7065 -40.7064 -40.7058 -40.7058 -40.7058 -40.7058 -40.7058
   -40.7058 -40.7031 -40.7021 -40.6953 -40.6924 -40.6923 -40.6921 -40.6921
   -40.6920 -40.6919 -40.6919 -40.6919 -40.6919 -40.6919 -40.6919 -40.6919
   -40.6919 -40.6919 -40.6919 -40.6918 -40.6918 -40.6915 -40.6915 -40.6912
   -40.6912 -40.6912 -40.6912 -40.6912 -40.6912 -40.6912 -40.6912 -40.6912
   -40.6906 -40.6848 -40.6813 -40.6739 -40.6718 -40.6672 -40.6636 -40.6285
   -40.6283 -40.6283 -40.6283 -40.6283 -40.6282 -40.6274 -40.6274 -40.6274
   -40.6244 -40.6179 -40.6119 -40.5815 -40.5814 -40.5813 -40.5812 -40.5812
   -40.5812 -40.5812 -40.5812 -40.5812 -40.5811 -40.5810 -40.5809 -40.5802
   -40.5802 -40.5802 -40.5802 -40.5802 -40.5802 -40.5761 -40.5746 -40.5645
   -40.5597 -40.5525 -40.5496 -40.5336 -40.5336 -40.5336 -40.5336 -40.5326
   -40.5326 -40.5110 -40.4965 -20.1995 -20.0920 -19.9916 -19.8837 -19.6636
   -19.3204 -19.2866 -19.2496 -19.2470 -19.2401 -19.2291 -19.2225 -19.2187
   -19.1995 -19.1951 -19.1802 -19.1442 -19.1323 -19.1288 -19.1146 -19.1105
   -19.0943 -19.0394 -19.0323 -19.0310 -19.0266 -19.0250 -19.0182 -18.9064
   -18.8112 -18.7553 -18.6229 -18.5581 -18.5531 -18.5084 -18.4997 -18.4736
   -18.4639 -18.4415 -18.4224 -18.4114 -18.4041 -18.3898 -18.3592 -18.3318
   -18.3211 -18.2788 -18.2773 -18.2694 -18.2453 -18.2370 -18.2355 -18.1819
   -18.1775 -18.1757 -18.1678 -18.1672 -18.1664 -18.1272 -18.1188 -18.1151
   -18.1137 -18.1112 -18.1108 -18.1085 -18.0960 -18.0875 -18.0835 -18.0784
   -18.0765 -18.0734 -18.0687 -18.0678 -18.0664 -18.0574 -18.0458 -18.0439
   -18.0426 -18.0398 -18.0358 -18.0270 -18.0228 -18.0197 -18.0096 -18.0031
   -17.9974 -17.9968 -17.9928 -17.9909 -17.9818 -17.9796 -17.9780 -17.9512
   -17.9413 -17.9390 -17.9294 -17.9159 -17.9150 -17.9106 -17.9091 -17.9089
   -17.8901 -17.8870 -17.8837 -17.8754 -17.8694 -17.8646 -17.8614 -17.8607
   -17.8589 -17.8516 -17.8505 -17.8488 -17.8337 -17.8331 -17.8322 -17.8235
   -17.8209 -17.8181 -17.8156 -17.8150 -17.8126 -17.7897 -17.7894 -17.7883
   -17.7875 -17.7871 -17.7865 -12.2465 -12.0486 -11.9559 -11.8894 -11.8149
   -11.7915 -11.7795 -11.7756 -11.6791 -11.6706 -11.6595 -11.5862 -11.5544
   -11.5467 -11.5398 -11.4298 -11.3612 -11.3510 -11.2724 -11.2394 -11.2318
   -11.2294 -11.2289 -11.2239 -11.1990 -11.1741 -11.1619 -11.1276 -11.1235
   -11.1224 -11.1201 -11.1165 -11.1128 -11.0859 -11.0722 -11.0660 -11.0638
   -11.0566 -11.0546 -11.0501 -11.0463 -11.0418 -11.0400 -11.0258 -11.0193
   -11.0001 -10.9773 -10.9626 -10.9583 -10.9423 -10.9371 -10.9309 -10.9197
   -10.9033 -10.8950 -10.8890 -10.8824 -10.8805 -10.8734 -10.8576 -10.8443
   -10.8419 -10.8367 -10.8337 -10.8264 -10.8253 -10.8237 -10.8215 -10.8205
   -10.8172 -10.8084 -10.8021 -10.7999 -10.7994 -10.7970 -10.7944 -10.7739
   -10.7736 -10.7711 -10.7694 -10.7677 -10.7632 -10.7611 -10.7510 -10.7481
   -10.7305 -10.7299 -10.7294 -10.7288 -10.7264 -10.7253 -10.6715 -10.6574
   -10.6509 -10.6215 -10.5927 -10.5890 -10.5799 -10.5738 -10.5707 -10.5514
   -10.4680 -10.3373 -10.2367 -10.1659 -10.1413 -10.1054  -9.9648  -9.9601
    -9.9372  -9.9216  -9.8329  -9.8201  -9.8041  -9.7981  -9.7944  -9.7859
    -9.7713  -9.7664  -9.7645  -9.7626  -9.7607  -9.7568  -9.7531  -9.7505
    -9.7444  -9.7422  -9.7396  -9.7323  -9.7305  -9.7226  -9.7085  -9.6917
    -9.6704  -9.6351  -9.6309  -9.6232  -9.6229  -9.6198  -9.6170  -9.6101
    -9.6097  -9.6092  -9.6083  -9.6074  -9.6057  -9.6011  -9.5943  -9.5711
    -9.5503  -9.5340  -9.5337  -9.5335  -9.5331  -9.5329  -9.5326  -9.5304
    -9.5277  -9.5158  -9.5139  -9.4995  -9.4942  -9.4760  -9.4714  -9.4487
    -9.4417  -9.4281  -9.3628  -9.3584  -9.3557  -9.3499  -9.3437  -9.3398
    -9.3267  -9.3231  -9.3188  -9.3057  -9.3020  -9.2947  -9.2576  -9.2516
    -9.2447  -9.2301  -9.2166  -9.2091  -9.1975  -9.1899  -9.1804  -9.1751
    -9.1729  -9.1714  -9.1698  -9.1690  -9.1344  -9.1275  -9.1155  -9.1005
    -9.0983  -9.0769  -9.0653  -9.0210  -8.9757  -8.9738  -8.9717  -8.9635
    -8.9563  -8.9493  -8.9477  -8.9404  -8.9328  -8.9257  -8.9096  -8.9092
    -8.9082  -8.9055  -8.8967  -8.8917  -8.8846  -8.8809  -8.8676  -8.8142
    -8.8134  -8.8134  -8.8130  -8.8127  -8.8122  -8.8018  -8.7578  -8.7475
    -8.7395  -8.7373  -8.7299  -8.7228  -8.6733  -8.6602  -8.6584  -8.6569
    -8.6500  -8.6442  -8.5958  -8.5929  -8.5858  -8.5853  -8.5833  -8.5819
    -8.5594  -8.5528  -8.4563  -8.4187  -8.4013  -8.3583  -8.3583  -8.3540
    -8.3535  -8.3495  -8.3471  -8.3459  -8.3417  -8.3015  -8.2749  -8.2693
    -8.2676  -8.2673  -8.2671  -8.2657  -8.2599  -8.2504  -8.2428  -8.2409
    -8.2406  -8.2383  -8.2358  -8.2295  -8.2169  -8.2129  -8.2127  -8.2117
    -8.2113  -8.2095  -8.2032  -8.1027  -8.0186  -7.9564  -7.9099  -7.8690
    -7.8535  -7.8483  -7.8435  -7.7804  -7.7726  -7.7658  -7.7066  -7.7032
    -7.6929  -7.6674  -7.6433  -7.6365  -7.6340  -7.6287  -7.6208  -7.6150
    -7.5997  -7.5975  -7.5893  -7.5750  -7.5640  -7.5554  -7.5426  -7.5379
    -7.5269  -7.5264  -7.5263  -7.5257  -7.5242  -7.5213  -7.5138  -7.5007
    -7.5002  -7.4991  -7.4987  -7.4974  -7.4948  -7.4930  -7.4756  -7.4748
    -7.4744  -7.4743  -7.4738  -7.4727  -7.4660  -7.4455  -7.4388  -7.4240
    -7.4168  -7.4155  -7.4105  -7.4029  -7.3995  -7.3939  -7.3858  -7.3756
    -7.3599  -7.3534  -7.3443  -7.3294  -7.3132  -7.3095  -7.2948  -7.2914
    -7.2879  -7.2833  -7.2818  -7.2784  -7.2713  -7.2525  -7.2428  -7.2425
    -7.2343  -7.2247  -7.2227  -7.2062  -7.2054  -7.1871  -7.1574  -7.1311
    -7.1166  -7.0907  -7.0878  -7.0742  -7.0276  -6.9546  -6.9527  -6.8902
    -6.8653  -6.8578  -6.8507  -6.8279  -6.7964  -6.7810  -6.7773  -6.7719
    -6.7609  -6.7441  -6.7243  -6.7131  -6.6930  -6.6740  -6.6689  -6.6435
    -6.6404  -6.6167  -6.6134  -6.6079  -6.6036  -6.6010  -6.5930  -6.5715
    -6.5604  -6.5545  -6.5407  -6.5396  -6.5281  -6.5123  -6.5079  -6.5059
    -6.5047  -6.5028  -6.5013  -6.4986  -6.4975  -6.4953  -6.4898  -6.4897
    -6.4890  -6.4887  -6.4883  -6.4879  -6.4718  -6.4568  -6.4557  -6.4313
    -6.4241  -6.4153  -6.4011  -6.4005  -6.3961  -6.3673  -6.3513  -6.3408
    -6.3283  -6.3280  -6.3258  -6.3219  -6.3199  -6.3140  -6.3001  -6.2976
    -6.2934  -6.2828  -6.2792  -6.2757  -6.2687  -6.2632  -6.2591  -6.2458
    -6.2438  -6.2431  -6.2414  -6.2390  -6.2372  -6.2136  -6.1106  -5.9742
    -5.8626  -5.7266  -5.6377  -5.5116  -5.4059  -5.2587  -5.1775  -5.1239
    -5.0810  -5.0559  -4.5683  -3.8665  -3.8449  -3.8436  -3.8415  -3.8377
    -3.8249  -3.8214  -3.8195  -3.8181  -3.8150  -3.8132  -3.8027  -3.7364
    -3.6945  -3.6929  -3.6894  -3.6840  -3.6779  -3.6739  -3.6723  -3.6684
    -3.6666  -3.6643  -3.6023  -3.5373  -3.5121  -3.5050  -3.5006  -3.4938
    -3.4878  -3.4819  -3.4738  -3.4665  -3.4642  -3.4616  -3.4598  -3.4548
    -3.4484  -3.4478  -3.4424  -3.4388  -3.4351  -3.4342  -3.4332  -3.4319
    -3.4240  -3.4188  -3.4183  -3.4119  -3.4108  -3.4035  -3.4020  -3.4007
    -3.3957  -3.3942  -3.3932  -3.3879  -3.3794  -3.3767  -3.3686  -3.3528
    -3.3442  -3.3392  -3.3375  -3.3364  -3.3358  -3.3315  -3.3276  -3.3153
    -3.3080  -3.3027  -3.2981  -3.2804  -3.2763  -3.2709  -3.2689  -3.2659
    -3.2528  -3.2145  -3.2019  -3.1947  -3.1939  -3.1875  -3.1604  -3.0749
    -3.0573  -3.0563  -3.0553  -3.0528  -3.0504  -3.0392  -3.0374  -3.0347
    -3.0166  -2.9921  -2.9805  -2.9767  -2.9708  -2.9684  -2.9660  -2.9657
    -2.9642  -2.9630  -2.9587  -2.9545  -2.9530  -2.9476  -2.9461  -2.9439
    -2.9415  -2.9373  -2.9296  -2.9265  -2.9256  -2.9245  -2.9232  -2.9226
    -2.9218  -2.9205  -2.9158  -2.9147  -2.9123  -2.8866  -2.8823  -2.8711
    -2.8664  -2.8623  -2.8596  -2.8456  -2.8392  -2.8033  -2.7975  -2.7971
    -2.7970  -2.7966  -2.7965  -2.7963  -2.7960  -2.7956  -2.7922  -2.7783
    -2.7750  -2.7592  -2.7454  -2.7433  -2.7292  -2.7240  -2.7134  -2.7104
    -2.6970  -2.6620  -2.6571  -2.6300  -2.6296  -2.6259  -2.6175  -2.6155
    -2.6143  -2.6105  -2.6092  -2.5672  -2.5570  -2.5483  -2.5317  -2.5294
    -2.5156  -2.4514  -2.4455  -2.4312  -2.4289  -2.4165  -2.4080

          k = 0.0000-0.5773 0.0000 (386352 PWs)   bands (ev):

  -103.1741 -89.0930 -87.2759 -71.5599 -71.5527 -71.5080 -71.4636 -71.4481
   -71.4457 -71.4367 -66.6333 -66.6127 -66.6098 -66.6097 -66.6097 -66.6097
   -66.6084 -66.6084 -66.6080 -66.5991 -66.5991 -66.5990 -66.5990 -66.5978
   -66.5978 -66.5973 -66.5939 -66.5897 -66.5866 -66.5843 -66.5842 -66.5840
   -66.5839 -66.5839 -66.5839 -66.5839 -66.5839 -66.5839 -66.5826 -66.5826
   -66.5826 -66.5826 -66.5796 -66.5795 -66.5795 -66.5795 -66.5782 -66.5782
   -66.5779 -66.5735 -66.5733 -66.5733 -66.5732 -66.5732 -66.5732 -66.5732
   -66.5730 -66.5719 -66.5719 -66.5719 -66.5719 -66.5688 -66.5688 -66.5688
   -66.5688 -66.5675 -66.5675 -66.5667 -66.5622 -66.5571 -66.5446 -66.5327
   -66.5303 -66.5251 -57.4565 -57.4217 -57.2153 -54.9770 -54.9334 -54.6898
   -53.2555 -53.1484 -52.7913 -40.9224 -40.9189 -40.9119 -40.9119 -40.9117
   -40.9117 -40.9117 -40.9117 -40.9117 -40.9115 -40.9111 -40.9111 -40.9111
   -40.9111 -40.9005 -40.8948 -40.8859 -40.8850 -40.8849 -40.8849 -40.8849
   -40.8843 -40.8843 -40.8805 -40.8729 -40.8728 -40.8728 -40.8728 -40.8722
   -40.8722 -40.8590 -40.8388 -40.8222 -40.8222 -40.8222 -40.8222 -40.8221
   -40.8221 -40.8221 -40.8221 -40.8215 -40.8215 -40.8215 -40.8214 -40.8173
   -40.8092 -40.8036 -40.8003 -40.7913 -40.7700 -40.7657 -40.7636 -40.7634
   -40.7634 -40.7634 -40.7628 -40.7628 -40.7591 -40.7540 -40.7539 -40.7539
   -40.7538 -40.7531 -40.7531 -40.7448 -40.7427 -40.7426 -40.7425 -40.7425
   -40.7419 -40.7419 -40.7405 -40.7351 -40.7316 -40.7293 -40.7214 -40.7146
   -40.7131 -40.7131 -40.7129 -40.7129 -40.7129 -40.7129 -40.7129 -40.7129
   -40.7123 -40.7123 -40.7123 -40.7123 -40.7115 -40.7059 -40.7044 -40.7042
   -40.7042 -40.7042 -40.7035 -40.7035 -40.6980 -40.6925 -40.6924 -40.6924
   -40.6924 -40.6922 -40.6920 -40.6919 -40.6919 -40.6919 -40.6919 -40.6919
   -40.6918 -40.6916 -40.6916 -40.6912 -40.6912 -40.6912 -40.6912 -40.6905
   -40.6882 -40.6833 -40.6833 -40.6833 -40.6832 -40.6832 -40.6825 -40.6825
   -40.6780 -40.6751 -40.6636 -40.6616 -40.6615 -40.6615 -40.6614 -40.6614
   -40.6614 -40.6614 -40.6613 -40.6606 -40.6606 -40.6606 -40.6606 -40.6600
   -40.6542 -40.6495 -40.6447 -40.6268 -40.6267 -40.6267 -40.6267 -40.6267
   -40.6267 -40.6267 -40.6267 -40.6258 -40.6258 -40.6258 -40.6258 -40.6205
   -40.6149 -40.6147 -40.6145 -40.6145 -40.6145 -40.6136 -40.6136 -40.6087
   -40.6077 -40.6023 -40.5954 -40.5952 -40.5952 -40.5952 -40.5943 -40.5943
   -40.5842 -40.5822 -40.5783 -40.5782 -40.5782 -40.5782 -40.5773 -40.5773
   -40.5739 -40.5530 -40.5477 -40.5476 -40.5476 -40.5475 -40.5466 -40.5466
   -40.5399 -40.5368 -40.5068 -20.0853 -19.8844 -19.8600 -19.8281 -19.7646
   -19.7343 -19.6547 -19.6408 -19.5340 -19.4570 -19.4227 -19.4043 -19.3348
   -19.3130 -19.2312 -19.2175 -19.1359 -18.8703 -18.8151 -18.7715 -18.7421
   -18.7365 -18.7154 -18.7102 -18.7086 -18.7006 -18.6860 -18.6576 -18.6489
   -18.6380 -18.6313 -18.6164 -18.5908 -18.5753 -18.5666 -18.5469 -18.5437
   -18.5390 -18.5237 -18.5163 -18.5067 -18.4751 -18.4701 -18.4693 -18.4606
   -18.4300 -18.4050 -18.4015 -18.3966 -18.3699 -18.3645 -18.3532 -18.3275
   -18.3138 -18.3103 -18.2884 -18.2500 -18.2420 -18.2392 -18.2266 -18.1923
   -18.1842 -18.1734 -18.1568 -18.1279 -18.1136 -18.1094 -18.1034 -18.0955
   -18.0918 -18.0885 -18.0878 -18.0798 -18.0659 -18.0644 -18.0617 -18.0575
   -18.0562 -18.0474 -18.0444 -18.0408 -18.0346 -18.0316 -18.0205 -18.0016
   -18.0009 -17.9970 -17.9930 -17.9910 -17.9890 -17.9862 -17.9807 -17.9795
   -17.9689 -17.9418 -17.9393 -17.9288 -17.9261 -17.9235 -17.9120 -17.8847
   -17.8831 -17.8775 -17.8670 -17.8436 -17.8400 -17.8367 -17.8319 -17.8271
   -17.8165 -17.8108 -17.8105 -17.8104 -17.8096 -17.8081 -17.8074 -17.7958
   -17.7953 -17.7769 -17.7760 -17.7523 -17.7513 -17.7335 -17.7320 -17.7181
   -17.7174 -17.7102 -17.7100 -12.1578 -11.9325 -11.7503 -11.7214 -11.7010
   -11.6117 -11.5465 -11.5140 -11.4940 -11.4908 -11.4862 -11.4738 -11.4706
   -11.4634 -11.4505 -11.4089 -11.3955 -11.3787 -11.3763 -11.3716 -11.3557
   -11.3297 -11.3170 -11.3115 -11.2931 -11.2757 -11.2720 -11.2651 -11.2585
   -11.2534 -11.2508 -11.2441 -11.2413 -11.2035 -11.1955 -11.1882 -11.1856
   -11.1771 -11.1645 -11.1595 -11.1581 -11.1503 -11.1384 -11.1373 -11.1267
   -11.1125 -11.0917 -11.0765 -11.0693 -11.0580 -11.0539 -11.0195 -10.9863
   -10.9800 -10.9453 -10.9408 -10.9229 -10.9112 -10.9025 -10.9000 -10.8869
   -10.8548 -10.8527 -10.8301 -10.8269 -10.8225 -10.8143 -10.8061 -10.8031
   -10.8026 -10.8009 -10.8006 -10.7948 -10.7918 -10.7871 -10.7866 -10.7828
   -10.7823 -10.7761 -10.7752 -10.7721 -10.7704 -10.7362 -10.7347 -10.7337
   -10.7335 -10.7076 -10.6300 -10.5584 -10.5368 -10.5235 -10.5186 -10.5012
   -10.4776 -10.4262 -10.3955 -10.3447 -10.3333 -10.2520 -10.2401 -10.1580
   -10.1526 -10.1279 -10.1238 -10.1047 -10.1007 -10.0848 -10.0795 -10.0472
   -10.0440 -10.0268 -10.0255 -10.0241 -10.0198 -10.0094 -10.0052  -9.9805
    -9.9704  -9.9286  -9.9238  -9.9199  -9.9111  -9.9042  -9.8915  -9.8843
    -9.8824  -9.8602  -9.8553  -9.8417  -9.8369  -9.8072  -9.7904  -9.7808
    -9.7723  -9.7605  -9.7554  -9.7316  -9.7307  -9.7068  -9.6940  -9.6789
    -9.6751  -9.6515  -9.6486  -9.6264  -9.6113  -9.6099  -9.5992  -9.5923
    -9.5643  -9.5584  -9.5552  -9.5375  -9.5276  -9.5264  -9.5200  -9.4908
    -9.4836  -9.4799  -9.4673  -9.4652  -9.4601  -9.4570  -9.4500  -9.4457
    -9.4407  -9.4258  -9.4178  -9.4008  -9.3840  -9.3525  -9.3471  -9.2939
    -9.2874  -9.2668  -9.2209  -9.2090  -9.2031  -9.1988  -9.1945  -9.1834
    -9.1654  -9.1510  -9.1471  -9.1317  -9.1264  -9.1183  -9.1025  -9.0809
    -9.0666  -9.0531  -9.0436  -9.0342  -9.0328  -9.0253  -9.0217  -8.9972
    -8.9867  -8.9749  -8.9658  -8.9493  -8.9418  -8.9393  -8.9352  -8.9218
    -8.9176  -8.8944  -8.8830  -8.8816  -8.8788  -8.8784  -8.8759  -8.8670
    -8.8638  -8.8599  -8.8582  -8.8559  -8.8512  -8.8493  -8.8442  -8.8418
    -8.8311  -8.8306  -8.8218  -8.8114  -8.8033  -8.7836  -8.7827  -8.7823
    -8.7810  -8.7768  -8.7751  -8.7564  -8.7535  -8.7514  -8.7317  -8.7242
    -8.7221  -8.7199  -8.7100  -8.6949  -8.6528  -8.6489  -8.6380  -8.6168
    -8.5930  -8.5202  -8.4982  -8.4940  -8.4722  -8.4386  -8.4251  -8.4127
    -8.3742  -8.3507  -8.3374  -8.2810  -8.2798  -8.2309  -8.1771  -8.1192
    -8.1184  -8.1170  -8.1097  -8.1092  -8.1001  -8.0980  -8.0954  -8.0610
    -8.0464  -8.0344  -7.9775  -7.9579  -7.9498  -7.9215  -7.8845  -7.8499
    -7.8415  -7.8355  -7.8339  -7.8232  -7.8145  -7.8106  -7.8062  -7.7986
    -7.7946  -7.7932  -7.7900  -7.7882  -7.7851  -7.7818  -7.7757  -7.7721
    -7.7709  -7.7683  -7.7603  -7.7597  -7.7565  -7.7560  -7.7544  -7.7533
    -7.7492  -7.7489  -7.7416  -7.7342  -7.7303  -7.7224  -7.7212  -7.7171
    -7.7141  -7.6954  -7.6885  -7.6877  -7.6871  -7.6853  -7.6598  -7.6575
    -7.6573  -7.6567  -7.6549  -7.6514  -7.6414  -7.6331  -7.6182  -7.6111
    -7.6044  -7.5995  -7.5985  -7.5948  -7.5892  -7.5836  -7.5758  -7.5747
    -7.5559  -7.5549  -7.5536  -7.5470  -7.5457  -7.5408  -7.5297  -7.4885
    -7.4584  -7.4514  -7.4490  -7.4442  -7.4166  -7.4080  -7.3921  -7.3237
    -7.2715  -7.2253  -7.1915  -7.1724  -7.1625  -7.1584  -7.1567  -7.1411
    -7.1177  -7.1077  -7.0974  -7.0945  -7.0795  -7.0708  -7.0485  -7.0351
    -7.0218  -7.0138  -7.0072  -6.9925  -6.9890  -6.9677  -6.9645  -6.9623
    -6.9311  -6.9102  -6.9056  -6.8974  -6.8844  -6.8765  -6.8623  -6.8518
    -6.8487  -6.8311  -6.8260  -6.8011  -6.7773  -6.7652  -6.7548  -6.7392
    -6.7261  -6.6883  -6.6767  -6.6603  -6.6369  -6.6188  -6.6149  -6.6055
    -6.5982  -6.5959  -6.5950  -6.5928  -6.5844  -6.5785  -6.5779  -6.5768
    -6.5739  -6.5698  -6.5694  -6.5693  -6.5691  -6.5448  -6.5241  -6.4810
    -6.4761  -6.4300  -6.4054  -6.3753  -6.3523  -6.3189  -6.3177  -6.3155
    -6.3045  -6.2965  -6.2832  -6.2715  -6.2696  -6.2683  -6.2678  -6.2639
    -6.2628  -6.2555  -6.2439  -6.2356  -6.2229  -6.2216  -6.2101  -6.1951
    -6.1922  -6.1885  -6.1876  -6.1481  -6.0756  -5.9888  -5.9815  -5.9502
    -5.9290  -5.9104  -5.8859  -5.8727  -5.8539  -5.8498  -5.8314  -5.8224
    -5.7027  -5.6797  -5.6057  -5.5862  -5.5553  -5.4703  -5.2673  -5.1435
    -5.0863  -5.0559  -4.5740  -4.0835  -4.0823  -4.0795  -4.0614  -3.9355
    -3.9213  -3.9120  -3.9094  -3.9067  -3.8638  -3.8351  -3.8322  -3.8222
    -3.8178  -3.8039  -3.8013  -3.7893  -3.7886  -3.7835  -3.7451  -3.6998
    -3.6797  -3.6771  -3.6317  -3.6060  -3.5936  -3.5902  -3.5890  -3.5871
    -3.5526  -3.5454  -3.5399  -3.5296  -3.5194  -3.5122  -3.5077  -3.5038
    -3.5001  -3.4847  -3.4749  -3.4737  -3.4666  -3.4627  -3.4615  -3.4570
    -3.4459  -3.4388  -3.4343  -3.4244  -3.4171  -3.4089  -3.4065  -3.3973
    -3.3810  -3.3563  -3.3478  -3.3395  -3.3388  -3.3358  -3.3346  -3.3326
    -3.3270  -3.3032  -3.2974  -3.2878  -3.2838  -3.2765  -3.2736  -3.2694
    -3.2683  -3.2653  -3.2625  -3.2446  -3.2406  -3.2341  -3.2274  -3.2236
    -3.2187  -3.2136  -3.2052  -3.2008  -3.1990  -3.1941  -3.1863  -3.1826
    -3.1726  -3.1651  -3.1620  -3.1587  -3.1510  -3.1510  -3.1496  -3.1389
    -3.1227  -3.0975  -3.0871  -3.0815  -3.0628  -3.0577  -3.0553  -3.0494
    -3.0380  -3.0172  -3.0150  -3.0116  -3.0115  -3.0108  -3.0092  -3.0042
    -3.0030  -2.9997  -2.9946  -2.9918  -2.9825  -2.9807  -2.9770  -2.9713
    -2.9679  -2.9656  -2.9613  -2.9587  -2.9514  -2.9493  -2.9419  -2.9385
    -2.9367  -2.9327  -2.9307  -2.9221  -2.9200  -2.9153  -2.8964  -2.8876
    -2.8781  -2.8764  -2.8748  -2.8684  -2.8647  -2.8540  -2.8378  -2.7867
    -2.7805  -2.7793  -2.7763  -2.7296  -2.7148  -2.7089  -2.6955  -2.6063
    -2.6016  -2.5740  -2.5674  -2.5459  -2.5444  -2.5412  -2.5328  -2.5233
    -2.5186  -2.5166  -2.5140  -2.5120  -2.5034  -2.4073  -2.3953  -2.3908
    -2.3840  -2.3822  -2.3768  -2.3633  -2.3589  -2.3298  -2.3293

          k =-0.5000-0.2887 0.0000 (386352 PWs)   bands (ev):

  -103.1741 -89.0930 -87.2759 -71.5599 -71.5527 -71.5080 -71.4636 -71.4481
   -71.4457 -71.4367 -66.6333 -66.6132 -66.6098 -66.6097 -66.6097 -66.6097
   -66.6084 -66.6084 -66.6079 -66.5991 -66.5991 -66.5990 -66.5990 -66.5978
   -66.5978 -66.5967 -66.5942 -66.5885 -66.5862 -66.5855 -66.5841 -66.5840
   -66.5840 -66.5839 -66.5839 -66.5839 -66.5839 -66.5838 -66.5826 -66.5826
   -66.5826 -66.5826 -66.5796 -66.5795 -66.5795 -66.5795 -66.5785 -66.5782
   -66.5782 -66.5734 -66.5733 -66.5732 -66.5732 -66.5732 -66.5732 -66.5732
   -66.5731 -66.5719 -66.5719 -66.5719 -66.5719 -66.5689 -66.5688 -66.5688
   -66.5688 -66.5675 -66.5675 -66.5667 -66.5620 -66.5570 -66.5444 -66.5329
   -66.5303 -66.5251 -57.4565 -57.4217 -57.2153 -54.9770 -54.9334 -54.6898
   -53.2555 -53.1484 -52.7913 -40.9143 -40.9118 -40.9117 -40.9117 -40.9117
   -40.9117 -40.9117 -40.9117 -40.9117 -40.9111 -40.9111 -40.9111 -40.9111
   -40.9099 -40.9071 -40.9005 -40.8968 -40.8850 -40.8849 -40.8849 -40.8849
   -40.8843 -40.8843 -40.8817 -40.8729 -40.8728 -40.8728 -40.8728 -40.8722
   -40.8722 -40.8607 -40.8367 -40.8222 -40.8222 -40.8222 -40.8222 -40.8221
   -40.8221 -40.8221 -40.8221 -40.8215 -40.8215 -40.8214 -40.8214 -40.8153
   -40.8108 -40.7990 -40.7970 -40.7868 -40.7756 -40.7636 -40.7634 -40.7634
   -40.7634 -40.7628 -40.7628 -40.7613 -40.7554 -40.7540 -40.7539 -40.7539
   -40.7538 -40.7531 -40.7531 -40.7486 -40.7427 -40.7426 -40.7425 -40.7425
   -40.7419 -40.7419 -40.7397 -40.7350 -40.7335 -40.7273 -40.7226 -40.7172
   -40.7131 -40.7131 -40.7130 -40.7130 -40.7129 -40.7129 -40.7129 -40.7129
   -40.7123 -40.7123 -40.7123 -40.7123 -40.7109 -40.7044 -40.7043 -40.7043
   -40.7042 -40.7042 -40.7035 -40.7035 -40.6959 -40.6925 -40.6924 -40.6924
   -40.6924 -40.6920 -40.6920 -40.6920 -40.6920 -40.6919 -40.6919 -40.6919
   -40.6919 -40.6918 -40.6916 -40.6916 -40.6912 -40.6912 -40.6912 -40.6912
   -40.6846 -40.6833 -40.6833 -40.6832 -40.6832 -40.6829 -40.6825 -40.6825
   -40.6797 -40.6760 -40.6634 -40.6617 -40.6617 -40.6615 -40.6615 -40.6614
   -40.6614 -40.6614 -40.6614 -40.6613 -40.6606 -40.6606 -40.6606 -40.6606
   -40.6587 -40.6504 -40.6455 -40.6268 -40.6267 -40.6267 -40.6267 -40.6267
   -40.6267 -40.6267 -40.6267 -40.6259 -40.6258 -40.6258 -40.6258 -40.6258
   -40.6215 -40.6146 -40.6146 -40.6146 -40.6145 -40.6136 -40.6136 -40.6102
   -40.5976 -40.5967 -40.5954 -40.5952 -40.5952 -40.5951 -40.5943 -40.5943
   -40.5879 -40.5853 -40.5783 -40.5782 -40.5782 -40.5782 -40.5773 -40.5773
   -40.5697 -40.5572 -40.5477 -40.5476 -40.5476 -40.5475 -40.5466 -40.5466
   -40.5331 -40.5237 -40.5203 -20.0869 -19.8829 -19.8600 -19.8259 -19.7644
   -19.7324 -19.6545 -19.6401 -19.5373 -19.4608 -19.4229 -19.4065 -19.3349
   -19.3145 -19.2311 -19.2179 -19.1310 -18.8447 -18.8343 -18.7748 -18.7496
   -18.7330 -18.7154 -18.7099 -18.7092 -18.7026 -18.6828 -18.6579 -18.6479
   -18.6402 -18.6294 -18.6157 -18.5912 -18.5730 -18.5667 -18.5460 -18.5458
   -18.5379 -18.5227 -18.5153 -18.5084 -18.4759 -18.4700 -18.4683 -18.4601
   -18.4306 -18.4050 -18.4004 -18.3979 -18.3762 -18.3701 -18.3452 -18.3270
   -18.3155 -18.3110 -18.2803 -18.2528 -18.2450 -18.2388 -18.2247 -18.1923
   -18.1839 -18.1756 -18.1547 -18.1292 -18.1140 -18.1096 -18.1047 -18.0940
   -18.0923 -18.0893 -18.0878 -18.0789 -18.0649 -18.0645 -18.0609 -18.0574
   -18.0572 -18.0484 -18.0447 -18.0410 -18.0344 -18.0311 -18.0219 -18.0021
   -18.0000 -17.9971 -17.9928 -17.9911 -17.9892 -17.9858 -17.9810 -17.9790
   -17.9693 -17.9415 -17.9391 -17.9294 -17.9266 -17.9214 -17.9132 -17.8849
   -17.8833 -17.8765 -17.8681 -17.8444 -17.8399 -17.8365 -17.8313 -17.8260
   -17.8166 -17.8106 -17.8099 -17.8097 -17.8084 -17.8079 -17.8073 -17.7964
   -17.7952 -17.7770 -17.7753 -17.7531 -17.7514 -17.7337 -17.7316 -17.7189
   -17.7173 -17.7107 -17.7105 -12.1715 -11.9155 -11.7360 -11.7104 -11.7039
   -11.6214 -11.5545 -11.5104 -11.4976 -11.4890 -11.4870 -11.4784 -11.4682
   -11.4608 -11.4431 -11.4187 -11.4013 -11.3825 -11.3703 -11.3626 -11.3528
   -11.3313 -11.3222 -11.3114 -11.2974 -11.2772 -11.2745 -11.2621 -11.2581
   -11.2534 -11.2506 -11.2444 -11.2415 -11.2049 -11.1973 -11.1893 -11.1863
   -11.1705 -11.1650 -11.1593 -11.1583 -11.1479 -11.1388 -11.1381 -11.1298
   -11.1150 -11.0954 -11.0754 -11.0634 -11.0592 -11.0542 -11.0255 -11.0027
   -10.9571 -10.9439 -10.9324 -10.9271 -10.9185 -10.9002 -10.8922 -10.8823
   -10.8719 -10.8586 -10.8290 -10.8273 -10.8220 -10.8179 -10.8074 -10.8024
   -10.8016 -10.8007 -10.7998 -10.7983 -10.7907 -10.7882 -10.7867 -10.7837
   -10.7831 -10.7758 -10.7750 -10.7726 -10.7716 -10.7362 -10.7344 -10.7341
   -10.7338 -10.7033 -10.6557 -10.5373 -10.5315 -10.5212 -10.5167 -10.4879
   -10.4648 -10.4138 -10.3866 -10.3747 -10.3589 -10.2576 -10.2451 -10.1616
   -10.1466 -10.1254 -10.1216 -10.1023 -10.0990 -10.0832 -10.0732 -10.0474
   -10.0421 -10.0276 -10.0240 -10.0218 -10.0206 -10.0110 -10.0043  -9.9842
    -9.9658  -9.9352  -9.9232  -9.9188  -9.9045  -9.9002  -9.8902  -9.8820
    -9.8798  -9.8666  -9.8564  -9.8504  -9.8341  -9.8112  -9.7937  -9.7780
    -9.7724  -9.7590  -9.7563  -9.7318  -9.7279  -9.7180  -9.6919  -9.6810
    -9.6746  -9.6517  -9.6467  -9.6204  -9.6110  -9.6074  -9.5980  -9.5915
    -9.5663  -9.5579  -9.5437  -9.5358  -9.5309  -9.5256  -9.5139  -9.4892
    -9.4832  -9.4792  -9.4663  -9.4650  -9.4601  -9.4588  -9.4515  -9.4463
    -9.4375  -9.4251  -9.4153  -9.3969  -9.3813  -9.3579  -9.3454  -9.2933
    -9.2851  -9.2561  -9.2412  -9.2141  -9.2077  -9.1975  -9.1932  -9.1857
    -9.1593  -9.1523  -9.1432  -9.1322  -9.1221  -9.1110  -9.0998  -9.0910
    -9.0810  -9.0548  -9.0405  -9.0339  -9.0331  -9.0246  -9.0216  -9.0028
    -8.9878  -8.9715  -8.9694  -8.9485  -8.9417  -8.9373  -8.9344  -8.9226
    -8.9139  -8.8916  -8.8841  -8.8828  -8.8805  -8.8776  -8.8750  -8.8697
    -8.8613  -8.8601  -8.8569  -8.8545  -8.8524  -8.8483  -8.8460  -8.8422
    -8.8309  -8.8305  -8.8270  -8.8117  -8.8009  -8.7840  -8.7832  -8.7822
    -8.7809  -8.7768  -8.7747  -8.7606  -8.7537  -8.7518  -8.7276  -8.7243
    -8.7219  -8.7191  -8.7109  -8.6920  -8.6562  -8.6459  -8.6389  -8.6274
    -8.5946  -8.5152  -8.5038  -8.4955  -8.4889  -8.4424  -8.4314  -8.4022
    -8.3567  -8.3504  -8.3289  -8.2899  -8.2734  -8.2162  -8.1798  -8.1342
    -8.1183  -8.1180  -8.1095  -8.1088  -8.0983  -8.0979  -8.0836  -8.0642
    -8.0504  -8.0408  -7.9866  -7.9617  -7.9564  -7.9007  -7.8777  -7.8563
    -7.8492  -7.8345  -7.8322  -7.8221  -7.8141  -7.8090  -7.8043  -7.8006
    -7.7958  -7.7929  -7.7891  -7.7884  -7.7840  -7.7805  -7.7743  -7.7724
    -7.7721  -7.7687  -7.7604  -7.7596  -7.7566  -7.7554  -7.7542  -7.7527
    -7.7492  -7.7489  -7.7446  -7.7342  -7.7279  -7.7219  -7.7205  -7.7173
    -7.7145  -7.6933  -7.6880  -7.6876  -7.6870  -7.6863  -7.6599  -7.6579
    -7.6574  -7.6559  -7.6536  -7.6498  -7.6385  -7.6344  -7.6174  -7.6071
    -7.6050  -7.5990  -7.5982  -7.5926  -7.5886  -7.5828  -7.5759  -7.5745
    -7.5594  -7.5549  -7.5544  -7.5470  -7.5455  -7.5384  -7.5258  -7.4867
    -7.4554  -7.4530  -7.4517  -7.4458  -7.4130  -7.4080  -7.3766  -7.3302
    -7.2802  -7.2361  -7.1953  -7.1704  -7.1604  -7.1584  -7.1528  -7.1398
    -7.1218  -7.1125  -7.0987  -7.0931  -7.0804  -7.0711  -7.0491  -7.0446
    -7.0274  -7.0176  -7.0103  -6.9966  -6.9902  -6.9689  -6.9674  -6.9590
    -6.9419  -6.9084  -6.9063  -6.8941  -6.8840  -6.8758  -6.8642  -6.8517
    -6.8500  -6.8285  -6.8189  -6.8040  -6.7751  -6.7626  -6.7452  -6.7388
    -6.7115  -6.6841  -6.6755  -6.6561  -6.6381  -6.6195  -6.6138  -6.6064
    -6.5975  -6.5960  -6.5949  -6.5934  -6.5810  -6.5785  -6.5777  -6.5767
    -6.5705  -6.5699  -6.5693  -6.5691  -6.5642  -6.5428  -6.5142  -6.4829
    -6.4796  -6.4547  -6.4062  -6.3896  -6.3399  -6.3178  -6.3170  -6.3167
    -6.3028  -6.2968  -6.2849  -6.2725  -6.2690  -6.2676  -6.2668  -6.2635
    -6.2628  -6.2539  -6.2438  -6.2350  -6.2281  -6.2182  -6.2128  -6.1954
    -6.1936  -6.1892  -6.1871  -6.1395  -6.0782  -5.9882  -5.9809  -5.9448
    -5.9272  -5.9064  -5.8885  -5.8701  -5.8614  -5.8517  -5.8317  -5.8267
    -5.7057  -5.6824  -5.6053  -5.5875  -5.5498  -5.4689  -5.2688  -5.1501
    -5.0841  -5.0540  -4.5680  -4.0841  -4.0832  -4.0748  -4.0623  -3.9339
    -3.9192  -3.9164  -3.9115  -3.8991  -3.8658  -3.8382  -3.8318  -3.8238
    -3.8164  -3.8044  -3.8003  -3.7893  -3.7882  -3.7869  -3.7475  -3.7038
    -3.6793  -3.6749  -3.6418  -3.6052  -3.5945  -3.5912  -3.5889  -3.5870
    -3.5577  -3.5473  -3.5393  -3.5293  -3.5176  -3.5141  -3.5102  -3.5047
    -3.4990  -3.4873  -3.4766  -3.4733  -3.4654  -3.4638  -3.4620  -3.4534
    -3.4503  -3.4391  -3.4308  -3.4263  -3.4175  -3.4073  -3.4051  -3.3967
    -3.3812  -3.3591  -3.3468  -3.3404  -3.3376  -3.3349  -3.3333  -3.3323
    -3.3284  -3.2991  -3.2968  -3.2900  -3.2812  -3.2764  -3.2726  -3.2693
    -3.2683  -3.2655  -3.2617  -3.2443  -3.2382  -3.2332  -3.2303  -3.2238
    -3.2198  -3.2130  -3.2029  -3.2004  -3.1987  -3.1914  -3.1875  -3.1809
    -3.1703  -3.1671  -3.1626  -3.1585  -3.1512  -3.1510  -3.1507  -3.1402
    -3.1084  -3.0955  -3.0867  -3.0837  -3.0642  -3.0577  -3.0547  -3.0484
    -3.0367  -3.0156  -3.0134  -3.0125  -3.0119  -3.0111  -3.0105  -3.0034
    -3.0011  -2.9993  -2.9965  -2.9930  -2.9863  -2.9805  -2.9791  -2.9696
    -2.9693  -2.9649  -2.9601  -2.9586  -2.9543  -2.9506  -2.9417  -2.9379
    -2.9361  -2.9319  -2.9304  -2.9214  -2.9198  -2.9120  -2.8985  -2.8869
    -2.8826  -2.8765  -2.8702  -2.8674  -2.8644  -2.8583  -2.8472  -2.7869
    -2.7803  -2.7790  -2.7759  -2.7400  -2.7165  -2.7083  -2.6920  -2.6115
    -2.5987  -2.5775  -2.5651  -2.5497  -2.5470  -2.5419  -2.5328  -2.5289
    -2.5170  -2.5155  -2.5143  -2.5092  -2.5007  -2.4062  -2.3946  -2.3917
    -2.3860  -2.3796  -2.3737  -2.3629  -2.3545  -2.3305  -2.3297

          k =-0.5000-0.8660 0.0000 (386352 PWs)   bands (ev):

  -103.1741 -89.0930 -87.2759 -71.5599 -71.5527 -71.5080 -71.4636 -71.4481
   -71.4457 -71.4367 -66.6334 -66.6124 -66.6099 -66.6097 -66.6097 -66.6096
   -66.6084 -66.6084 -66.6068 -66.6008 -66.5991 -66.5991 -66.5990 -66.5990
   -66.5978 -66.5978 -66.5926 -66.5889 -66.5862 -66.5843 -66.5842 -66.5840
   -66.5839 -66.5839 -66.5839 -66.5839 -66.5838 -66.5837 -66.5826 -66.5826
   -66.5826 -66.5826 -66.5797 -66.5795 -66.5795 -66.5794 -66.5785 -66.5782
   -66.5782 -66.5737 -66.5734 -66.5733 -66.5732 -66.5732 -66.5732 -66.5732
   -66.5727 -66.5719 -66.5719 -66.5719 -66.5719 -66.5689 -66.5688 -66.5688
   -66.5688 -66.5675 -66.5675 -66.5666 -66.5622 -66.5571 -66.5447 -66.5327
   -66.5302 -66.5251 -57.4565 -57.4217 -57.2153 -54.9770 -54.9334 -54.6898
   -53.2555 -53.1484 -52.7913 -40.9266 -40.9232 -40.9120 -40.9118 -40.9118
   -40.9117 -40.9117 -40.9117 -40.9117 -40.9113 -40.9111 -40.9111 -40.9111
   -40.9111 -40.8965 -40.8909 -40.8850 -40.8849 -40.8849 -40.8848 -40.8843
   -40.8843 -40.8766 -40.8729 -40.8728 -40.8728 -40.8728 -40.8722 -40.8722
   -40.8677 -40.8658 -40.8527 -40.8222 -40.8222 -40.8222 -40.8222 -40.8221
   -40.8221 -40.8221 -40.8221 -40.8215 -40.8215 -40.8215 -40.8214 -40.8188
   -40.8129 -40.8069 -40.7975 -40.7929 -40.7748 -40.7636 -40.7634 -40.7634
   -40.7634 -40.7628 -40.7628 -40.7627 -40.7540 -40.7539 -40.7539 -40.7539
   -40.7535 -40.7531 -40.7531 -40.7471 -40.7427 -40.7426 -40.7425 -40.7425
   -40.7422 -40.7419 -40.7419 -40.7381 -40.7269 -40.7262 -40.7223 -40.7167
   -40.7133 -40.7132 -40.7129 -40.7129 -40.7129 -40.7129 -40.7128 -40.7127
   -40.7123 -40.7123 -40.7123 -40.7123 -40.7081 -40.7044 -40.7042 -40.7042
   -40.7042 -40.7039 -40.7035 -40.7035 -40.6988 -40.6925 -40.6925 -40.6924
   -40.6924 -40.6924 -40.6923 -40.6921 -40.6919 -40.6919 -40.6919 -40.6919
   -40.6919 -40.6916 -40.6916 -40.6916 -40.6912 -40.6912 -40.6912 -40.6912
   -40.6856 -40.6833 -40.6833 -40.6832 -40.6832 -40.6831 -40.6825 -40.6825
   -40.6770 -40.6745 -40.6638 -40.6633 -40.6618 -40.6617 -40.6614 -40.6614
   -40.6614 -40.6614 -40.6614 -40.6610 -40.6606 -40.6606 -40.6606 -40.6606
   -40.6603 -40.6408 -40.6365 -40.6268 -40.6267 -40.6267 -40.6267 -40.6267
   -40.6267 -40.6267 -40.6267 -40.6258 -40.6258 -40.6258 -40.6258 -40.6224
   -40.6183 -40.6147 -40.6146 -40.6145 -40.6144 -40.6136 -40.6136 -40.6116
   -40.6027 -40.6003 -40.5956 -40.5952 -40.5952 -40.5950 -40.5943 -40.5943
   -40.5853 -40.5816 -40.5783 -40.5782 -40.5782 -40.5782 -40.5773 -40.5773
   -40.5766 -40.5592 -40.5478 -40.5476 -40.5476 -40.5474 -40.5474 -40.5466
   -40.5466 -40.5344 -40.5007 -20.0896 -19.8808 -19.8599 -19.8220 -19.7641
   -19.7290 -19.6544 -19.6390 -19.5419 -19.4672 -19.4230 -19.4091 -19.3350
   -19.3164 -19.2308 -19.2186 -19.1280 -18.8437 -18.8098 -18.7825 -18.7559
   -18.7337 -18.7153 -18.7097 -18.7091 -18.6999 -18.6933 -18.6560 -18.6468
   -18.6381 -18.6325 -18.6173 -18.5797 -18.5771 -18.5635 -18.5458 -18.5406
   -18.5390 -18.5370 -18.5145 -18.4881 -18.4810 -18.4782 -18.4695 -18.4587
   -18.4289 -18.4045 -18.4018 -18.3928 -18.3879 -18.3656 -18.3505 -18.3240
   -18.3157 -18.3080 -18.3042 -18.2555 -18.2373 -18.2296 -18.2245 -18.1984
   -18.1837 -18.1639 -18.1579 -18.1431 -18.1161 -18.1068 -18.1016 -18.0948
   -18.0927 -18.0898 -18.0875 -18.0700 -18.0657 -18.0654 -18.0625 -18.0593
   -18.0565 -18.0535 -18.0402 -18.0392 -18.0335 -18.0290 -18.0230 -18.0045
   -17.9986 -17.9946 -17.9919 -17.9916 -17.9887 -17.9854 -17.9811 -17.9784
   -17.9685 -17.9483 -17.9300 -17.9280 -17.9249 -17.9195 -17.9141 -17.8869
   -17.8794 -17.8734 -17.8693 -17.8442 -17.8413 -17.8341 -17.8318 -17.8268
   -17.8241 -17.8114 -17.8098 -17.8096 -17.8088 -17.8084 -17.8077 -17.7966
   -17.7946 -17.7775 -17.7745 -17.7533 -17.7510 -17.7344 -17.7320 -17.7189
   -17.7179 -17.7105 -17.7104 -12.1877 -11.9506 -11.7239 -11.7159 -11.6627
   -11.5912 -11.5118 -11.5100 -11.4947 -11.4903 -11.4789 -11.4761 -11.4720
   -11.4477 -11.4412 -11.4265 -11.3989 -11.3891 -11.3839 -11.3588 -11.3399
   -11.3328 -11.3286 -11.3097 -11.2970 -11.2883 -11.2836 -11.2676 -11.2548
   -11.2523 -11.2515 -11.2463 -11.2419 -11.2016 -11.1985 -11.1899 -11.1855
   -11.1714 -11.1626 -11.1613 -11.1589 -11.1460 -11.1407 -11.1376 -11.1303
   -11.1162 -11.1062 -11.0880 -11.0667 -11.0634 -11.0443 -11.0327 -10.9941
   -10.9778 -10.9504 -10.9389 -10.9289 -10.9180 -10.8955 -10.8870 -10.8763
   -10.8644 -10.8428 -10.8287 -10.8249 -10.8239 -10.8221 -10.8056 -10.8033
   -10.8025 -10.8011 -10.8006 -10.7962 -10.7928 -10.7891 -10.7876 -10.7828
   -10.7826 -10.7765 -10.7745 -10.7716 -10.7648 -10.7540 -10.7345 -10.7337
   -10.7336 -10.7324 -10.6690 -10.5486 -10.5381 -10.5264 -10.5219 -10.5104
   -10.4785 -10.4450 -10.3827 -10.3467 -10.2720 -10.2428 -10.2052 -10.1816
   -10.1553 -10.1354 -10.1139 -10.1090 -10.1004 -10.0887 -10.0722 -10.0534
   -10.0440 -10.0353 -10.0314 -10.0209 -10.0182 -10.0101 -10.0043 -10.0017
    -9.9713  -9.9389  -9.9360  -9.9179  -9.9121  -9.9076  -9.8981  -9.8924
    -9.8839  -9.8742  -9.8682  -9.8416  -9.8193  -9.8126  -9.7934  -9.7913
    -9.7740  -9.7665  -9.7581  -9.7394  -9.7183  -9.7171  -9.7011  -9.6888
    -9.6648  -9.6558  -9.6534  -9.6231  -9.6203  -9.6069  -9.5961  -9.5717
    -9.5516  -9.5477  -9.5424  -9.5383  -9.5302  -9.5280  -9.5072  -9.4833
    -9.4798  -9.4762  -9.4704  -9.4675  -9.4538  -9.4503  -9.4484  -9.4330
    -9.4252  -9.4197  -9.4179  -9.3718  -9.3603  -9.3367  -9.3243  -9.3048
    -9.2906  -9.2665  -9.2194  -9.2128  -9.2056  -9.1986  -9.1970  -9.1794
    -9.1719  -9.1488  -9.1476  -9.1349  -9.1268  -9.1162  -9.0965  -9.0819
    -9.0659  -9.0577  -9.0548  -9.0368  -9.0353  -9.0272  -9.0192  -9.0048
    -8.9947  -8.9788  -8.9551  -8.9513  -8.9442  -8.9424  -8.9352  -8.9141
    -8.9101  -8.8982  -8.8835  -8.8809  -8.8802  -8.8755  -8.8746  -8.8730
    -8.8715  -8.8693  -8.8598  -8.8588  -8.8494  -8.8447  -8.8388  -8.8360
    -8.8310  -8.8303  -8.8180  -8.8147  -8.8051  -8.7862  -8.7844  -8.7831
    -8.7772  -8.7744  -8.7743  -8.7547  -8.7504  -8.7499  -8.7249  -8.7229
    -8.7220  -8.7198  -8.7080  -8.6957  -8.6596  -8.6466  -8.6341  -8.6236
    -8.5791  -8.5184  -8.4968  -8.4938  -8.4843  -8.4420  -8.4318  -8.3904
    -8.3775  -8.3468  -8.3396  -8.3108  -8.2915  -8.2456  -8.1730  -8.1284
    -8.1183  -8.1178  -8.1093  -8.1088  -8.1009  -8.0981  -8.0964  -8.0618
    -8.0478  -8.0337  -7.9962  -7.9637  -7.9602  -7.9455  -7.9124  -7.8374
    -7.8328  -7.8298  -7.8232  -7.8198  -7.8119  -7.8081  -7.8000  -7.7969
    -7.7950  -7.7922  -7.7883  -7.7853  -7.7837  -7.7809  -7.7777  -7.7726
    -7.7720  -7.7709  -7.7640  -7.7602  -7.7591  -7.7564  -7.7556  -7.7548
    -7.7500  -7.7494  -7.7475  -7.7405  -7.7332  -7.7278  -7.7241  -7.7185
    -7.7131  -7.7091  -7.6991  -7.6875  -7.6868  -7.6860  -7.6857  -7.6576
    -7.6573  -7.6556  -7.6555  -7.6505  -7.6376  -7.6269  -7.6072  -7.6019
    -7.5995  -7.5989  -7.5962  -7.5867  -7.5860  -7.5831  -7.5768  -7.5748
    -7.5551  -7.5545  -7.5520  -7.5472  -7.5380  -7.5327  -7.4996  -7.4678
    -7.4529  -7.4484  -7.4444  -7.4412  -7.4288  -7.4020  -7.3885  -7.3121
    -7.2988  -7.2019  -7.1739  -7.1635  -7.1580  -7.1571  -7.1412  -7.1213
    -7.1152  -7.1058  -7.1000  -7.0863  -7.0830  -7.0696  -7.0443  -7.0335
    -7.0243  -7.0211  -7.0075  -6.9968  -6.9740  -6.9713  -6.9667  -6.9658
    -6.9414  -6.9186  -6.9083  -6.8927  -6.8845  -6.8803  -6.8617  -6.8604
    -6.8522  -6.8377  -6.8340  -6.8081  -6.7757  -6.7720  -6.7490  -6.7453
    -6.7434  -6.6850  -6.6690  -6.6599  -6.6339  -6.6302  -6.6082  -6.6034
    -6.5984  -6.5975  -6.5957  -6.5950  -6.5929  -6.5800  -6.5797  -6.5778
    -6.5774  -6.5703  -6.5702  -6.5692  -6.5690  -6.5466  -6.5373  -6.4939
    -6.4791  -6.4614  -6.4114  -6.3950  -6.3596  -6.3199  -6.3161  -6.3150
    -6.3092  -6.2894  -6.2790  -6.2749  -6.2683  -6.2677  -6.2638  -6.2633
    -6.2618  -6.2501  -6.2443  -6.2326  -6.2197  -6.2136  -6.2062  -6.1955
    -6.1931  -6.1864  -6.1846  -6.1675  -6.0381  -5.9920  -5.9769  -5.9593
    -5.9184  -5.9149  -5.8742  -5.8665  -5.8520  -5.8334  -5.8311  -5.8130
    -5.6864  -5.6590  -5.6104  -5.5848  -5.5805  -5.4859  -5.2693  -5.1510
    -5.0836  -5.0561  -4.5474  -4.0840  -4.0780  -4.0737  -4.0610  -3.9416
    -3.9218  -3.9117  -3.9039  -3.8948  -3.8675  -3.8357  -3.8312  -3.8230
    -3.8152  -3.8048  -3.7992  -3.7913  -3.7883  -3.7869  -3.7643  -3.6951
    -3.6795  -3.6677  -3.6335  -3.6119  -3.5987  -3.5962  -3.5899  -3.5872
    -3.5763  -3.5488  -3.5422  -3.5362  -3.5241  -3.5171  -3.5087  -3.5041
    -3.4980  -3.4798  -3.4775  -3.4755  -3.4670  -3.4639  -3.4631  -3.4563
    -3.4440  -3.4403  -3.4375  -3.4253  -3.4167  -3.4150  -3.4122  -3.4004
    -3.3963  -3.3578  -3.3434  -3.3404  -3.3380  -3.3319  -3.3297  -3.3279
    -3.3253  -3.3132  -3.3026  -3.2866  -3.2824  -3.2753  -3.2709  -3.2680
    -3.2664  -3.2657  -3.2629  -3.2467  -3.2383  -3.2325  -3.2311  -3.2193
    -3.2173  -3.2136  -3.2072  -3.2010  -3.1998  -3.1894  -3.1825  -3.1785
    -3.1708  -3.1658  -3.1644  -3.1565  -3.1510  -3.1510  -3.1496  -3.1314
    -3.1248  -3.0986  -3.0826  -3.0790  -3.0626  -3.0573  -3.0561  -3.0469
    -3.0389  -3.0215  -3.0164  -3.0128  -3.0107  -3.0097  -3.0091  -3.0063
    -3.0008  -2.9986  -2.9947  -2.9933  -2.9870  -2.9809  -2.9765  -2.9726
    -2.9681  -2.9610  -2.9586  -2.9565  -2.9550  -2.9524  -2.9393  -2.9378
    -2.9347  -2.9311  -2.9285  -2.9239  -2.9205  -2.9163  -2.9001  -2.8925
    -2.8866  -2.8718  -2.8695  -2.8667  -2.8620  -2.8462  -2.8368  -2.7880
    -2.7823  -2.7747  -2.7697  -2.7197  -2.7139  -2.7094  -2.7037  -2.6126
    -2.6001  -2.5803  -2.5653  -2.5505  -2.5446  -2.5351  -2.5222  -2.5221
    -2.5179  -2.5154  -2.5131  -2.5098  -2.5012  -2.3986  -2.3945  -2.3913
    -2.3874  -2.3785  -2.3755  -2.3642  -2.3532  -2.3305  -2.3301

     the Fermi energy is    -4.8041 ev

!    total energy              =  -34492.24303448 Ry
     total all-electron energy =   -677498.122721 Ry
     estimated scf accuracy    <       0.00000083 Ry
     smearing contrib. (-TS)   =      -0.00054227 Ry
     internal energy E=F+TS    =  -34492.24249222 Ry

     The total energy is F=E-TS. E is the sum of the following terms:
     one-electron contribution = 1202184.60457584 Ry
     hartree contribution      = -601270.26455199 Ry
     xc contribution           =   -2041.54294707 Ry
     ewald contribution        = -611801.45002017 Ry
     DFT-D3 Dispersion         =      -5.45139101 Ry
     one-center paw contrib.   =  -21558.13815782 Ry

     convergence has been achieved in   6 iterations

     negative rho (up, down):  9.222E-04 0.000E+00

     Forces acting on atoms (cartesian axes, Ry/au):

     atom    1 type  1   force =     0.00000514   -0.00000242    0.00067417
     atom    2 type  1   force =     0.00003636    0.00001810    0.00001788
     atom    3 type  2   force =    -0.00000010   -0.00000547    0.00005049
     atom    4 type  2   force =    -0.00000307    0.00000235    0.00155409
     atom    5 type  2   force =    -0.00000327    0.00000019   -0.00230940
     atom    6 type  2   force =     0.00002124    0.00004044    0.00004047
     atom    7 type  1   force =    -0.00002345    0.00003091   -0.00007593
     atom    8 type  1   force =     0.00009656    0.00015966    0.00028660
     atom    9 type  2   force =    -0.00011677   -0.00033116    0.00090486
     atom   10 type  2   force =    -0.00003066    0.00000457   -0.00014542
     atom   11 type  2   force =     0.00000768    0.00001819    0.00004306
     atom   12 type  2   force =    -0.00020256    0.00097665    0.00058648
     atom   13 type  1   force =     0.00000182   -0.00000033    0.00067291
[...]
     atom  172 type  2   force =     0.00000005   -0.00000006    0.00161413
     atom  173 type  2   force =    -0.00000002   -0.00000049   -0.00236173
     atom  174 type  2   force =     0.00002453    0.00004717    0.00010071
     atom  175 type  1   force =     0.00002572   -0.00005108   -0.00002731
     atom  176 type  1   force =     0.00010568    0.00016047    0.00022318
     atom  177 type  2   force =     0.00019551   -0.00020843   -0.00007705
     atom  178 type  2   force =     0.00003796   -0.00007907   -0.00000897
     atom  179 type  2   force =    -0.00002791   -0.00003927   -0.00008976
     atom  180 type  2   force =    -0.00040641   -0.00028678   -0.00003725
     atom  181 type  1   force =     0.00000193   -0.00000068    0.00068530
     atom  182 type  1   force =     0.00000671    0.00002157    0.00001910
     atom  183 type  2   force =    -0.00000478   -0.00000785   -0.00000004
     atom  184 type  2   force =     0.00000008    0.00000009    0.00161418
     atom  185 type  2   force =    -0.00000011   -0.00000041   -0.00236165
     atom  186 type  2   force =     0.00002501    0.00005106    0.00009871
     atom  187 type  1   force =    -0.00001025   -0.00003496   -0.00005654
     atom  188 type  1   force =    -0.00018772   -0.00018188   -0.00002564
     atom  189 type  2   force =    -0.00033565    0.00012042    0.00014009
     atom  190 type  2   force =     0.00002040   -0.00001956   -0.00008025
     atom  191 type  2   force =    -0.00000881   -0.00005447   -0.00007110
     atom  192 type  2   force =    -0.00007189   -0.00035594    0.00020240
     atom  193 type  3   force =    -0.00012693   -0.00030133   -0.00042026
     atom  194 type  4   force =     0.00012672   -0.00027498    0.00058869
     atom  195 type  4   force =    -0.00019209    0.00021306   -0.00037359

     Total force =     0.003320     Total SCF correction =     0.000555
     SCF correction compared to forces is large: reduce conv_thr to get better values
     Energy error            =      2.7E-05 Ry
     Gradient error          =      8.3E-04 Ry/Bohr

     bfgs converged in  56 scf cycles and  55 bfgs steps
     (criteria: energy <  1.0E-04 Ry, force <  1.0E-03 Ry/Bohr)

     End of BFGS Geometry Optimization

     Final energy             =  -34492.2431788770 Ry

     File ./outdir/pwscf.bfgs deleted, as requested
Begin final coordinates

ATOMIC_POSITIONS (angstrom)
Mo               0.0000119917        1.8193638619       -9.1672481230    0   0   0
Mo               1.5756136568        0.9097075315       -3.0554901653    0   0   0
S                0.0000188998        1.8193822938       -4.6232556019    0   0   0
S                1.5756321638        0.9096773839       -7.6014065489    0   0   0
S                1.5756326175        0.9096785128      -10.7330757790    0   0   0
S                0.0000189190        1.8193860094       -1.4877129945    0   0   0
Mo               0.0061238988        1.8321515738        3.0634451799
Mo               1.5937807657        0.9083097401        9.1705079749
S                0.0124155676        1.8427248013        7.6301725412
S                1.5812978643        0.9221832658        4.6311765579
S                1.5816212852        0.9221619796        1.4958082822
S                0.0055632868        1.7068399024       10.7972590670
Mo              -1.5756053507        4.5484193819       -9.1672481230    0   0   0
Mo               0.0000378379        3.6387394919       -3.0554952701    0   0   0
S               -1.5755913433        4.5484363582       -4.6232494962    0   0   0
S                0.0000148214        3.6387329039       -7.6014065489    0   0   0
S                0.0000152751        3.6387340328      -10.7330757790    0   0   0
S               -1.5755906502        4.5484413613       -1.4877305502    0   0   0
Mo              -1.5689794105        4.5607798998        3.0637867162
Mo              -0.0009174153        3.6220551486        9.2252861453
S               -1.5447901272        4.5495567880        7.6373364952
S                0.0069274343        3.6515709823        4.6317990686
S                0.0059237346        3.6511758103        1.4954282299
S               -1.6433083317        4.5833437441       10.7716734305
Mo              -3.1512226931        7.2774749019       -9.1672481230    0   0   0
Mo              -1.5755910988        6.3678216792       -3.0555115988    0   0   0
S               -3.1512162438        7.2774954350       -4.6232578178    0   0   0
S               -1.5756025210        6.3677884239       -7.6014065489    0   0   0
S               -1.5756020673        6.3677895528      -10.7330757790    0   0   0
S               -3.1512127704        7.2774877076       -1.4877200710    0   0   0
Mo              -3.1447056713        7.2895289417        3.0637338653
Mo              -1.5827749191        6.3862361380        9.1844570996
S               -3.1320233666        7.2797666230        7.5875401062
S               -1.5684718177        6.3798899486        4.6320888222
S               -1.5694220155        6.3799636152        1.4958274903
S               -3.1644857138        7.2983980884       10.7336366197
Mo              -4.7268400355       10.0065304219       -9.1672481230    0   0   0
Mo              -3.1512405618        9.0968403586       -3.0554816746    0   0   0
S               -4.7268341792       10.0065523623       -4.6232463762    0   0   0
S               -3.1512198634        9.0968439439       -7.6014065489    0   0   0
S               -3.1512194097        9.0968450728      -10.7330757790    0   0   0
S               -4.7268370797       10.0065537885       -1.4877176751    0   0   0
Mo              -4.7207552919       10.0187928340        3.0631871601
Mo              -3.1410331388        9.1033559266        9.1526721615
S               -4.7186644440       10.0159430182        7.5882048795
S               -3.1449073299        9.1092031579        4.6307204583
S               -3.1450198601        9.1087442351        1.4955985029
S               -4.7071422126        9.9997244752       10.7305412996
Mo               3.1512517547        1.8193638619       -9.1672481230    0   0   0
Mo               4.7269020221        0.9097289540       -3.0554823951    0   0   0
S                3.1512612351        1.8193882564       -4.6232320683    0   0   0
S                4.7268719268        0.9096773839       -7.6014065489    0   0   0
S                4.7268723805        0.9096785128      -10.7330757790    0   0   0
S                3.1512592485        1.8193890201       -1.4877261251    0   0   0
Mo               3.1571005002        1.8319699864        3.0637039893
Mo               4.7378789165        0.9138559429        9.1518655527
S                3.1596873269        1.8272466466        7.5878949601
S                4.7332092301        0.9220294855        4.6304842545
S                4.7326315375        0.9218902995        1.4956440585
S                3.1776799819        1.8049177210       10.7348833948
Mo               1.5756344123        4.5484193819       -9.1672481230    0   0   0
Mo               3.1512756394        3.6387769522       -3.0554814834    0   0   0
S                1.5756504879        4.5484423799       -4.6232390542    0   0   0
S                3.1512545844        3.6387329039       -7.6014065489    0   0   0
S                3.1512550381        3.6387340328      -10.7330757790    0   0   0
S                1.5756466253        4.5484431864       -1.4877251801    0   0   0
Mo               1.5816629619        4.5609940098        3.0629277672
Mo               3.2031325857        3.6264282907        9.1731960809
S                1.5743084141        4.5717724427        7.6791156808
S                3.1567187904        3.6517790823        4.6317962082
S                3.1572580497        3.6509607690        1.4954929939
S                1.6683791442        4.4829937873       10.7769530897
Mo               0.0000170699        7.2774749019       -9.1672481230    0   0   0
Mo               1.5756764447        6.3678236689       -3.0554877708    0   0   0
S                0.0000381981        7.2774979204       -4.6232454413    0   0   0
S                1.5756372420        6.3677884239       -7.6014065489    0   0   0
S                1.5756376957        6.3677895528      -10.7330757790    0   0   0
S                0.0000328088        7.2774946042       -1.4877307940    0   0   0
Mo               0.0065918105        7.2892684709        3.0633597583
Mo               1.5985756706        6.3973263044        9.2323528643
S                0.0306309065        7.2754216407        7.6465344535
S                1.5821474630        6.3797366470        4.6312641896
S                1.5814197270        6.3798715075        1.4944889358
S               -0.0772006627        7.3611796707       10.7951314810
Mo              -1.5756002725       10.0065304219       -9.1672481230    0   0   0
Mo               0.0000873425        9.0968676911       -3.0554912329    0   0   0
S               -1.5755883952       10.0065504530       -4.6232240150    0   0   0
S                0.0000198996        9.0968439439       -7.6014065489    0   0   0
S                0.0000203533        9.0968450728      -10.7330757790    0   0   0
S               -1.5755859047       10.0065492576       -1.4877362381    0   0   0
Mo              -1.5692631703       10.0185301365        3.0633099619
Mo               0.0073525986        9.1262987558        9.1669856669
S               -1.5628237097       10.0117037214        7.5834623077
S                0.0066114219        9.1084340640        4.6313147066
S                0.0063052984        9.1087257345        1.4956233737
S               -1.5768629676       10.0244561536       10.7271044484
Mo               6.3024915177        1.8193638619       -9.1672481230    0   0   0
Mo               7.8781001445        0.9096521684       -3.0554919963    0   0   0
S                6.3025008696        1.8193826232       -4.6232480596    0   0   0
S                7.8781116898        0.9096773839       -7.6014065489    0   0   0
S                7.8781121435        0.9096785128      -10.7330757790    0   0   0
S                6.3025042007        1.8193849068       -1.4877147524    0   0   0
Mo               6.3088305408        1.8313480423        3.0629705683
Mo               7.8904124225        0.9183157443        9.1583826949
S                6.3162851961        1.8247558461        7.5841344368
S                7.8842777948        0.9215802916        4.6308522778
S                7.8847031919        0.9215656757        1.4955883426
S                6.3149542579        1.8248890034       10.7214945304
Mo               4.7268741753        4.5484193819       -9.1672481230    0   0   0
Mo               6.3024679138        3.6387501714       -3.0554895197    0   0   0
S                4.7268748770        4.5484386753       -4.6232519432    0   0   0
S                6.3024943474        3.6387329039       -7.6014065489    0   0   0
S                6.3024948011        3.6387340328      -10.7330757790    0   0   0
S                4.7268770533        4.5484432419       -1.4877137856    0   0   0
Mo               4.7327672226        4.5605889572        3.0635458417
Mo               6.3206520463        3.6455990540        9.1545483444
S                4.7438095571        4.5621947387        7.5934524668
S                6.3086019871        3.6505317612        4.6307353718
S                6.3086850392        3.6509322751        1.4957134291
S                4.7674875168        4.5496637249       10.7387426373
Mo               3.1512568329        7.2774749019       -9.1672481230    0   0   0
Mo               4.7268384135        6.3678043337       -3.0554959052    0   0   0
S                3.1512606125        7.2774972547       -4.6232589675    0   0   0
S                4.7268770050        6.3677884239       -7.6014065489    0   0   0
S                4.7268774587        6.3677895528      -10.7330757790    0   0   0
S                3.1512629079        7.2774963749       -1.4877081835    0   0   0
Mo               3.1570143168        7.2892800739        3.0625749234
Mo               4.7512247748        6.3737408505        9.1784203406
S                3.1443336302        7.2747593523        7.6442009279
S                4.7324324548        6.3803404895        4.6308849788
S                4.7328920741        6.3795642157        1.4952327123
S                3.2814443655        7.3575613802       10.8334870073
Mo               1.5756394905       10.0065304219       -9.1672481230    0   0   0
Mo               3.1512330605        9.0968514907       -3.0554878870    0   0   0
S                1.5756499830       10.0065443759       -4.6232632674    0   0   0
S                3.1512596626        9.0968439439       -7.6014065489    0   0   0
S                3.1512601163        9.0968450728      -10.7330757790    0   0   0
S                1.5756503041       10.0065459699       -1.4877044377    0   0   0
Mo               1.5820103824       10.0183477592        3.0634681711
Mo               3.1681778144        9.1147537851        9.1757933041
S                1.5925779366       10.0124416388        7.5949617093
S                3.1575540626        9.1080752459        4.6310133971
S                3.1574560949        9.1090652900        1.4953239725
S                1.5845881360       10.0261835701       10.7354686242
Mo               9.4537312807        1.8193638619       -9.1672481230    0   0   0
Mo              11.0293863460        0.9096952246       -3.0554894007    0   0   0
S                9.4537395970        1.8193770750       -4.6232328036    0   0   0
S               11.0293514528        0.9096773839       -7.6014065489    0   0   0
S               11.0293519066        0.9096785128      -10.7330757790    0   0   0
S                9.4537393632        1.8193794783       -1.4877366147    0   0   0
Mo               9.4600241826        1.8316422869        3.0638752012
Mo              11.0355787531        0.9081130762        9.1671138522
S                9.4673256844        1.8252981301        7.5886424295
S               11.0360344296        0.9221756759        4.6314965165
S               11.0352978235        0.9221872671        1.4959223022
S                9.4587334927        1.8247776572       10.7309909521
Mo               7.8781139383        4.5484193819       -9.1672481230    0   0   0
Mo               9.4537539161        3.6387607911       -3.0554933032    0   0   0
S                7.8781175448        4.5484378232       -4.6232366318    0   0   0
S                9.4537341104        3.6387329039       -7.6014065489    0   0   0
S                9.4537345641        3.6387340328      -10.7330757790    0   0   0
S                7.8781194018        4.5484411585       -1.4877377057    0   0   0
Mo               7.8844297725        4.5605217796        3.0636225060
Mo               9.4518427949        3.6411744824        9.1638835177
S                7.8934860175        4.5549426708        7.5833142848
S                9.4605977730        3.6512767203        4.6315470836
S                9.4600964360        3.6509484928        1.4959947963
S                7.8817548275        4.5581720052       10.7269450493
Mo               6.3024965959        7.2774749019       -9.1672481230    0   0   0
Mo               7.8781361655        6.3678242352       -3.0555014130    0   0   0
S                6.3024973331        7.2774953556       -4.6232392528    0   0   0
S                7.8781167680        6.3677884239       -7.6014065489    0   0   0
S                7.8781172217        6.3677895528      -10.7330757790    0   0   0
S                6.3024989866        7.2774929744       -1.4877349119    0   0   0
Mo               6.3084078483        7.2896505411        3.0630127417
Mo               7.8904439132        6.3758290165        9.1534777918
S                6.3075088717        7.2854831659        7.5923171100
S                7.8840698469        6.3802026569        4.6307938404
S                7.8845200622        6.3798370999        1.4957687417
S                6.3349860106        7.2885194876       10.7336785672
Mo               4.7268792535       10.0065304219       -9.1672481230    0   0   0
Mo               6.3025111524        9.0968738021       -3.0554915260    0   0   0
S                4.7268840634       10.0065452125       -4.6232380477    0   0   0
S                6.3024994256        9.0968439439       -7.6014065489    0   0   0
S                6.3024998793        9.0968450728      -10.7330757790    0   0   0
S                4.7268847312       10.0065459141       -1.4877283294    0   0   0
Mo               4.7329950858       10.0187541926        3.0634361384
Mo               6.3146975737        9.1049975316        9.1613675838
S                4.7353942523       10.0121295522        7.5922238325
S                6.3085996088        9.1089444855        4.6305405693
S                6.3084924376        9.1091833763        1.4953483940
S                4.7451791772       10.0152973481       10.7395326614
Pt               1.5779790845        6.3283130608       12.0703908547
Pd               0.0522812776        3.6446820886       12.1555274654
Pd               0.4176632067        5.3118690818       14.1006421647
End final coordinates



     Writing all to output data dir ./outdir/pwscf.save/ :
     XML data file, charge density, pseudopotentials, collected wavefunctions
 
     init_run     :    176.92s CPU    181.45s WALL (       1 calls)
     electrons    :  55066.53s CPU  55674.28s WALL (       5 calls)
     update_pot   :      6.75s CPU      6.98s WALL (       4 calls)
     forces       :    651.83s CPU    663.27s WALL (       5 calls)
     force_dftd3  :      3.46s CPU      3.60s WALL (       5 calls)

     Called by init_run:
     wfcinit      :    152.65s CPU    154.46s WALL (       1 calls)
     potinit      :      1.38s CPU      2.01s WALL (       1 calls)
     hinit0       :     13.10s CPU     13.65s WALL (       1 calls)

     Called by electrons:
     c_bands      :  50417.14s CPU  50856.07s WALL (      65 calls)
     sum_band     :   4164.40s CPU   4251.45s WALL (      65 calls)
     v_of_rho     :     23.25s CPU     26.23s WALL (      65 calls)
     newd         :    409.29s CPU    486.56s WALL (      65 calls)
     PAW_pot      :     60.71s CPU     62.33s WALL (      69 calls)
     mix_rho      :      6.29s CPU      7.88s WALL (      65 calls)
     energy_dftd3 :      1.99s CPU      2.01s WALL (       5 calls)

     Called by c_bands:
     init_us_2    :    140.39s CPU    141.59s WALL (     560 calls)
     init_us_2:cp :    140.39s CPU    141.40s WALL (     560 calls)
     cegterg      :  49803.52s CPU  50236.11s WALL (     287 calls)

     Called by *egterg:
     cdiaghg      :   2745.74s CPU   2843.32s WALL (    4228 calls)
     h_psi        :  24529.92s CPU  24668.76s WALL (    4291 calls)
     s_psi        :   5729.68s CPU   5762.35s WALL (    4291 calls)
     g_psi        :     49.04s CPU     49.21s WALL (    4000 calls)

     Called by h_psi:
     h_psi:calbec :   5541.16s CPU   5557.34s WALL (    4291 calls)
     vloc_psi     :  13120.94s CPU  13182.94s WALL (    4291 calls)
     add_vuspsi   :   5767.57s CPU   5801.42s WALL (    4291 calls)

     General routines
     calbec       :   7273.66s CPU   7296.22s WALL (    4647 calls)
     fft          :     18.32s CPU     20.80s WALL (     899 calls)
     ffts         :      1.25s CPU      1.34s WALL (     130 calls)
     fftw         :   9472.88s CPU   9517.55s WALL ( 2481924 calls)
     interpolate  :      2.02s CPU      2.23s WALL (      65 calls)
 
     Parallel routines
 
     PWSCF        :     15h34m CPU     15h46m WALL

 
   This run was terminated on:  11:23:11   7May2024            

=------------------------------------------------------------------------------=
   JOB DONE.
=------------------------------------------------------------------------------=
