
     Program PWSCF v.7.3 starts on 11Mar2024 at 10:17:43 

     This program is part of the open-source Quantum ESPRESSO suite
     for quantum simulation of materials; please cite
         "P. Giannozzi et al., J. Phys.:Condens. Matter 21 395502 (2009);
         "P. Giannozzi et al., J. Phys.:Condens. Matter 29 465901 (2017);
         "P. Giannozzi et al., J. Chem. Phys. 152 154105 (2020);
          URL http://www.quantum-espresso.org", 
     in publications or presentations arising from this work. More details at
     http://www.quantum-espresso.org/quote

     Parallel version (MPI & OpenMP), running on      36 processor cores
     Number of MPI processes:                36
     Threads/MPI process:                     1

     MPI processes distributed on     1 nodes
     540396 MiB available memory on the printing compute node when the environment starts
 
     Waiting for input...
     Reading input from standard input
Warning: card &CELL ignored
Warning: card / ignored

     Current dimensions of program PWSCF are:
     Max number of different atomic species (ntypx) = 10
     Max number of k-points (npk) =  40000
     Max angular momentum in pseudopotentials (lmaxx) =  4
     file Mo.pbe-spn-kjpaw_psl.1.0.0.UPF: wavefunction(s)  4S 4D renormalized
     file S.pbe-n-kjpaw_psl.1.0.0.UPF: wavefunction(s)  3S 3P renormalized
     file Pd.pbe-spn-kjpaw_psl.1.0.0.UPF: wavefunction(s)  4S 5S 4D renormalized
     file Pt.pbe-spfn-kjpaw_psl.1.0.0.UPF: wavefunction(s)  5P 4F renormalized
 
     R & G space division:  proc/nbgrp/npool/nimage =      36
     Subspace diagonalization in iterative solution of the eigenvalue problem:
     one sub-group per band group will be used
     scalapack distributed-memory algorithm (size of sub-group:  6*  6 procs)

 
     Parallelization info
     --------------------
     sticks:   dense  smooth     PW     G-vecs:    dense   smooth      PW
     Min         586     335     89               165416    71459    9765
     Max         587     337     90               165425    71461    9778
     Sum       21109   12085   3205              5955087  2572543  351657
 
     Using Slab Decomposition
 


     bravais-lattice index     =            0
     lattice parameter (alat)  =      23.8395  a.u.
     unit-cell volume          =   28182.8498 (a.u.)^3
     number of atoms/cell      =          146
     number of atomic types    =            4
     number of electrons       =      1298.00
     number of Kohn-Sham states=          779
     kinetic-energy cutoff     =      77.0000  Ry
     charge density cutoff     =     539.0000  Ry
     scf convergence threshold =      1.0E-06
     mixing beta               =       0.2000
     number of iterations used =            8  plain     mixing
     energy convergence thresh.=      1.0E-04
     force convergence thresh. =      1.0E-03
     Exchange-correlation= SLA  PW   PBX  PBC
                           (   1   4   3   4   0   0   0)
     nstep                     =         1000


     Effective Screening Medium Method
     =================================
     Boundary Conditions: Vacuum-Slab-Vacuum
     total charge in unit cell        =   0.0000
     grid points for fit at edges     =        4 
 

     celldm(1)=  23.839504  celldm(2)=   0.000000  celldm(3)=   0.000000
     celldm(4)=   0.000000  celldm(5)=   0.000000  celldm(6)=   0.000000

     crystal axes: (cart. coord. in units of alat)
               a(1) = (   1.000000   0.000000   0.000000 )  
               a(2) = (  -0.500001   0.866026   0.000000 )  
               a(3) = (   0.000000   0.000000   2.401941 )  

     reciprocal axes: (cart. coord. in units 2 pi/alat)
               b(1) = (  1.000000  0.577351  0.000000 )  
               b(2) = (  0.000000  1.154700  0.000000 )  
               b(3) = (  0.000000  0.000000  0.416330 )  


     PseudoPot. # 1 for Mo read from file:
     ./pseudo/Mo.pbe-spn-kjpaw_psl.1.0.0.UPF
     MD5 check sum: 317bf72632116215fd98f72de1686f13
     Pseudo is Projector augmented-wave + core cor, Zval = 14.0
     Generated using 'atomic' code by A. Dal Corso  v.7.2
     Shape of augmentation charge: PSQ
     Using radial grid of 1229 points,  6 beta functions with: 
                l(1) =   0
                l(2) =   0
                l(3) =   1
                l(4) =   1
                l(5) =   2
                l(6) =   2
     Q(r) pseudized with 0 coefficients 


     PseudoPot. # 2 for S  read from file:
     ./pseudo/S.pbe-n-kjpaw_psl.1.0.0.UPF
     MD5 check sum: 8b7b5302570d38d5e87fed6a1065abda
     Pseudo is Projector augmented-wave + core cor, Zval =  6.0
     Generated using 'atomic' code by A. Dal Corso  v.7.2
     Shape of augmentation charge: PSQ
     Using radial grid of 1151 points,  6 beta functions with: 
                l(1) =   0
                l(2) =   0
                l(3) =   1
                l(4) =   1
                l(5) =   2
                l(6) =   2
     Q(r) pseudized with 0 coefficients 


     PseudoPot. # 3 for Pd read from file:
     ./pseudo/Pd.pbe-spn-kjpaw_psl.1.0.0.UPF
     MD5 check sum: a60571a671f2502b8a6a4569d20a6edb
     Pseudo is Projector augmented-wave + core cor, Zval = 18.0
     Generated using 'atomic' code by A. Dal Corso  v.7.2
     Shape of augmentation charge: PSQ
     Using radial grid of 1235 points,  6 beta functions with: 
                l(1) =   0
                l(2) =   0
                l(3) =   1
                l(4) =   1
                l(5) =   2
                l(6) =   2
     Q(r) pseudized with 0 coefficients 


     PseudoPot. # 4 for Pt read from file:
     ./pseudo/Pt.pbe-spfn-kjpaw_psl.1.0.0.UPF
     MD5 check sum: 620096ebf4e6ebacc94de60fd67efcb5
     Pseudo is Projector augmented-wave + core cor, Zval = 32.0
     Generated using 'atomic' code by A. Dal Corso  v.7.2
     Shape of augmentation charge: PSQ
     Using radial grid of 1277 points,  8 beta functions with: 
                l(1) =   0
                l(2) =   0
                l(3) =   1
                l(4) =   1
                l(5) =   2
                l(6) =   2
                l(7) =   3
                l(8) =   3
     Q(r) pseudized with 0 coefficients 


     atomic species   valence    mass     pseudopotential
     Mo               14.00    95.95000     Mo( 1.00)
     S                 6.00    32.06000     S ( 1.00)
     Pd               18.00   106.42000     Pd( 1.00)
     Pt               32.00   195.08400     Pt( 1.00)

     No symmetry found



   Cartesian axes

     site n.     atom                  positions (alat units)
         1        Mo     tau(   1) = (   0.1244805   0.2154429   0.4826124  )
         2        Mo     tau(   2) = (   0.1250004   0.0721694  -0.4825273  )
         3        Mo     tau(   3) = (   0.0000154   0.1443583  -0.0000534  )
         4        S      tau(   4) = (   0.0000004   0.0000006  -0.6064556  )
         5        S      tau(   5) = (   0.1249822   0.0722030  -0.1241916  )
         6        S      tau(   6) = (   0.0001873   0.1444894   0.3573292  )
         7        S      tau(   7) = (   0.0000004   0.0000005  -0.3584711  )
         8        S      tau(   8) = (   0.1250220   0.0721432   0.1241096  )
         9        S      tau(   9) = (  -0.0009222   0.1433430   0.6062350  )
        10        Mo     tau(  10) = (  -0.0011812   0.4330952   0.4826123  )
        11        Mo     tau(  11) = (   0.0000001   0.2886759  -0.4825273  )
        12        Mo     tau(  12) = (  -0.1249761   0.3608493  -0.0000533  )
        13        S      tau(  13) = (  -0.1249999   0.2165071  -0.6064556  )
        14        S      tau(  14) = (   0.0000232   0.2886904  -0.1241345  )
        15        S      tau(  15) = (  -0.1247753   0.3609305   0.3573291  )
        16        S      tau(  16) = (  -0.1249998   0.2165070  -0.3584711  )
        17        S      tau(  17) = (   0.0000901   0.2887289   0.1242236  )
        18        S      tau(  18) = (  -0.1263226   0.3605428   0.6062351  )
        19        Mo     tau(  19) = (  -0.1251400   0.6495983   0.4819363  )
        20        Mo     tau(  20) = (  -0.1250002   0.5051824  -0.4825273  )
        21        Mo     tau(  21) = (  -0.2500026   0.5773383  -0.0001491  )
        22        S      tau(  22) = (  -0.2500002   0.4330136  -0.6064556  )
        23        S      tau(  23) = (  -0.1249812   0.5051509  -0.1241919  )
        24        S      tau(  24) = (  -0.2500015   0.5775831   0.3575295  )
        25        S      tau(  25) = (  -0.2500001   0.4330135  -0.3584711  )
        26        S      tau(  26) = (  -0.1250129   0.5052153   0.1241101  )
        27        S      tau(  27) = (  -0.2500018   0.5771934   0.6060379  )
        28        Mo     tau(  28) = (   0.2499987  -0.0001601   0.4819365  )
        29        Mo     tau(  29) = (  -0.2500004   0.7216889  -0.4825273  )
        30        Mo     tau(  30) = (  -0.3750135   0.7938631  -0.0001491  )
        31        S      tau(  31) = (  -0.3750004   0.6495201  -0.6064556  )
        32        S      tau(  32) = (  -0.2500026   0.7216883  -0.1242347  )
        33        S      tau(  33) = (  -0.3747997   0.7937400   0.3575295  )
        34        S      tau(  34) = (  -0.3750004   0.6495200  -0.3584711  )
        35        S      tau(  35) = (  -0.2500029   0.7216883   0.1240299  )
        36        S      tau(  36) = (  -0.3751376   0.7939346   0.6060379  )
        37        Mo     tau(  37) = (   0.3755166   0.2154425   0.4826119  )
        38        Mo     tau(  38) = (   0.3750004   0.0721694  -0.4825273  )
        39        Mo     tau(  39) = (   0.2499990   0.1443474  -0.0000968  )
        40        S      tau(  40) = (   0.2500004   0.0000006  -0.6064556  )
        41        S      tau(  41) = (   0.3750152   0.0722028  -0.1241921  )
        42        S      tau(  42) = (   0.2499983   0.1443201   0.3580593  )
        43        S      tau(  43) = (   0.2500004   0.0000005  -0.3584711  )
        44        S      tau(  44) = (   0.3749754   0.0721432   0.1241106  )
        45        S      tau(  45) = (   0.2499987   0.1437775   0.6065499  )
        46        Mo     tau(  46) = (   0.2499984   0.4330123   0.4872880  )
        47        Mo     tau(  47) = (   0.2500001   0.2886759  -0.4825273  )
        48        Mo     tau(  48) = (   0.1250277   0.3608616  -0.0000572  )
        49        S      tau(  49) = (   0.1250001   0.2165071  -0.6064556  )
        50        S      tau(  50) = (   0.2499987   0.2886898  -0.1241693  )
        51        S      tau(  51) = (   0.1266397   0.3617911   0.3615924  )
        52        S      tau(  52) = (   0.1250002   0.2165070  -0.3584711  )
        53        S      tau(  53) = (   0.2499988   0.2886671   0.1241958  )
        54        S      tau(  54) = (   0.1173054   0.3564020   0.6108885  )
        55        Mo     tau(  55) = (   0.1243363   0.6504991   0.4826116  )
        56        Mo     tau(  56) = (   0.1249998   0.5051824  -0.4825273  )
        57        Mo     tau(  57) = (   0.0000060   0.5773464  -0.0000969  )
        58        S      tau(  58) = (  -0.0000002   0.4330136  -0.6064556  )
        59        S      tau(  59) = (   0.1250101   0.5051751  -0.1241696  )
        60        S      tau(  60) = (  -0.0000165   0.5773581   0.3580590  )
        61        S      tau(  61) = (  -0.0000001   0.4330135  -0.3584711  )
        62        S      tau(  62) = (   0.1249907   0.5051868   0.1241956  )
        63        S      tau(  63) = (  -0.0004863   0.5776299   0.6065497  )
        64        Mo     tau(  64) = (   0.5000682   0.0000393   0.4813064  )
        65        Mo     tau(  65) = (  -0.0000004   0.7216889  -0.4825273  )
        66        Mo     tau(  66) = (  -0.1249919   0.7938635  -0.0001489  )
        67        S      tau(  67) = (  -0.1250004   0.6495201  -0.6064556  )
        68        S      tau(  68) = (   0.0000350   0.7216859  -0.1241920  )
        69        S      tau(  69) = (  -0.1252051   0.7937392   0.3575294  )
        70        S      tau(  70) = (  -0.1250004   0.6495200  -0.3584711  )
        71        S      tau(  71) = (  -0.0000364   0.7216812   0.1241103  )
        72        S      tau(  72) = (  -0.1248667   0.7939344   0.6060378  )
        73        Mo     tau(  73) = (   0.6250985   0.2164481   0.4814760  )
        74        Mo     tau(  74) = (   0.6250004   0.0721694  -0.4825273  )
        75        Mo     tau(  75) = (   0.4999807   0.1443583  -0.0000532  )
        76        S      tau(  76) = (   0.5000004   0.0000006  -0.6064556  )
        77        S      tau(  77) = (   0.6249710   0.0721537  -0.1241599  )
        78        S      tau(  78) = (   0.4998101   0.1444887   0.3573287  )
        79        S      tau(  79) = (   0.5000004   0.0000005  -0.3584711  )
        80        S      tau(  80) = (   0.6250072   0.0721744   0.1241160  )
        81        S      tau(  81) = (   0.5009199   0.1433424   0.6062338  )
        82        Mo     tau(  82) = (   0.5011786   0.4330950   0.4826115  )
        83        Mo     tau(  83) = (   0.5000001   0.2886759  -0.4825273  )
        84        Mo     tau(  84) = (   0.3749686   0.3608615  -0.0000573  )
        85        S      tau(  85) = (   0.3750001   0.2165071  -0.6064556  )
        86        S      tau(  86) = (   0.4999725   0.2886900  -0.1241349  )
        87        S      tau(  87) = (   0.3733572   0.3617909   0.3615920  )
        88        S      tau(  88) = (   0.3750002   0.2165070  -0.3584711  )
        89        S      tau(  89) = (   0.4999057   0.2887288   0.1242238  )
        90        S      tau(  90) = (   0.3826919   0.3564018   0.6108876  )
        91        Mo     tau(  91) = (   0.3756598   0.6504996   0.4826113  )
        92        Mo     tau(  92) = (   0.3749998   0.5051824  -0.4825273  )
        93        Mo     tau(  93) = (   0.2499978   0.5773166  -0.0000576  )
        94        S      tau(  94) = (   0.2499998   0.4330136  -0.6064556  )
        95        S      tau(  95) = (   0.3749857   0.5051746  -0.1241697  )
        96        S      tau(  96) = (   0.2499981   0.5754545   0.3615919  )
        97        S      tau(  97) = (   0.2499999   0.4330135  -0.3584711  )
        98        S      tau(  98) = (   0.3750048   0.5051860   0.1241960  )
        99        S      tau(  99) = (   0.2499983   0.5862331   0.6108872  )
       100        Mo     tau( 100) = (   0.7499988   0.0001148   0.4814756  )
       101        Mo     tau( 101) = (   0.2499996   0.7216889  -0.4825273  )
       102        Mo     tau( 102) = (   0.1250062   0.7938321  -0.0000534  )
       103        S      tau( 103) = (   0.1249996   0.6495201  -0.6064556  )
       104        S      tau( 104) = (   0.2499971   0.7216593  -0.1241350  )
       105        S      tau( 105) = (   0.1250350   0.7936175   0.3573284  )
       106        S      tau( 106) = (   0.1249996   0.6495200  -0.3584711  )
       107        S      tau( 107) = (   0.2499972   0.7215818   0.1242234  )
       108        S      tau( 108) = (   0.1245975   0.7951515   0.6062336  )
       109        Mo     tau( 109) = (  -0.1251006   0.2164484   0.4814769  )
       110        Mo     tau( 110) = (   0.8750004   0.0721694  -0.4825273  )
       111        Mo     tau( 111) = (   0.7499976   0.1443379  -0.0001196  )
       112        S      tau( 112) = (   0.7500004   0.0000006  -0.6064556  )
       113        S      tau( 113) = (   0.8750246   0.0721533  -0.1241599  )
       114        S      tau( 114) = (   0.7499994   0.1443376   0.3572937  )
       115        S      tau( 115) = (   0.7500004   0.0000005  -0.3584711  )
       116        S      tau( 116) = (   0.8749884   0.0721739   0.1241157  )
       117        S      tau( 117) = (   0.7499987   0.1443370   0.6058240  )
       118        Mo     tau( 118) = (  -0.2500010   0.4329316   0.4813070  )
       119        Mo     tau( 119) = (   0.7500001   0.2886759  -0.4825273  )
       120        Mo     tau( 120) = (   0.6249710   0.3608493  -0.0000534  )
       121        S      tau( 121) = (   0.6250001   0.2165071  -0.6064556  )
       122        S      tau( 122) = (   0.7499973   0.2887067  -0.1241600  )
       123        S      tau( 123) = (   0.6247737   0.3609305   0.3573287  )
       124        S      tau( 124) = (   0.6250002   0.2165070  -0.3584711  )
       125        S      tau( 125) = (   0.7499971   0.2886649   0.1241160  )
       126        S      tau( 126) = (   0.6263203   0.3605423   0.6062340  )
       127        Mo     tau( 127) = (  -0.3748636   0.6495986   0.4819361  )
       128        Mo     tau( 128) = (   0.6249998   0.5051824  -0.4825273  )
       129        Mo     tau( 129) = (   0.4999891   0.5773453  -0.0000967  )
       130        S      tau( 130) = (   0.4999998   0.4330136  -0.6064556  )
       131        S      tau( 131) = (   0.6249761   0.5051506  -0.1241920  )
       132        S      tau( 132) = (   0.5000130   0.5773585   0.3580587  )
       133        S      tau( 133) = (   0.4999999   0.4330135  -0.3584711  )
       134        S      tau( 134) = (   0.6250081   0.5052147   0.1241104  )
       135        S      tau( 135) = (   0.5004826   0.5776298   0.6065487  )
       136        Mo     tau( 136) = (  -0.0000706   0.0000401   0.4813070  )
       137        Mo     tau( 137) = (   0.4999996   0.7216889  -0.4825273  )
       138        Mo     tau( 138) = (   0.3749881   0.7938314  -0.0000535  )
       139        S      tau( 139) = (   0.3749996   0.6495201  -0.6064556  )
       140        S      tau( 140) = (   0.4999594   0.7216844  -0.1241918  )
       141        S      tau( 141) = (   0.3749610   0.7936184   0.3573285  )
       142        S      tau( 142) = (   0.3749996   0.6495200  -0.3584711  )
       143        S      tau( 143) = (   0.5000310   0.7216802   0.1241101  )
       144        S      tau( 144) = (   0.3753979   0.7951517   0.6062337  )
       145        Pd     tau( 145) = (   0.2499985   0.4330123   0.7148096  )
       146        Pt     tau( 146) = (   0.3754958   0.2154523   0.7298268  )

     --------------------------------------------
     DFT-D3 Dispersion Correction (3-body terms):
     --------------------------------------------
       Reference C6 values for interpolation: 

         atom   Coordination number   C6
         S          0.000           268.01
         S          0.995           261.99
         S          1.990           251.62
         Mo         0.000          1691.79
         Mo         1.942          1004.01
         Mo        11.056           674.22
         Pd         0.000          1217.01
         Pd         1.863           573.90
         Pd         5.710           531.75
         Pt         0.000           782.29
         Pt         1.919           692.72
         Pt         6.667           673.75

       Values used:

         atom   Coordination number  R0_AB[au]  C6      C8
         Mo        10.182            3.547    674.22  77634.20
         Mo        10.189            3.547    674.22  77634.20
         Mo        10.201            3.547    674.22  77634.20
         S          3.753            3.128    251.62  12327.25
         S          3.858            3.128    251.62  12327.25
         S          3.848            3.128    251.62  12327.25
         S          3.859            3.128    251.62  12327.25
         S          3.860            3.128    251.62  12327.25
         S          3.799            3.128    251.62  12327.25
         Mo        10.173            3.547    674.22  77634.20
         Mo        10.189            3.547    674.22  77634.20
         Mo        10.201            3.547    674.22  77634.20
         S          3.753            3.128    251.62  12327.25
         S          3.859            3.128    251.62  12327.25
         S          3.848            3.128    251.62  12327.25
         S          3.858            3.128    251.62  12327.25
         S          3.855            3.128    251.62  12327.25
         S          3.798            3.128    251.62  12327.25
         Mo        10.209            3.547    674.22  77634.20
         Mo        10.189            3.547    674.22  77634.20
         Mo        10.200            3.547    674.22  77634.20
         S          3.753            3.128    251.62  12327.25
         S          3.858            3.128    251.62  12327.25
         S          3.862            3.128    251.62  12327.25
         S          3.859            3.128    251.62  12327.25
         S          3.860            3.128    251.62  12327.25
         S          3.759            3.128    251.62  12327.25
         Mo        10.218            3.547    674.22  77634.20
         Mo        10.189            3.547    674.22  77634.20
         Mo        10.200            3.547    674.22  77634.20
         S          3.753            3.128    251.62  12327.25
         S          3.858            3.128    251.62  12327.25
         S          3.862            3.128    251.62  12327.25
         S          3.859            3.128    251.62  12327.25
         S          3.862            3.128    251.62  12327.25
         S          3.760            3.128    251.62  12327.25
         Mo        10.708            3.547    674.22  77634.20
         Mo        10.189            3.547    674.22  77634.20
         Mo        10.202            3.547    674.22  77634.20
         S          3.753            3.128    251.62  12327.25
         S          3.858            3.128    251.62  12327.25
         S          3.858            3.128    251.62  12327.25
         S          3.859            3.128    251.62  12327.25
         S          3.860            3.128    251.62  12327.25
         S          4.705            3.128    251.62  12327.25
         Mo        10.820            3.547    674.22  77634.20
         Mo        10.189            3.547    674.22  77634.20
         Mo        10.202            3.547    674.22  77634.20
         S          3.753            3.128    251.62  12327.25
         S          3.859            3.128    251.62  12327.25
         S          3.866            3.128    251.62  12327.25
         S          3.859            3.128    251.62  12327.25
         S          3.853            3.128    251.62  12327.25
         S          4.655            3.128    251.62  12327.25
         Mo        10.173            3.547    674.22  77634.20
         Mo        10.189            3.547    674.22  77634.20
         Mo        10.202            3.547    674.22  77634.20
         S          3.753            3.128    251.62  12327.25
         S          3.859            3.128    251.62  12327.25
         S          3.857            3.128    251.62  12327.25
         S          3.859            3.128    251.62  12327.25
         S          3.853            3.128    251.62  12327.25
         S          3.751            3.128    251.62  12327.25
         Mo        10.232            3.547    674.22  77634.20
         Mo        10.189            3.547    674.22  77634.20
         Mo        10.200            3.547    674.22  77634.20
         S          3.753            3.128    251.62  12327.25
         S          3.858            3.128    251.62  12327.25
         S          3.862            3.128    251.62  12327.25
         S          3.859            3.128    251.62  12327.25
         S          3.860            3.128    251.62  12327.25
         S          3.771            3.128    251.62  12327.25
         Mo        10.222            3.547    674.22  77634.20
         Mo        10.189            3.547    674.22  77634.20
         Mo        10.201            3.547    674.22  77634.20
         S          3.753            3.128    251.62  12327.25
         S          3.858            3.128    251.62  12327.25
         S          3.849            3.128    251.62  12327.25
         S          3.859            3.128    251.62  12327.25
         S          3.860            3.128    251.62  12327.25
         S          4.752            3.128    251.62  12327.25
         Mo        10.182            3.547    674.22  77634.20
         Mo        10.189            3.547    674.22  77634.20
         Mo        10.202            3.547    674.22  77634.20
         S          3.753            3.128    251.62  12327.25
         S          3.859            3.128    251.62  12327.25
         S          3.867            3.128    251.62  12327.25
         S          3.859            3.128    251.62  12327.25
         S          3.855            3.128    251.62  12327.25
         S          5.619            3.128    251.62  12327.25
         Mo        10.173            3.547    674.22  77634.20
         Mo        10.189            3.547    674.22  77634.20
         Mo        10.202            3.547    674.22  77634.20
         S          3.753            3.128    251.62  12327.25
         S          3.859            3.128    251.62  12327.25
         S          3.866            3.128    251.62  12327.25
         S          3.859            3.128    251.62  12327.25
         S          3.853            3.128    251.62  12327.25
         S          4.646            3.128    251.62  12327.25
         Mo        10.213            3.547    674.22  77634.20
         Mo        10.189            3.547    674.22  77634.20
         Mo        10.201            3.547    674.22  77634.20
         S          3.753            3.128    251.62  12327.25
         S          3.859            3.128    251.62  12327.25
         S          3.848            3.128    251.62  12327.25
         S          3.859            3.128    251.62  12327.25
         S          3.855            3.128    251.62  12327.25
         S          3.799            3.128    251.62  12327.25
         Mo        10.213            3.547    674.22  77634.20
         Mo        10.189            3.547    674.22  77634.20
         Mo        10.199            3.547    674.22  77634.20
         S          3.753            3.128    251.62  12327.25
         S          3.858            3.128    251.62  12327.25
         S          3.855            3.128    251.62  12327.25
         S          3.858            3.128    251.62  12327.25
         S          3.860            3.128    251.62  12327.25
         S          3.778            3.128    251.62  12327.25
         Mo        10.223            3.547    674.22  77634.20
         Mo        10.189            3.547    674.22  77634.20
         Mo        10.201            3.547    674.22  77634.20
         S          3.753            3.128    251.62  12327.25
         S          3.858            3.128    251.62  12327.25
         S          3.848            3.128    251.62  12327.25
         S          3.858            3.128    251.62  12327.25
         S          3.860            3.128    251.62  12327.25
         S          3.809            3.128    251.62  12327.25
         Mo        10.209            3.547    674.22  77634.20
         Mo        10.189            3.547    674.22  77634.20
         Mo        10.202            3.547    674.22  77634.20
         S          3.753            3.128    251.62  12327.25
         S          3.859            3.128    251.62  12327.25
         S          3.857            3.128    251.62  12327.25
         S          3.859            3.128    251.62  12327.25
         S          3.860            3.128    251.62  12327.25
         S          3.752            3.128    251.62  12327.25
         Mo        10.223            3.547    674.22  77634.20
         Mo        10.189            3.547    674.22  77634.20
         Mo        10.201            3.547    674.22  77634.20
         S          3.753            3.128    251.62  12327.25
         S          3.858            3.128    251.62  12327.25
         S          3.848            3.128    251.62  12327.25
         S          3.859            3.128    251.62  12327.25
         S          3.860            3.128    251.62  12327.25
         S          3.798            3.128    251.62  12327.25
         Pd         4.001            3.168    531.80  48725.77
         Pt         3.754            3.168    692.72  72035.25

         Molecular C6 ( Ry / a.u.^6 ) =   7932928.71


     number of k points=     4  Gaussian smearing, width (Ry)=  0.0100
                       cart. coord. in units 2pi/alat
        k(    1) = (   0.0000000   0.0000000   0.0000000), wk =   0.5000000
        k(    2) = (   0.0000000  -0.5773499   0.0000000), wk =   0.5000000
        k(    3) = (  -0.5000000  -0.2886755   0.0000000), wk =   0.5000000
        k(    4) = (  -0.5000000  -0.8660254   0.0000000), wk =   0.5000000

     Dense  grid:  5955087 G-vectors     FFT dimensions: ( 180, 180, 432)

     Smooth grid:  2572543 G-vectors     FFT dimensions: ( 135, 135, 320)

     Estimated max dynamical RAM per process >       3.07 GB

     Estimated total dynamical RAM >     110.53 GB

     Initial potential from superposition of free atoms

     starting charge    1297.9541, renormalised to    1298.0000

     negative rho (up, down):  9.029E-04 0.000E+00
     Starting wfcs are  891 randomized atomic wfcs
     Checking if some PAW data can be deallocated... 

     total cpu time spent up to now is      100.7 secs

     Self-consistent Calculation

     iteration #  1     ecut=    77.00 Ry     beta= 0.20
     Davidson diagonalization with overlap
     ethr =  1.00E-02,  avg # of iterations =  2.0

     Threshold (ethr) on eigenvalues was too large:
     Diagonalizing with lowered threshold

     Davidson diagonalization with overlap
     ethr =  1.78E-04,  avg # of iterations = 13.8

     negative rho (up, down):  2.837E-04 0.000E+00

     total cpu time spent up to now is     1136.6 secs

     total energy              =  -26031.72361497 Ry
     estimated scf accuracy    <       4.99586923 Ry

     iteration #  2     ecut=    77.00 Ry     beta= 0.20
     Davidson diagonalization with overlap
     ethr =  3.85E-04,  avg # of iterations =  1.5

     negative rho (up, down):  4.290E-05 0.000E+00

     total cpu time spent up to now is     1345.3 secs

     total energy              =  -26030.73407774 Ry
     estimated scf accuracy    <       2.58928287 Ry

     iteration #  3     ecut=    77.00 Ry     beta= 0.20
     Davidson diagonalization with overlap
     ethr =  1.99E-04,  avg # of iterations = 13.8

     negative rho (up, down):  2.995E-05 0.000E+00

     total cpu time spent up to now is     1630.4 secs

     total energy              =  -26031.04791480 Ry
     estimated scf accuracy    <       0.68123500 Ry

     iteration #  4     ecut=    77.00 Ry     beta= 0.20
     Davidson diagonalization with overlap
     c_bands:  3 eigenvalues not converged
     c_bands:  1 eigenvalues not converged
     ethr =  5.25E-05,  avg # of iterations = 19.0

     negative rho (up, down):  3.591E-05 0.000E+00

     total cpu time spent up to now is     2248.7 secs

     total energy              =  -26031.62502782 Ry
     estimated scf accuracy    <       0.26974746 Ry

     iteration #  5     ecut=    77.00 Ry     beta= 0.20
     Davidson diagonalization with overlap
     ethr =  2.08E-05,  avg # of iterations = 25.8

     negative rho (up, down):  7.861E-05 0.000E+00

     total cpu time spent up to now is     2752.4 secs

     total energy              =  -26031.72674707 Ry
     estimated scf accuracy    <       0.14673134 Ry

     iteration #  6     ecut=    77.00 Ry     beta= 0.20
     Davidson diagonalization with overlap
     c_bands:  4 eigenvalues not converged
     ethr =  1.13E-05,  avg # of iterations = 22.5

     negative rho (up, down):  2.503E-04 0.000E+00

     total cpu time spent up to now is     3127.7 secs

     total energy              =  -26031.72264327 Ry
     estimated scf accuracy    <       0.09070582 Ry

     iteration #  7     ecut=    77.00 Ry     beta= 0.20
     Davidson diagonalization with overlap
     c_bands:  1 eigenvalues not converged
     c_bands:  2 eigenvalues not converged
     ethr =  6.99E-06,  avg # of iterations = 25.2

     negative rho (up, down):  6.829E-04 0.000E+00

     total cpu time spent up to now is     3578.9 secs

     total energy              =  -26031.76103312 Ry
     estimated scf accuracy    <       0.04017835 Ry

     iteration #  8     ecut=    77.00 Ry     beta= 0.20
     Davidson diagonalization with overlap
     c_bands:  3 eigenvalues not converged
     c_bands:  4 eigenvalues not converged
     ethr =  3.10E-06,  avg # of iterations = 25.2

     negative rho (up, down):  5.603E-04 0.000E+00

     total cpu time spent up to now is     4104.9 secs

     total energy              =  -26031.77061980 Ry
     estimated scf accuracy    <       0.02727701 Ry

     iteration #  9     ecut=    77.00 Ry     beta= 0.20
     Davidson diagonalization with overlap
     c_bands:  3 eigenvalues not converged
     c_bands:  3 eigenvalues not converged
     c_bands:  2 eigenvalues not converged
     ethr =  2.10E-06,  avg # of iterations = 21.5

     negative rho (up, down):  5.262E-04 0.000E+00

     total cpu time spent up to now is     4450.3 secs

     total energy              =  -26031.77430229 Ry
     estimated scf accuracy    <       0.00368416 Ry

     iteration # 10     ecut=    77.00 Ry     beta= 0.20
     Davidson diagonalization with overlap
     c_bands:  5 eigenvalues not converged
     c_bands:  3 eigenvalues not converged
     ethr =  2.84E-07,  avg # of iterations = 34.5

     negative rho (up, down):  5.587E-04 0.000E+00

     total cpu time spent up to now is     5546.4 secs

     total energy              =  -26031.78477152 Ry
     estimated scf accuracy    <       0.00465646 Ry

     iteration # 11     ecut=    77.00 Ry     beta= 0.20
     Davidson diagonalization with overlap
     c_bands:  3 eigenvalues not converged
     ethr =  2.84E-07,  avg # of iterations =  6.0

     negative rho (up, down):  8.813E-04 0.000E+00

     total cpu time spent up to now is     5768.8 secs

     total energy              =  -26031.78250794 Ry
     estimated scf accuracy    <       0.00315263 Ry

     iteration # 12     ecut=    77.00 Ry     beta= 0.20
     Davidson diagonalization with overlap
     ethr =  2.43E-07,  avg # of iterations =  9.2

     negative rho (up, down):  9.033E-04 0.000E+00

     total cpu time spent up to now is     6214.3 secs

     total energy              =  -26031.78466099 Ry
     estimated scf accuracy    <       0.00249858 Ry

     iteration # 13     ecut=    77.00 Ry     beta= 0.20
     Davidson diagonalization with overlap
     ethr =  1.92E-07,  avg # of iterations =  1.0

     negative rho (up, down):  8.278E-04 0.000E+00

     total cpu time spent up to now is     6414.1 secs

     total energy              =  -26031.78396068 Ry
     estimated scf accuracy    <       0.00121574 Ry

     iteration # 14     ecut=    77.00 Ry     beta= 0.20
     Davidson diagonalization with overlap
     ethr =  9.37E-08,  avg # of iterations =  7.5

     negative rho (up, down):  8.516E-04 0.000E+00

     total cpu time spent up to now is     6686.3 secs

     total energy              =  -26031.78422559 Ry
     estimated scf accuracy    <       0.00005752 Ry

     iteration # 15     ecut=    77.00 Ry     beta= 0.20
     Davidson diagonalization with overlap
     c_bands:  1 eigenvalues not converged
     c_bands:  5 eigenvalues not converged
     ethr =  4.43E-09,  avg # of iterations = 40.2

     negative rho (up, down):  8.719E-04 0.000E+00

     total cpu time spent up to now is     8448.3 secs

     total energy              =  -26031.78459863 Ry
     estimated scf accuracy    <       0.00027022 Ry

     iteration # 16     ecut=    77.00 Ry     beta= 0.20
     Davidson diagonalization with overlap
     ethr =  4.43E-09,  avg # of iterations = 13.2

     negative rho (up, down):  9.155E-04 0.000E+00

     total cpu time spent up to now is     8882.4 secs

     total energy              =  -26031.78466180 Ry
     estimated scf accuracy    <       0.00001500 Ry

     iteration # 17     ecut=    77.00 Ry     beta= 0.20
     Davidson diagonalization with overlap
     c_bands:  4 eigenvalues not converged
     c_bands:  2 eigenvalues not converged
     c_bands:  1 eigenvalues not converged
     c_bands:  2 eigenvalues not converged
     ethr =  1.16E-09,  avg # of iterations = 20.0

     negative rho (up, down):  9.182E-04 0.000E+00

     total cpu time spent up to now is     9935.8 secs

     total energy              =  -26031.78464634 Ry
     estimated scf accuracy    <       0.00032633 Ry

     iteration # 18     ecut=    77.00 Ry     beta= 0.20
     Davidson diagonalization with overlap
     ethr =  1.16E-09,  avg # of iterations =  8.2

     negative rho (up, down):  9.073E-04 0.000E+00

     total cpu time spent up to now is    10359.5 secs

     total energy              =  -26031.78464025 Ry
     estimated scf accuracy    <       0.00008973 Ry

     iteration # 19     ecut=    77.00 Ry     beta= 0.20
     Davidson diagonalization with overlap
     ethr =  1.16E-09,  avg # of iterations = 12.8

     negative rho (up, down):  9.065E-04 0.000E+00

     total cpu time spent up to now is    10799.8 secs

     total energy              =  -26031.78464156 Ry
     estimated scf accuracy    <       0.00001767 Ry

     iteration # 20     ecut=    77.00 Ry     beta= 0.20
     Davidson diagonalization with overlap
     ethr =  1.16E-09,  avg # of iterations = 11.2

     negative rho (up, down):  9.084E-04 0.000E+00

     total cpu time spent up to now is    11254.0 secs

     total energy              =  -26031.78465827 Ry
     estimated scf accuracy    <       0.00000710 Ry

     iteration # 21     ecut=    77.00 Ry     beta= 0.20
     Davidson diagonalization with overlap
     ethr =  5.47E-10,  avg # of iterations = 10.2

     negative rho (up, down):  9.115E-04 0.000E+00

     total cpu time spent up to now is    11525.0 secs

     total energy              =  -26031.78465437 Ry
     estimated scf accuracy    <       0.00000885 Ry

     iteration # 22     ecut=    77.00 Ry     beta= 0.20
     Davidson diagonalization with overlap
     ethr =  5.47E-10,  avg # of iterations =  1.5

     negative rho (up, down):  9.132E-04 0.000E+00

     total cpu time spent up to now is    11731.7 secs

     total energy              =  -26031.78465301 Ry
     estimated scf accuracy    <       0.00000267 Ry

     iteration # 23     ecut=    77.00 Ry     beta= 0.20
     Davidson diagonalization with overlap
     ethr =  2.05E-10,  avg # of iterations =  9.8

     negative rho (up, down):  9.158E-04 0.000E+00

     total cpu time spent up to now is    12049.8 secs

     End of self-consistent calculation

          k = 0.0000 0.0000 0.0000 (321495 PWs)   bands (ev):

  -102.2005 -88.8378 -70.5402 -70.5387 -70.5144 -70.5093 -70.4969 -70.4856
   -70.4737 -66.7285 -66.7074 -66.7074 -66.7074 -66.7073 -66.7073 -66.7073
   -66.6862 -66.6862 -66.6862 -66.6862 -66.6862 -66.6861 -66.6861 -66.6861
   -66.6861 -66.6624 -66.6418 -66.6415 -66.6414 -66.6414 -66.6411 -66.6410
   -66.6208 -66.6206 -66.6204 -66.6202 -66.6202 -66.6201 -66.6199 -66.6198
   -66.6196 -66.5897 -66.5761 -66.5714 -66.5682 -66.5626 -66.5578 -66.5551
   -66.5500 -66.5432 -66.5400 -66.5370 -66.5355 -66.5329 -66.5247 -66.5080
   -66.4965 -56.4941 -56.4179 -56.3749 -54.6620 -54.6525 -54.5767 -41.0548
   -41.0548 -41.0548 -40.9878 -40.9877 -40.9876 -40.9800 -40.9800 -40.9800
   -40.9800 -40.9800 -40.9800 -40.9132 -40.9130 -40.9129 -40.9129 -40.9128
   -40.9127 -40.9083 -40.9064 -40.8999 -40.8885 -40.8545 -40.8545 -40.8545
   -40.8545 -40.8545 -40.8544 -40.8471 -40.8471 -40.8471 -40.8471 -40.8471
   -40.8470 -40.8371 -40.8335 -40.8287 -40.8230 -40.8227 -40.8196 -40.8196
   -40.8196 -40.8196 -40.8196 -40.8196 -40.8188 -40.8167 -40.8054 -40.8054
   -40.8054 -40.8054 -40.8054 -40.8054 -40.8053 -40.8053 -40.8053 -40.7877
   -40.7876 -40.7875 -40.7874 -40.7874 -40.7873 -40.7820 -40.7818 -40.7816
   -40.7816 -40.7813 -40.7812 -40.7586 -40.7529 -40.7528 -40.7528 -40.7527
   -40.7525 -40.7525 -40.7418 -40.7418 -40.7418 -40.7406 -40.7404 -40.7401
   -40.7401 -40.7399 -40.7398 -40.7397 -40.7396 -40.7394 -40.7370 -40.7172
   -40.7142 -40.7136 -40.7125 -40.7083 -40.7069 -40.7044 -40.7005 -40.6991
   -40.6953 -40.6950 -40.6950 -40.6950 -40.6950 -40.6950 -40.6950 -40.6869
   -40.6818 -40.6793 -40.6765 -40.6762 -40.6751 -40.6750 -40.6749 -40.6715
   -40.6689 -40.6673 -40.6670 -40.6650 -40.6608 -40.6584 -40.6563 -40.6556
   -40.6534 -40.6477 -40.6477 -40.6476 -40.6285 -40.6283 -40.6282 -40.6281
   -40.6281 -40.6280 -40.5932 -40.5893 -40.5869 -40.5809 -40.5809 -40.5474
   -40.5419 -40.5400 -40.5374 -40.5353 -40.5300 -40.4906 -40.4839 -20.1720
   -20.1019 -19.9637 -19.5075 -19.3081 -19.2992 -19.2940 -19.2934 -19.2927
   -19.2858 -19.2544 -19.2309 -19.1917 -19.1848 -19.1771 -19.1401 -19.1205
   -19.1124 -19.0813 -19.0685 -19.0481 -18.9142 -18.7687 -18.6818 -18.5656
   -18.5515 -18.5369 -18.5144 -18.4992 -18.4947 -18.4696 -18.4222 -18.4159
   -18.4025 -18.3751 -18.3396 -18.3114 -18.2977 -18.2578 -18.2516 -18.2421
   -18.2001 -18.1902 -18.1886 -18.1880 -18.1879 -18.1876 -18.1876 -18.1855
   -18.1823 -18.1476 -18.1475 -18.1475 -18.1174 -18.1123 -18.1089 -18.1062
   -18.1031 -18.1001 -18.0918 -18.0755 -18.0749 -18.0707 -18.0486 -18.0241
   -18.0172 -18.0101 -18.0062 -18.0039 -17.9927 -17.9885 -17.9869 -17.9761
   -17.9641 -17.9611 -17.9608 -17.9579 -17.9563 -17.9338 -17.9267 -17.9232
   -17.9073 -17.9020 -17.8926 -17.8916 -17.8865 -17.8840 -17.8632 -17.8577
   -17.8500 -17.8290 -17.8168 -17.8116 -17.8070 -17.8023 -17.7955 -12.1060
   -11.9703 -11.8859 -11.8168 -11.8023 -11.8000 -11.7849 -11.7236 -11.7153
   -11.7064 -11.6686 -11.4474 -11.3238 -11.2961 -11.2609 -11.2522 -11.2510
   -11.2458 -11.2301 -11.2137 -11.1897 -11.1783 -11.1763 -11.1757 -11.1695
   -11.1637 -11.1575 -11.0965 -11.0774 -11.0589 -11.0471 -11.0346 -11.0308
   -11.0209 -11.0120 -11.0011 -10.9823 -10.9694 -10.9633 -10.9611 -10.9542
   -10.9469 -10.9182 -10.9135 -10.9019 -10.8862 -10.8836 -10.8813 -10.8783
   -10.8778 -10.8761 -10.8713 -10.8616 -10.8569 -10.8499 -10.8495 -10.8452
   -10.8311 -10.8295 -10.8276 -10.8254 -10.8169 -10.8112 -10.7993 -10.7704
   -10.7683 -10.7561 -10.7293 -10.7239 -10.6874 -10.6783 -10.6729 -10.6490
   -10.6443 -10.6386 -10.4739 -10.2801 -10.2391 -10.0955 -10.0954 -10.0924
   -10.0404  -9.9436  -9.9373  -9.9267  -9.8879  -9.8325  -9.8297  -9.8249
    -9.8221  -9.8192  -9.7974  -9.7824  -9.7681  -9.7530  -9.7441  -9.7405
    -9.7294  -9.7278  -9.7113  -9.6909  -9.6761  -9.6737  -9.6677  -9.6636
    -9.6625  -9.6507  -9.6342  -9.6236  -9.6223  -9.6211  -9.6204  -9.6185
    -9.6176  -9.6027  -9.5845  -9.5772  -9.5668  -9.5552  -9.5526  -9.5134
    -9.5030  -9.4857  -9.4823  -9.4783  -9.4741  -9.4270  -9.4012  -9.3860
    -9.3822  -9.3789  -9.3733  -9.3592  -9.3500  -9.3235  -9.2993  -9.2882
    -9.2669  -9.2493  -9.2448  -9.2392  -9.2337  -9.2310  -9.2222  -9.1523
    -9.1420  -9.1079  -9.0741  -9.0712  -9.0670  -9.0664  -9.0662  -9.0614
    -9.0577  -9.0450  -9.0385  -8.9932  -8.9883  -8.9871  -8.9811  -8.9595
    -8.9263  -8.9119  -8.9019  -8.8906  -8.8613  -8.8544  -8.8495  -8.8457
    -8.8444  -8.8422  -8.8354  -8.8250  -8.7995  -8.7944  -8.7846  -8.7828
    -8.7766  -8.7668  -8.7633  -8.7563  -8.7375  -8.7319  -8.5973  -8.5077
    -8.4876  -8.4775  -8.4774  -8.4050  -8.4050  -8.3662  -8.3655  -8.3653
    -8.3653  -8.3653  -8.3652  -8.3539  -8.3489  -8.3214  -8.3147  -8.2956
    -8.2947  -8.2939  -8.2870  -8.2868  -8.2863  -8.2675  -8.2448  -8.2275
    -8.1675  -8.1078  -8.0736  -7.9889  -7.9754  -7.9715  -7.9310  -7.7465
    -7.7278  -7.7259  -7.6867  -7.6626  -7.6301  -7.6300  -7.6299  -7.6298
    -7.6297  -7.6291  -7.5887  -7.5840  -7.5837  -7.5834  -7.5833  -7.5831
    -7.5825  -7.5696  -7.5650  -7.5582  -7.5571  -7.5518  -7.5491  -7.5408
    -7.5345  -7.5324  -7.5196  -7.5176  -7.5118  -7.5105  -7.5093  -7.5074
    -7.4986  -7.4955  -7.4930  -7.4836  -7.4681  -7.4664  -7.4641  -7.4632
    -7.4599  -7.4515  -7.4208  -7.3974  -7.3486  -7.3486  -7.3285  -7.3108
    -7.2872  -7.2806  -7.2779  -7.2646  -7.2499  -7.2305  -7.2231  -7.1734
    -7.0902  -7.0580  -7.0356  -7.0181  -6.9724  -6.9616  -6.9280  -6.9179
    -6.8784  -6.8715  -6.8476  -6.8444  -6.8383  -6.8027  -6.7451  -6.7158
    -6.7126  -6.7111  -6.6907  -6.6758  -6.6636  -6.6608  -6.6576  -6.6465
    -6.6168  -6.5879  -6.5715  -6.5711  -6.5665  -6.5626  -6.5587  -6.5547
    -6.5462  -6.5271  -6.5221  -6.5109  -6.5031  -6.4947  -6.4817  -6.4685
    -6.4664  -6.4631  -6.4577  -6.4151  -6.4030  -6.3966  -6.3965  -6.3965
    -6.3965  -6.3965  -6.3965  -6.3684  -6.3531  -6.3234  -6.3204  -6.3199
    -6.3185  -6.3181  -6.3160  -6.2972  -6.2828  -6.2624  -6.2307  -6.2200
    -6.1397  -6.0042  -5.8421  -5.7701  -5.5466  -5.4543  -5.3388  -5.3119
    -5.1719  -4.3358  -3.9147  -3.8825  -3.8788  -3.8762  -3.8757  -3.8569
    -3.8512  -3.8478  -3.8473  -3.8443  -3.8429  -3.8262  -3.7386  -3.6533
    -3.6462  -3.6315  -3.6277  -3.6247  -3.6166  -3.6125  -3.6112  -3.6066
    -3.6030  -3.5372  -3.5371  -3.5371  -3.5210  -3.5200  -3.5190  -3.5186
    -3.5179  -3.5172  -3.4864  -3.4700  -3.4697  -3.4696  -3.4459  -3.4295
    -3.4268  -3.4206  -3.4196  -3.4145  -3.4111  -3.4093  -3.4063  -3.4040
    -3.4011  -3.3898  -3.3845  -3.3816  -3.3730  -3.3473  -3.3263  -3.3165
    -3.3077  -3.3026  -3.2890  -3.2761  -3.2694  -3.2619  -3.2538  -3.2164
    -3.0738  -3.0716  -3.0712  -3.0689  -3.0658  -3.0656  -3.0033  -2.9995
    -2.9989  -2.9984  -2.9980  -2.9978  -2.9977  -2.9975  -2.9961  -2.9778
    -2.9776  -2.9762  -2.9622  -2.9580  -2.9431  -2.9396  -2.9335  -2.9316
    -2.9297  -2.9270  -2.9245  -2.9243  -2.9149  -2.9121  -2.9031  -2.8973
    -2.8916  -2.8649  -2.8499  -2.8408  -2.8314  -2.8275  -2.8153  -2.8099
    -2.8077  -2.7928  -2.7862  -2.7847  -2.7826  -2.7798  -2.7779  -2.7515
    -2.7405  -2.7381  -2.7063  -2.6925  -2.6757  -2.6726  -2.6679  -2.6510
    -2.6395  -2.5920  -2.5788  -2.5748  -2.5703  -2.5516  -2.5233  -2.5105
    -2.4985  -2.4957  -2.4880

          k = 0.0000-0.5773 0.0000 (321564 PWs)   bands (ev):

  -102.2005 -88.8378 -70.5402 -70.5387 -70.5144 -70.5093 -70.4969 -70.4856
   -70.4736 -66.7223 -66.7223 -66.7117 -66.7117 -66.6968 -66.6968 -66.6968
   -66.6968 -66.6924 -66.6924 -66.6862 -66.6862 -66.6861 -66.6861 -66.6818
   -66.6818 -66.6565 -66.6560 -66.6458 -66.6457 -66.6309 -66.6308 -66.6308
   -66.6306 -66.6266 -66.6261 -66.6205 -66.6205 -66.6200 -66.6197 -66.6158
   -66.6157 -66.5875 -66.5815 -66.5700 -66.5655 -66.5625 -66.5591 -66.5557
   -66.5486 -66.5420 -66.5403 -66.5377 -66.5368 -66.5321 -66.5247 -66.5081
   -66.4965 -56.4941 -56.4179 -56.3749 -54.6620 -54.6526 -54.5767 -41.0234
   -41.0234 -41.0234 -41.0234 -40.9968 -40.9968 -40.9849 -40.9849 -40.9566
   -40.9565 -40.9561 -40.9560 -40.9344 -40.9344 -40.9344 -40.9344 -40.9299
   -40.9295 -40.9178 -40.9177 -40.8841 -40.8764 -40.8764 -40.8749 -40.8687
   -40.8674 -40.8674 -40.8673 -40.8673 -40.8665 -40.8665 -40.8663 -40.8557
   -40.8557 -40.8556 -40.8487 -40.8318 -40.8263 -40.8263 -40.8263 -40.8263
   -40.8176 -40.8176 -40.8135 -40.8111 -40.8107 -40.8055 -40.8055 -40.8054
   -40.8054 -40.8053 -40.8053 -40.7996 -40.7995 -40.7967 -40.7967 -40.7902
   -40.7902 -40.7865 -40.7777 -40.7747 -40.7747 -40.7747 -40.7747 -40.7741
   -40.7739 -40.7609 -40.7609 -40.7608 -40.7607 -40.7530 -40.7524 -40.7519
   -40.7403 -40.7402 -40.7402 -40.7402 -40.7402 -40.7402 -40.7398 -40.7395
   -40.7386 -40.7385 -40.7378 -40.7342 -40.7314 -40.7313 -40.7282 -40.7281
   -40.7190 -40.7146 -40.7098 -40.7090 -40.7090 -40.7081 -40.7080 -40.7078
   -40.7075 -40.6995 -40.6941 -40.6921 -40.6921 -40.6908 -40.6884 -40.6867
   -40.6748 -40.6739 -40.6735 -40.6734 -40.6733 -40.6733 -40.6699 -40.6637
   -40.6616 -40.6616 -40.6616 -40.6611 -40.6588 -40.6569 -40.6557 -40.6518
   -40.6465 -40.6424 -40.6419 -40.6287 -40.6275 -40.6253 -40.6252 -40.6218
   -40.6176 -40.5951 -40.5946 -40.5926 -40.5868 -40.5835 -40.5802 -40.5761
   -40.5641 -40.5600 -40.5502 -40.5320 -40.5225 -40.5127 -40.4961 -19.9897
   -19.9240 -19.9040 -19.8127 -19.7464 -19.6910 -19.4991 -19.4905 -19.4452
   -19.3955 -19.3151 -19.2820 -19.0095 -18.8563 -18.8014 -18.7845 -18.7814
   -18.7804 -18.7764 -18.7515 -18.7378 -18.7035 -18.6719 -18.6548 -18.6432
   -18.6413 -18.6188 -18.5894 -18.5851 -18.5774 -18.5342 -18.5324 -18.5061
   -18.4946 -18.4629 -18.4464 -18.4367 -18.4321 -18.4149 -18.3525 -18.3420
   -18.3247 -18.2898 -18.2717 -18.2630 -18.2557 -18.2228 -18.2117 -18.1842
   -18.1690 -18.1682 -18.1680 -18.1680 -18.1666 -18.1438 -18.1410 -18.1139
   -18.1066 -18.0958 -18.0922 -18.0904 -18.0855 -18.0779 -18.0662 -18.0405
   -18.0320 -18.0223 -18.0187 -18.0125 -18.0060 -17.9867 -17.9826 -17.9771
   -17.9697 -17.9619 -17.9513 -17.9228 -17.9196 -17.9062 -17.9047 -17.9047
   -17.8972 -17.8564 -17.8542 -17.8448 -17.8447 -17.8354 -17.8286 -17.8282
   -17.8129 -17.7983 -17.7870 -17.7832 -17.7720 -17.7252 -17.7151 -12.0151
   -11.7834 -11.7183 -11.6914 -11.5854 -11.5168 -11.5161 -11.5128 -11.5114
   -11.4978 -11.4858 -11.4739 -11.4513 -11.4316 -11.4211 -11.4155 -11.4082
   -11.3790 -11.3601 -11.3512 -11.3426 -11.3235 -11.3223 -11.2975 -11.2975
   -11.2960 -11.2753 -11.2517 -11.2515 -11.2319 -11.2001 -11.1984 -11.1929
   -11.1915 -11.1474 -11.0827 -11.0408 -11.0264 -11.0119 -11.0058 -10.9884
   -10.9585 -10.9539 -10.9490 -10.9404 -10.9370 -10.9094 -10.8973 -10.8861
   -10.8751 -10.8710 -10.8705 -10.8698 -10.8662 -10.8609 -10.8532 -10.8350
   -10.8197 -10.8181 -10.8094 -10.8008 -10.7973 -10.7839 -10.7711 -10.6400
   -10.6222 -10.6091 -10.5342 -10.5303 -10.4762 -10.4184 -10.3859 -10.3442
   -10.2923 -10.2402 -10.2044 -10.1700 -10.1563 -10.1557 -10.1476 -10.0997
   -10.0686 -10.0578 -10.0442 -10.0031  -9.9798  -9.9786  -9.9757  -9.9732
    -9.9637  -9.9563  -9.9414  -9.9351  -9.9323  -9.9205  -9.8932  -9.8451
    -9.8277  -9.8034  -9.7980  -9.7917  -9.7909  -9.7705  -9.7664  -9.7514
    -9.7494  -9.7388  -9.7335  -9.7057  -9.6965  -9.6867  -9.6736  -9.6611
    -9.6528  -9.6497  -9.6383  -9.5935  -9.5818  -9.5716  -9.5692  -9.5575
    -9.5526  -9.5108  -9.5098  -9.4985  -9.4693  -9.4008  -9.3629  -9.3476
    -9.3196  -9.2982  -9.2484  -9.2319  -9.2146  -9.2052  -9.1999  -9.1829
    -9.1746  -9.1687  -9.1642  -9.1470  -9.1205  -9.1106  -9.0943  -9.0839
    -9.0674  -9.0586  -9.0522  -9.0397  -9.0259  -9.0130  -9.0089  -8.9977
    -8.9938  -8.9863  -8.9820  -8.9721  -8.9719  -8.9651  -8.9547  -8.9356
    -8.9262  -8.9084  -8.8980  -8.8956  -8.8935  -8.8821  -8.8801  -8.8787
    -8.8764  -8.8673  -8.8562  -8.8505  -8.8413  -8.8288  -8.8213  -8.8058
    -8.8026  -8.7902  -8.7802  -8.7579  -8.7423  -8.6541  -8.5630  -8.5531
    -8.5504  -8.5269  -8.4705  -8.4699  -8.4611  -8.3949  -8.3731  -8.2831
    -8.2339  -8.2338  -8.2231  -8.2048  -8.1621  -8.1617  -8.1453  -8.0988
    -8.0870  -8.0551  -7.9821  -7.9734  -7.9684  -7.9247  -7.9064  -7.9031
    -7.8956  -7.8920  -7.8872  -7.8871  -7.8866  -7.8814  -7.8781  -7.8584
    -7.8448  -7.8411  -7.8406  -7.8385  -7.8303  -7.8181  -7.8164  -7.8055
    -7.7989  -7.7922  -7.7864  -7.7792  -7.7738  -7.7678  -7.7660  -7.7593
    -7.7567  -7.7415  -7.7327  -7.7254  -7.7219  -7.7056  -7.7019  -7.7018
    -7.6914  -7.6893  -7.6741  -7.6646  -7.6553  -7.6459  -7.6367  -7.6319
    -7.6171  -7.6151  -7.5899  -7.5812  -7.5574  -7.5497  -7.5251  -7.5011
    -7.4806  -7.4105  -7.3424  -7.3059  -7.2914  -7.2815  -7.2652  -7.2550
    -7.2381  -7.1908  -7.1707  -7.1539  -7.1512  -7.0996  -7.0852  -7.0702
    -7.0561  -7.0492  -7.0473  -7.0310  -6.9913  -6.9858  -6.9780  -6.9584
    -6.9424  -6.9246  -6.9085  -6.9047  -6.8737  -6.8664  -6.8567  -6.8110
    -6.7617  -6.7507  -6.7420  -6.7082  -6.6989  -6.6989  -6.6988  -6.6987
    -6.6857  -6.6590  -6.6409  -6.6320  -6.6301  -6.6292  -6.6280  -6.6103
    -6.5937  -6.5795  -6.5327  -6.5232  -6.4900  -6.4722  -6.4518  -6.4408
    -6.3753  -6.3673  -6.3671  -6.3665  -6.3630  -6.3081  -6.3029  -6.2893
    -6.2883  -6.2839  -6.2814  -6.2741  -6.2510  -6.2431  -6.2369  -6.1959
    -6.1749  -6.0609  -6.0187  -6.0187  -5.9528  -5.9437  -5.9303  -5.9263
    -5.8525  -5.7858  -5.6936  -5.6826  -5.6143  -5.5751  -5.4183  -5.3417
    -5.2874  -4.3511  -4.0658  -4.0578  -4.0544  -4.0326  -3.9342  -3.9342
    -3.9172  -3.8974  -3.8695  -3.8693  -3.8473  -3.8139  -3.8073  -3.8011
    -3.7923  -3.7621  -3.7195  -3.6617  -3.6423  -3.6366  -3.6341  -3.6318
    -3.6196  -3.6194  -3.6122  -3.5860  -3.5819  -3.5504  -3.5409  -3.5399
    -3.5290  -3.5180  -3.5152  -3.5105  -3.5048  -3.5014  -3.4980  -3.4505
    -3.4404  -3.4311  -3.4149  -3.3965  -3.3904  -3.3871  -3.3869  -3.3759
    -3.3588  -3.3552  -3.3462  -3.3433  -3.3374  -3.3126  -3.3106  -3.3104
    -3.3097  -3.3088  -3.2816  -3.2755  -3.2709  -3.2665  -3.2561  -3.2430
    -3.2421  -3.2323  -3.2270  -3.2204  -3.2177  -3.1918  -3.1714  -3.1540
    -3.1476  -3.1410  -3.1141  -3.1072  -3.1060  -3.0747  -3.0679  -3.0656
    -3.0650  -3.0476  -3.0473  -3.0470  -3.0470  -3.0123  -3.0038  -2.9984
    -2.9975  -2.9839  -2.9702  -2.9607  -2.9571  -2.9531  -2.9518  -2.9369
    -2.9304  -2.9254  -2.9181  -2.9121  -2.9017  -2.8919  -2.8755  -2.8633
    -2.8582  -2.8459  -2.8382  -2.8363  -2.8333  -2.7678  -2.7667  -2.7395
    -2.7357  -2.7018  -2.6911  -2.6846  -2.6832  -2.6667  -2.6656  -2.6042
    -2.6006  -2.5894  -2.5503  -2.5343  -2.5273  -2.5252  -2.5068  -2.4762
    -2.4038  -2.3756  -2.3321

          k =-0.5000-0.2887 0.0000 (321564 PWs)   bands (ev):

  -102.2005 -88.8378 -70.5402 -70.5387 -70.5144 -70.5093 -70.4969 -70.4856
   -70.4737 -66.7223 -66.7223 -66.7117 -66.7117 -66.6968 -66.6968 -66.6968
   -66.6968 -66.6924 -66.6924 -66.6862 -66.6862 -66.6862 -66.6861 -66.6818
   -66.6818 -66.6565 -66.6561 -66.6458 -66.6457 -66.6309 -66.6309 -66.6307
   -66.6306 -66.6265 -66.6262 -66.6206 -66.6202 -66.6200 -66.6199 -66.6158
   -66.6157 -66.5885 -66.5774 -66.5736 -66.5678 -66.5619 -66.5564 -66.5550
   -66.5493 -66.5430 -66.5397 -66.5379 -66.5351 -66.5341 -66.5244 -66.5080
   -66.4965 -56.4941 -56.4179 -56.3749 -54.6620 -54.6525 -54.5767 -41.0234
   -41.0234 -41.0234 -41.0234 -40.9968 -40.9968 -40.9849 -40.9849 -40.9567
   -40.9563 -40.9561 -40.9561 -40.9344 -40.9344 -40.9344 -40.9344 -40.9298
   -40.9295 -40.9178 -40.9177 -40.8919 -40.8764 -40.8764 -40.8757 -40.8675
   -40.8674 -40.8674 -40.8673 -40.8665 -40.8665 -40.8643 -40.8580 -40.8557
   -40.8557 -40.8505 -40.8452 -40.8333 -40.8263 -40.8263 -40.8263 -40.8263
   -40.8239 -40.8176 -40.8176 -40.8111 -40.8107 -40.8055 -40.8055 -40.8054
   -40.8054 -40.8054 -40.8053 -40.7996 -40.7995 -40.7967 -40.7967 -40.7902
   -40.7902 -40.7857 -40.7824 -40.7788 -40.7747 -40.7747 -40.7747 -40.7747
   -40.7729 -40.7610 -40.7609 -40.7607 -40.7607 -40.7523 -40.7520 -40.7509
   -40.7450 -40.7404 -40.7402 -40.7402 -40.7402 -40.7402 -40.7399 -40.7397
   -40.7397 -40.7386 -40.7385 -40.7313 -40.7313 -40.7282 -40.7281 -40.7259
   -40.7179 -40.7121 -40.7090 -40.7090 -40.7088 -40.7080 -40.7080 -40.7078
   -40.7077 -40.7065 -40.6935 -40.6921 -40.6921 -40.6911 -40.6848 -40.6824
   -40.6770 -40.6735 -40.6734 -40.6733 -40.6733 -40.6727 -40.6702 -40.6669
   -40.6616 -40.6616 -40.6615 -40.6611 -40.6604 -40.6554 -40.6535 -40.6486
   -40.6465 -40.6423 -40.6420 -40.6347 -40.6265 -40.6253 -40.6252 -40.6198
   -40.6113 -40.5950 -40.5947 -40.5919 -40.5856 -40.5850 -40.5816 -40.5798
   -40.5616 -40.5577 -40.5536 -40.5354 -40.5284 -40.5130 -40.4897 -19.9938
   -19.9236 -19.9045 -19.8078 -19.7460 -19.6830 -19.4991 -19.4918 -19.4444
   -19.4057 -19.3148 -19.2906 -19.0124 -18.8346 -18.7924 -18.7903 -18.7825
   -18.7801 -18.7762 -18.7552 -18.7328 -18.7060 -18.6746 -18.6530 -18.6456
   -18.6370 -18.6281 -18.5885 -18.5795 -18.5771 -18.5342 -18.5325 -18.5061
   -18.4887 -18.4597 -18.4519 -18.4398 -18.4327 -18.4038 -18.3722 -18.3412
   -18.3136 -18.3069 -18.2733 -18.2590 -18.2562 -18.2338 -18.2111 -18.1837
   -18.1682 -18.1682 -18.1680 -18.1679 -18.1610 -18.1488 -18.1394 -18.1261
   -18.1043 -18.0928 -18.0918 -18.0884 -18.0866 -18.0821 -18.0525 -18.0478
   -18.0309 -18.0263 -18.0159 -18.0087 -18.0075 -17.9886 -17.9804 -17.9736
   -17.9645 -17.9627 -17.9474 -17.9285 -17.9155 -17.9047 -17.9047 -17.8998
   -17.8973 -17.8614 -17.8500 -17.8450 -17.8448 -17.8290 -17.8284 -17.8197
   -17.8169 -17.8023 -17.7913 -17.7840 -17.7785 -17.7215 -17.7195 -12.0349
   -11.7905 -11.7176 -11.6813 -11.5794 -11.5156 -11.5154 -11.5131 -11.5113
   -11.4945 -11.4901 -11.4605 -11.4349 -11.4323 -11.4165 -11.4139 -11.3989
   -11.3731 -11.3508 -11.3415 -11.3350 -11.3316 -11.3222 -11.3056 -11.2975
   -11.2975 -11.2680 -11.2521 -11.2518 -11.2384 -11.2100 -11.1962 -11.1916
   -11.1910 -11.1527 -11.0953 -11.0335 -11.0249 -11.0126 -11.0025 -10.9916
   -10.9654 -10.9550 -10.9522 -10.9390 -10.9255 -10.9213 -10.8938 -10.8843
   -10.8786 -10.8717 -10.8714 -10.8694 -10.8687 -10.8666 -10.8657 -10.8366
   -10.8306 -10.8109 -10.8063 -10.8020 -10.7945 -10.7825 -10.7299 -10.6763
   -10.6272 -10.6072 -10.5495 -10.5308 -10.5039 -10.4161 -10.3917 -10.3754
   -10.2733 -10.2104 -10.1699 -10.1678 -10.1626 -10.1514 -10.1148 -10.0975
   -10.0807 -10.0732 -10.0157 -10.0049 -10.0022  -9.9785  -9.9761  -9.9688
    -9.9661  -9.9601  -9.9487  -9.9381  -9.9321  -9.9236  -9.9147  -9.8527
    -9.8316  -9.8206  -9.8167  -9.7920  -9.7872  -9.7753  -9.7594  -9.7536
    -9.7512  -9.7423  -9.7375  -9.7041  -9.6995  -9.6816  -9.6780  -9.6744
    -9.6529  -9.6494  -9.6374  -9.6234  -9.5789  -9.5716  -9.5686  -9.5565
    -9.5408  -9.5106  -9.5094  -9.4866  -9.4704  -9.3768  -9.3705  -9.3197
    -9.3053  -9.2618  -9.2388  -9.2360  -9.2279  -9.1996  -9.1824  -9.1759
    -9.1681  -9.1670  -9.1649  -9.1321  -9.1211  -9.1173  -9.0965  -9.0787
    -9.0730  -9.0561  -9.0540  -9.0367  -9.0284  -9.0240  -8.9999  -8.9967
    -8.9917  -8.9840  -8.9785  -8.9743  -8.9718  -8.9635  -8.9512  -8.9424
    -8.9313  -8.9162  -8.9092  -8.8981  -8.8933  -8.8928  -8.8853  -8.8801
    -8.8794  -8.8693  -8.8578  -8.8453  -8.8411  -8.8277  -8.8135  -8.8080
    -8.8028  -8.7846  -8.7778  -8.7591  -8.7421  -8.6072  -8.5808  -8.5643
    -8.5513  -8.5511  -8.4714  -8.4671  -8.4436  -8.4013  -8.3346  -8.2745
    -8.2679  -8.2339  -8.2338  -8.1938  -8.1622  -8.1617  -8.1472  -8.1163
    -8.0931  -8.0255  -7.9783  -7.9752  -7.9721  -7.9576  -7.9062  -7.8993
    -7.8974  -7.8945  -7.8872  -7.8872  -7.8855  -7.8853  -7.8798  -7.8657
    -7.8442  -7.8415  -7.8409  -7.8406  -7.8252  -7.8196  -7.8167  -7.8108
    -7.7989  -7.7967  -7.7927  -7.7837  -7.7707  -7.7695  -7.7626  -7.7590
    -7.7489  -7.7426  -7.7326  -7.7283  -7.7175  -7.7078  -7.7021  -7.7019
    -7.6963  -7.6942  -7.6817  -7.6699  -7.6636  -7.6445  -7.6325  -7.6276
    -7.6221  -7.6091  -7.5937  -7.5764  -7.5665  -7.5643  -7.5024  -7.4926
    -7.4789  -7.4060  -7.3783  -7.3047  -7.2965  -7.2782  -7.2722  -7.2567
    -7.2195  -7.2049  -7.1736  -7.1580  -7.1441  -7.1030  -7.0851  -7.0550
    -7.0489  -7.0452  -7.0291  -7.0091  -6.9929  -6.9844  -6.9814  -6.9746
    -6.9425  -6.9196  -6.8825  -6.8789  -6.8688  -6.8604  -6.8362  -6.8208
    -6.7840  -6.7629  -6.7332  -6.7006  -6.6989  -6.6988  -6.6988  -6.6954
    -6.6825  -6.6621  -6.6397  -6.6316  -6.6309  -6.6283  -6.6261  -6.6019
    -6.5882  -6.5808  -6.5637  -6.5435  -6.5109  -6.4884  -6.4725  -6.3697
    -6.3678  -6.3672  -6.3671  -6.3619  -6.3308  -6.3080  -6.3027  -6.2956
    -6.2881  -6.2859  -6.2842  -6.2801  -6.2634  -6.2300  -6.2284  -6.2099
    -6.1814  -6.1488  -6.0269  -6.0187  -6.0185  -5.9420  -5.9408  -5.8853
    -5.8096  -5.7939  -5.6962  -5.6866  -5.5808  -5.5654  -5.4251  -5.3219
    -5.2829  -4.3200  -4.0651  -4.0553  -4.0533  -4.0280  -3.9341  -3.9341
    -3.9272  -3.9028  -3.8698  -3.8690  -3.8518  -3.8089  -3.8015  -3.7984
    -3.7931  -3.7558  -3.7269  -3.6733  -3.6403  -3.6377  -3.6344  -3.6338
    -3.6199  -3.6197  -3.6109  -3.5852  -3.5735  -3.5470  -3.5417  -3.5397
    -3.5323  -3.5214  -3.5164  -3.5122  -3.5095  -3.5002  -3.4997  -3.4647
    -3.4563  -3.4352  -3.4117  -3.4088  -3.3895  -3.3883  -3.3865  -3.3862
    -3.3578  -3.3559  -3.3513  -3.3457  -3.3224  -3.3116  -3.3105  -3.3103
    -3.3099  -3.2993  -3.2916  -3.2790  -3.2702  -3.2623  -3.2474  -3.2419
    -3.2409  -3.2364  -3.2284  -3.2253  -3.2165  -3.1936  -3.1726  -3.1571
    -3.1482  -3.1416  -3.1253  -3.1077  -3.1053  -3.0720  -3.0670  -3.0667
    -3.0596  -3.0483  -3.0474  -3.0471  -3.0468  -3.0148  -3.0033  -2.9989
    -2.9970  -2.9837  -2.9771  -2.9714  -2.9601  -2.9507  -2.9501  -2.9452
    -2.9337  -2.9220  -2.9200  -2.9136  -2.9005  -2.8935  -2.8777  -2.8637
    -2.8481  -2.8392  -2.8344  -2.8333  -2.8281  -2.7697  -2.7649  -2.7451
    -2.7329  -2.7013  -2.6857  -2.6844  -2.6742  -2.6719  -2.6635  -2.6027
    -2.5997  -2.5808  -2.5446  -2.5371  -2.5229  -2.5195  -2.4967  -2.4770
    -2.4001  -2.3647  -2.3337

          k =-0.5000-0.8660 0.0000 (321564 PWs)   bands (ev):

  -102.2005 -88.8378 -70.5402 -70.5387 -70.5144 -70.5093 -70.4969 -70.4856
   -70.4736 -66.7223 -66.7223 -66.7117 -66.7117 -66.6968 -66.6968 -66.6968
   -66.6968 -66.6924 -66.6924 -66.6862 -66.6862 -66.6862 -66.6861 -66.6818
   -66.6818 -66.6563 -66.6562 -66.6458 -66.6457 -66.6309 -66.6309 -66.6308
   -66.6306 -66.6264 -66.6263 -66.6203 -66.6202 -66.6201 -66.6200 -66.6158
   -66.6157 -66.5874 -66.5817 -66.5703 -66.5657 -66.5611 -66.5590 -66.5568
   -66.5485 -66.5429 -66.5403 -66.5375 -66.5348 -66.5336 -66.5247 -66.5081
   -66.4965 -56.4941 -56.4179 -56.3749 -54.6620 -54.6526 -54.5767 -41.0234
   -41.0234 -41.0234 -41.0234 -40.9968 -40.9968 -40.9849 -40.9849 -40.9564
   -40.9563 -40.9563 -40.9562 -40.9344 -40.9344 -40.9344 -40.9344 -40.9297
   -40.9296 -40.9178 -40.9176 -40.8817 -40.8786 -40.8764 -40.8764 -40.8725
   -40.8674 -40.8674 -40.8673 -40.8673 -40.8665 -40.8665 -40.8612 -40.8557
   -40.8557 -40.8547 -40.8496 -40.8302 -40.8263 -40.8263 -40.8263 -40.8263
   -40.8176 -40.8176 -40.8148 -40.8110 -40.8108 -40.8055 -40.8055 -40.8054
   -40.8054 -40.8054 -40.8053 -40.7996 -40.7995 -40.7967 -40.7967 -40.7902
   -40.7902 -40.7832 -40.7786 -40.7770 -40.7747 -40.7747 -40.7747 -40.7747
   -40.7741 -40.7610 -40.7609 -40.7608 -40.7607 -40.7522 -40.7521 -40.7511
   -40.7442 -40.7402 -40.7402 -40.7402 -40.7402 -40.7401 -40.7400 -40.7400
   -40.7397 -40.7386 -40.7385 -40.7314 -40.7313 -40.7293 -40.7282 -40.7281
   -40.7155 -40.7145 -40.7103 -40.7090 -40.7090 -40.7080 -40.7078 -40.7078
   -40.7078 -40.7058 -40.6946 -40.6921 -40.6921 -40.6911 -40.6878 -40.6825
   -40.6784 -40.6735 -40.6734 -40.6733 -40.6733 -40.6707 -40.6679 -40.6658
   -40.6616 -40.6616 -40.6614 -40.6613 -40.6607 -40.6575 -40.6552 -40.6505
   -40.6462 -40.6422 -40.6420 -40.6276 -40.6267 -40.6254 -40.6252 -40.6215
   -40.6194 -40.5949 -40.5948 -40.5920 -40.5892 -40.5849 -40.5782 -40.5743
   -40.5632 -40.5591 -40.5533 -40.5357 -40.5191 -40.5104 -40.4980 -19.9889
   -19.9241 -19.9039 -19.8145 -19.7464 -19.6936 -19.4943 -19.4918 -19.4301
   -19.4053 -19.3110 -19.2905 -19.0191 -18.8362 -18.8134 -18.7844 -18.7813
   -18.7805 -18.7766 -18.7574 -18.7316 -18.7028 -18.6704 -18.6512 -18.6500
   -18.6387 -18.6180 -18.5894 -18.5856 -18.5786 -18.5332 -18.5328 -18.4980
   -18.4929 -18.4704 -18.4517 -18.4380 -18.4277 -18.4151 -18.3581 -18.3492
   -18.3122 -18.2911 -18.2764 -18.2621 -18.2573 -18.2251 -18.1999 -18.1942
   -18.1683 -18.1681 -18.1680 -18.1680 -18.1603 -18.1435 -18.1403 -18.1093
   -18.1082 -18.0960 -18.0914 -18.0905 -18.0849 -18.0756 -18.0698 -18.0414
   -18.0325 -18.0290 -18.0146 -18.0121 -18.0073 -17.9867 -17.9815 -17.9758
   -17.9705 -17.9626 -17.9527 -17.9215 -17.9169 -17.9082 -17.9047 -17.9047
   -17.8980 -17.8569 -17.8511 -17.8451 -17.8448 -17.8378 -17.8289 -17.8282
   -17.8167 -17.7974 -17.7871 -17.7835 -17.7700 -17.7246 -17.7149 -12.0191
   -11.7685 -11.7145 -11.6811 -11.5964 -11.5248 -11.5162 -11.5154 -11.5109
   -11.4960 -11.4906 -11.4830 -11.4722 -11.4371 -11.4170 -11.4121 -11.4063
   -11.3826 -11.3642 -11.3574 -11.3411 -11.3231 -11.3211 -11.2975 -11.2975
   -11.2832 -11.2611 -11.2518 -11.2513 -11.2203 -11.2002 -11.1951 -11.1940
   -11.1918 -11.1417 -11.0821 -11.0464 -11.0280 -11.0147 -11.0049 -10.9863
   -10.9625 -10.9534 -10.9512 -10.9413 -10.9214 -10.9152 -10.8934 -10.8853
   -10.8779 -10.8711 -10.8705 -10.8698 -10.8681 -10.8623 -10.8523 -10.8365
   -10.8324 -10.8175 -10.8068 -10.8012 -10.7993 -10.7882 -10.7566 -10.6559
   -10.6198 -10.5794 -10.5362 -10.5273 -10.4589 -10.4222 -10.3908 -10.3669
   -10.3099 -10.2573 -10.2063 -10.1719 -10.1615 -10.1555 -10.1427 -10.0936
   -10.0727 -10.0525 -10.0409  -9.9919  -9.9790  -9.9763  -9.9761  -9.9725
    -9.9678  -9.9431  -9.9398  -9.9345  -9.9329  -9.9191  -9.8913  -9.8411
    -9.8344  -9.8034  -9.8004  -9.7922  -9.7889  -9.7716  -9.7603  -9.7518
    -9.7496  -9.7407  -9.7321  -9.7089  -9.6943  -9.6868  -9.6762  -9.6588
    -9.6510  -9.6456  -9.6443  -9.5917  -9.5812  -9.5709  -9.5702  -9.5603
    -9.5461  -9.5120  -9.5097  -9.4985  -9.4761  -9.4138  -9.3623  -9.3561
    -9.3169  -9.2957  -9.2471  -9.2329  -9.2198  -9.1984  -9.1926  -9.1905
    -9.1752  -9.1671  -9.1638  -9.1471  -9.1211  -9.1070  -9.0894  -9.0823
    -9.0589  -9.0564  -9.0466  -9.0347  -9.0299  -9.0177  -9.0103  -8.9973
    -8.9923  -8.9854  -8.9757  -8.9728  -8.9713  -8.9652  -8.9578  -8.9334
    -8.9327  -8.9090  -8.8981  -8.8960  -8.8894  -8.8839  -8.8801  -8.8781
    -8.8757  -8.8698  -8.8592  -8.8530  -8.8430  -8.8335  -8.8227  -8.8060
    -8.8021  -8.7908  -8.7810  -8.7587  -8.7379  -8.6378  -8.5774  -8.5532
    -8.5518  -8.5379  -8.4722  -8.4660  -8.4604  -8.4127  -8.3671  -8.2752
    -8.2339  -8.2338  -8.2174  -8.1905  -8.1626  -8.1614  -8.1482  -8.1105
    -8.0984  -8.0133  -7.9980  -7.9732  -7.9702  -7.9156  -7.9065  -7.9057
    -7.8961  -7.8906  -7.8872  -7.8871  -7.8862  -7.8848  -7.8782  -7.8491
    -7.8467  -7.8413  -7.8406  -7.8352  -7.8286  -7.8214  -7.8164  -7.8117
    -7.7985  -7.7934  -7.7882  -7.7805  -7.7729  -7.7689  -7.7659  -7.7606
    -7.7557  -7.7441  -7.7309  -7.7275  -7.7215  -7.7078  -7.7019  -7.7018
    -7.6883  -7.6856  -7.6760  -7.6667  -7.6598  -7.6406  -7.6366  -7.6322
    -7.6250  -7.6178  -7.5892  -7.5790  -7.5648  -7.5473  -7.5345  -7.4982
    -7.4830  -7.4110  -7.3569  -7.3089  -7.2937  -7.2788  -7.2702  -7.2568
    -7.2303  -7.1793  -7.1696  -7.1491  -7.1430  -7.0991  -7.0921  -7.0666
    -7.0510  -7.0491  -7.0350  -7.0234  -6.9906  -6.9883  -6.9815  -6.9449
    -6.9426  -6.9300  -6.9194  -6.9032  -6.8773  -6.8696  -6.8467  -6.8165
    -6.7697  -6.7409  -6.7271  -6.7150  -6.7003  -6.6988  -6.6988  -6.6986
    -6.6978  -6.6717  -6.6350  -6.6329  -6.6307  -6.6281  -6.6257  -6.6005
    -6.5944  -6.5761  -6.5498  -6.5091  -6.5021  -6.4818  -6.4729  -6.4516
    -6.3685  -6.3674  -6.3670  -6.3667  -6.3461  -6.3029  -6.2999  -6.2906
    -6.2854  -6.2828  -6.2811  -6.2657  -6.2457  -6.2418  -6.2210  -6.2093
    -6.1808  -6.0258  -6.0187  -6.0186  -5.9737  -5.9470  -5.9386  -5.9297
    -5.8664  -5.7881  -5.6873  -5.6856  -5.6197  -5.5596  -5.4239  -5.3366
    -5.2901  -4.3326  -4.0648  -4.0581  -4.0547  -4.0291  -3.9341  -3.9341
    -3.9200  -3.8992  -3.8695  -3.8692  -3.8476  -3.8155  -3.8086  -3.8021
    -3.7923  -3.7591  -3.7214  -3.6664  -3.6404  -3.6362  -3.6349  -3.6337
    -3.6199  -3.6197  -3.6167  -3.5864  -3.5797  -3.5447  -3.5427  -3.5417
    -3.5367  -3.5177  -3.5135  -3.5084  -3.5065  -3.5031  -3.5013  -3.4574
    -3.4528  -3.4233  -3.4114  -3.3958  -3.3923  -3.3888  -3.3869  -3.3839
    -3.3585  -3.3548  -3.3518  -3.3470  -3.3284  -3.3132  -3.3107  -3.3102
    -3.3098  -3.3078  -3.2853  -3.2762  -3.2703  -3.2667  -3.2492  -3.2385
    -3.2373  -3.2343  -3.2320  -3.2227  -3.2173  -3.1867  -3.1633  -3.1530
    -3.1485  -3.1366  -3.1245  -3.1075  -3.1053  -3.0717  -3.0692  -3.0664
    -3.0654  -3.0476  -3.0475  -3.0472  -3.0469  -3.0123  -3.0028  -2.9986
    -2.9975  -2.9834  -2.9732  -2.9659  -2.9599  -2.9533  -2.9520  -2.9462
    -2.9348  -2.9204  -2.9168  -2.9099  -2.9000  -2.8933  -2.8748  -2.8623
    -2.8541  -2.8452  -2.8402  -2.8361  -2.8309  -2.7695  -2.7647  -2.7442
    -2.7311  -2.7048  -2.6877  -2.6843  -2.6819  -2.6677  -2.6629  -2.6042
    -2.6000  -2.5860  -2.5453  -2.5317  -2.5240  -2.5194  -2.5011  -2.4629
    -2.4066  -2.3623  -2.3180

     the Fermi energy is    -4.7694 ev

!    total energy              =  -26031.78465298 Ry
     total all-electron energy =   -512284.354281 Ry
     estimated scf accuracy    <       0.00000027 Ry
     smearing contrib. (-TS)   =      -0.00000046 Ry
     internal energy E=F+TS    =  -26031.78465251 Ry

     The total energy is F=E-TS. E is the sum of the following terms:
     one-electron contribution =  492260.88358017 Ry
     hartree contribution      = -246273.85997950 Ry
     xc contribution           =   -1534.60950912 Ry
     ewald contribution        = -254291.41170109 Ry
     DFT-D3 Dispersion         =      -4.02026666 Ry
     one-center paw contrib.   =  -16188.76677632 Ry

     convergence has been achieved in  23 iterations

     negative rho (up, down):  9.158E-04 0.000E+00

     Forces acting on atoms (cartesian axes, Ry/au):

     atom    1 type  1   force =    -0.00508627   -0.00095829   -0.00099119
     atom    2 type  1   force =    -0.00000873   -0.00000546    0.00189791
     atom    3 type  1   force =    -0.00005382    0.00001433   -0.00001111
     atom    4 type  2   force =    -0.00000056    0.00000075   -0.00337457
     atom    5 type  2   force =     0.00000862    0.00000388   -0.00010953
     atom    6 type  2   force =     0.00033985    0.00041195   -0.00019922
     atom    7 type  2   force =     0.00000100    0.00000070    0.00157114
     atom    8 type  2   force =     0.00000619   -0.00001211    0.00015079
     atom    9 type  2   force =    -0.00068154   -0.00005215    0.00020810
     atom   10 type  1   force =     0.00020186    0.00087099    0.00038278
     atom   11 type  1   force =    -0.00000544   -0.00000228    0.00189672
     atom   12 type  1   force =    -0.00002141   -0.00004631   -0.00005683
     atom   13 type  2   force =    -0.00000065   -0.00000093   -0.00337295
     atom   14 type  2   force =    -0.00002068   -0.00001379   -0.00011065
     atom   15 type  2   force =    -0.00005179   -0.00019946   -0.00000403
     atom   16 type  2   force =     0.00000025    0.00000044    0.00158996
     atom   17 type  2   force =    -0.00006223   -0.00002614    0.00007420
     atom   18 type  2   force =     0.00025110   -0.00085058    0.00005207
     atom   19 type  1   force =     0.00005570   -0.00059693    0.00058167
     atom   20 type  1   force =    -0.00000724   -0.00000052    0.00189902
     atom   21 type  1   force =    -0.00003264    0.00004392   -0.00007741
     atom   22 type  2   force =     0.00000022    0.00000049   -0.00337516
     atom   23 type  2   force =     0.00000357    0.00000543   -0.00010963
     atom   24 type  2   force =    -0.00008419   -0.00005607   -0.00042387
     atom   25 type  2   force =     0.00000043    0.00000202    0.00157135
     atom   26 type  2   force =    -0.00000300    0.00001415    0.00008430
     atom   27 type  2   force =    -0.00029606    0.00049583    0.00001840
     atom   28 type  1   force =    -0.00181597   -0.00281568   -0.00275144
     atom   29 type  1   force =    -0.00000350   -0.00000532    0.00189965
     atom   30 type  1   force =     0.00002557   -0.00006234   -0.00003583
     atom   31 type  2   force =     0.00000025    0.00000106   -0.00337179
     atom   32 type  2   force =    -0.00000103   -0.00000202   -0.00014588
     atom   33 type  2   force =    -0.00002525   -0.00004401   -0.00014991
     atom   34 type  2   force =    -0.00000383   -0.00000089    0.00157882
     atom   35 type  2   force =    -0.00000064   -0.00001633    0.00009347
     atom   36 type  2   force =    -0.00021668   -0.00010161    0.00077761
     atom   37 type  1   force =     0.00094500    0.00007155   -0.03272634
     atom   38 type  1   force =    -0.00000348   -0.00000136    0.00189775
     atom   39 type  1   force =     0.00001511    0.00001383   -0.00002177
     atom   40 type  2   force =    -0.00000095   -0.00000057   -0.00337642
     atom   41 type  2   force =    -0.00001076    0.00000147   -0.00010766
     atom   42 type  2   force =    -0.00027854    0.00060403    0.00382862
     atom   43 type  2   force =    -0.00000145    0.00000450    0.00158027
     atom   44 type  2   force =    -0.00001425   -0.00002800    0.00014874
     atom   45 type  2   force =    -0.01316738   -0.01052327    0.02337658
     atom   46 type  1   force =    -0.00127900    0.00209135    0.00191457
     atom   47 type  1   force =    -0.00000361   -0.00000187    0.00189396
     atom   48 type  1   force =    -0.00006547    0.00001494    0.00000942
     atom   49 type  2   force =    -0.00000056    0.00000006   -0.00337498
     atom   50 type  2   force =    -0.00000147    0.00000855   -0.00009629
     atom   51 type  2   force =    -0.00140438    0.00035039   -0.00116048
     atom   52 type  2   force =    -0.00000267    0.00000524    0.00157728
     atom   53 type  2   force =    -0.00001319    0.00001856    0.00012663
     atom   54 type  2   force =     0.00107568    0.00277665   -0.00572433
     atom   55 type  1   force =     0.00036713   -0.00051768    0.00048427
     atom   56 type  1   force =    -0.00000244   -0.00000593    0.00189660
     atom   57 type  1   force =     0.00003964    0.00002110   -0.00005036
     atom   58 type  2   force =    -0.00000061    0.00000010   -0.00337468
     atom   59 type  2   force =     0.00000479   -0.00000884   -0.00011091
     atom   60 type  2   force =     0.00064280   -0.00036389   -0.00023821
     atom   61 type  2   force =     0.00000298   -0.00000298    0.00157719
     atom   62 type  2   force =    -0.00000862    0.00000194    0.00008905
     atom   63 type  2   force =     0.00071589   -0.00003146    0.00020164
     atom   64 type  1   force =     0.00218547   -0.00326391   -0.00287152
     atom   65 type  1   force =    -0.00000658   -0.00000106    0.00189745
     atom   66 type  1   force =    -0.00000975   -0.00006505   -0.00000983
     atom   67 type  2   force =    -0.00000155    0.00000035   -0.00337337
     atom   68 type  2   force =    -0.00000570   -0.00000900   -0.00012530
     atom   69 type  2   force =     0.00012560   -0.00099166   -0.00148635
     atom   70 type  2   force =     0.00000130   -0.00000169    0.00158034
     atom   71 type  2   force =    -0.00001401   -0.00002097    0.00007276
     atom   72 type  2   force =    -0.00020225    0.00115804   -0.00124511
     atom   73 type  1   force =     0.00367411   -0.00076243   -0.00087238
     atom   74 type  1   force =     0.00000180    0.00000303    0.00189700
     atom   75 type  1   force =    -0.00000114    0.00000995   -0.00001449
     atom   76 type  2   force =    -0.00000007    0.00000029   -0.00337807
     atom   77 type  2   force =     0.00004460    0.00002971   -0.00006597
     atom   78 type  2   force =    -0.00071702    0.00023639    0.00363381
     atom   79 type  2   force =    -0.00000256    0.00000051    0.00157288
     atom   80 type  2   force =    -0.00004142   -0.00002318    0.00022047
     atom   81 type  2   force =     0.01520137   -0.01164346    0.02302732
     atom   82 type  1   force =     0.00129681    0.00549681    0.00306582
     atom   83 type  1   force =     0.00000338    0.00000023    0.00189536
     atom   84 type  1   force =     0.00002225   -0.00003154   -0.00001727
     atom   85 type  2   force =    -0.00000028   -0.00000076   -0.00337457
     atom   86 type  2   force =     0.00002729   -0.00001134   -0.00009752
     atom   87 type  2   force =    -0.00024431   -0.00076172    0.00332332
     atom   88 type  2   force =    -0.00000058    0.00000512    0.00157689
     atom   89 type  2   force =     0.00005505   -0.00002812    0.00008502
     atom   90 type  2   force =    -0.00513148    0.02307854    0.01142364
     atom   91 type  1   force =     0.00010854   -0.00189965    0.00063815
     atom   92 type  1   force =     0.00000299    0.00000225    0.00189145
     atom   93 type  1   force =    -0.00003950    0.00002572   -0.00001279
     atom   94 type  2   force =    -0.00000109    0.00000087   -0.00337607
     atom   95 type  2   force =    -0.00000498   -0.00000492   -0.00009120
     atom   96 type  2   force =    -0.00031641   -0.00029913    0.00001920
     atom   97 type  2   force =    -0.00000191   -0.00000036    0.00157813
     atom   98 type  2   force =    -0.00002019   -0.00000461    0.00011552
     atom   99 type  2   force =    -0.00142108    0.00038262    0.00254075
     atom  100 type  1   force =    -0.00078862    0.00010510   -0.00005337
     atom  101 type  1   force =     0.00000483    0.00000441    0.00189373
     atom  102 type  1   force =    -0.00003379   -0.00003264   -0.00000890
     atom  103 type  2   force =     0.00000077    0.00000073   -0.00337820
     atom  104 type  2   force =    -0.00000030    0.00002643   -0.00011261
     atom  105 type  2   force =    -0.00038836   -0.00012557   -0.00008029
     atom  106 type  2   force =     0.00000376   -0.00000224    0.00157902
     atom  107 type  2   force =    -0.00000155    0.00004546    0.00009226
     atom  108 type  2   force =     0.00050626   -0.00013494    0.00118244
     atom  109 type  1   force =    -0.00020097   -0.00015676    0.00050257
     atom  110 type  1   force =     0.00000286    0.00000045    0.00189766
     atom  111 type  1   force =     0.00004091    0.00004531    0.00012000
     atom  112 type  2   force =     0.00000023    0.00000165   -0.00337418
     atom  113 type  2   force =    -0.00004685    0.00003055   -0.00007849
     atom  114 type  2   force =    -0.00010716    0.00044617   -0.00055610
     atom  115 type  2   force =    -0.00000099    0.00000080    0.00158873
     atom  116 type  2   force =     0.00003677   -0.00001940    0.00014388
     atom  117 type  2   force =     0.00048495   -0.00012566    0.00068168
     atom  118 type  1   force =    -0.00011532    0.00022580    0.00053501
     atom  119 type  1   force =    -0.00000124    0.00000244    0.00190063
     atom  120 type  1   force =     0.00006726    0.00000538    0.00000731
     atom  121 type  2   force =     0.00000038   -0.00000005   -0.00337426
     atom  122 type  2   force =    -0.00000092   -0.00005301   -0.00007935
     atom  123 type  2   force =     0.00120504    0.00036638   -0.00173146
     atom  124 type  2   force =    -0.00000008    0.00000017    0.00159142
     atom  125 type  2   force =     0.00002222    0.00004483    0.00015916
     atom  126 type  2   force =    -0.00011289   -0.00039601   -0.00240436
     atom  127 type  1   force =    -0.00037223   -0.00014601    0.00071746
     atom  128 type  1   force =     0.00000184   -0.00000035    0.00189887
     atom  129 type  1   force =     0.00003774    0.00002534   -0.00000926
     atom  130 type  2   force =     0.00000044    0.00000005   -0.00337113
     atom  131 type  2   force =    -0.00000415    0.00000361   -0.00011359
     atom  132 type  2   force =    -0.00015919   -0.00103068   -0.00028261
     atom  133 type  2   force =    -0.00000312   -0.00000228    0.00157520
     atom  134 type  2   force =     0.00002682    0.00003226    0.00008072
     atom  135 type  2   force =    -0.00025869    0.00007711    0.00030789
     atom  136 type  1   force =     0.00081667    0.00007151    0.00036223
     atom  137 type  1   force =     0.00000088    0.00000266    0.00189768
     atom  138 type  1   force =     0.00002007    0.00001826   -0.00002897
     atom  139 type  2   force =     0.00000095    0.00000119   -0.00337406
     atom  140 type  2   force =     0.00000661   -0.00000623   -0.00012101
     atom  141 type  2   force =     0.00004285   -0.00000534   -0.00017054
     atom  142 type  2   force =    -0.00000433   -0.00000165    0.00157767
     atom  143 type  2   force =     0.00001619    0.00000220    0.00007507
     atom  144 type  2   force =    -0.00006609    0.00010498    0.00031444
     atom  145 type  3   force =     0.01397158   -0.01735008    0.00043627
     atom  146 type  4   force =    -0.00918039    0.01679662   -0.03027474

     Total force =     0.074388     Total SCF correction =     0.001396

[...]
     atom   70 type  2   force =     0.00000622    0.00000087    0.00149028
     atom   71 type  2   force =    -0.00000941   -0.00000505    0.00000742
     atom   72 type  2   force =    -0.00000089    0.00012143    0.00009686
     atom   73 type  1   force =    -0.00017862    0.00002236    0.00024319
     atom   74 type  1   force =    -0.00000113    0.00000180    0.00189832
     atom   75 type  1   force =    -0.00000483    0.00000720    0.00000775
     atom   76 type  2   force =     0.00000060    0.00000068   -0.00327899
     atom   77 type  2   force =     0.00000198   -0.00001987   -0.00001608
     atom   78 type  2   force =    -0.00010816   -0.00012364    0.00011323
     atom   79 type  2   force =     0.00000191    0.00000600    0.00149278
     atom   80 type  2   force =     0.00004139   -0.00001363   -0.00005617
     atom   81 type  2   force =    -0.00049101    0.00043598   -0.00000502
     atom   82 type  1   force =    -0.00001961    0.00021591    0.00028061
     atom   83 type  1   force =    -0.00000111   -0.00000108    0.00189349
     atom   84 type  1   force =     0.00001780    0.00000379    0.00001809
     atom   85 type  2   force =     0.00000081    0.00000049   -0.00327883
     atom   86 type  2   force =     0.00001408    0.00000333    0.00002498
     atom   87 type  2   force =    -0.00032656   -0.00078300    0.00036987
     atom   88 type  2   force =     0.00000244    0.00000546    0.00149343
     atom   89 type  2   force =     0.00000091    0.00000118    0.00001412
     atom   90 type  2   force =    -0.00037833   -0.00060354   -0.00050925
     atom   91 type  1   force =     0.00005341   -0.00006521   -0.00024827
     atom   92 type  1   force =    -0.00000175   -0.00000075    0.00189412
     atom   93 type  1   force =    -0.00001310    0.00001743    0.00000735
     atom   94 type  2   force =     0.00000072    0.00000057   -0.00327920
     atom   95 type  2   force =     0.00000744    0.00002805    0.00000547
     atom   96 type  2   force =    -0.00015006   -0.00001802   -0.00017327
     atom   97 type  2   force =     0.00000231    0.00000011    0.00148807
     atom   98 type  2   force =     0.00000020    0.00004629   -0.00002471
     atom   99 type  2   force =     0.00027076   -0.00010292    0.00035667
     atom  100 type  1   force =     0.00005368   -0.00003998   -0.00001108
     atom  101 type  1   force =    -0.00000130   -0.00000072    0.00189709
     atom  102 type  1   force =     0.00000280   -0.00001625    0.00001403
     atom  103 type  2   force =     0.00000045    0.00000087   -0.00327933
     atom  104 type  2   force =     0.00001169    0.00002296    0.00001337
     atom  105 type  2   force =     0.00003563    0.00010714    0.00016293
     atom  106 type  2   force =     0.00000264   -0.00000391    0.00148685
     atom  107 type  2   force =    -0.00001496   -0.00001593    0.00004936
     atom  108 type  2   force =     0.00005734   -0.00002109    0.00008595
     atom  109 type  1   force =    -0.00002276    0.00010483   -0.00002166
     atom  110 type  1   force =     0.00000121    0.00000277    0.00190048
     atom  111 type  1   force =     0.00000334    0.00001463   -0.00000010
     atom  112 type  2   force =     0.00000070    0.00000095   -0.00327878
     atom  113 type  2   force =    -0.00001380   -0.00004197   -0.00001196
     atom  114 type  2   force =    -0.00013306    0.00005534    0.00020013
     atom  115 type  2   force =    -0.00000072    0.00000189    0.00151375
     atom  116 type  2   force =     0.00000134    0.00003124   -0.00002047
     atom  117 type  2   force =     0.00016784   -0.00008633    0.00008984
     atom  118 type  1   force =    -0.00011765   -0.00003575   -0.00028557
     atom  119 type  1   force =     0.00000009    0.00000028    0.00190023
     atom  120 type  1   force =     0.00000795   -0.00000903    0.00002236
     atom  121 type  2   force =     0.00000084    0.00000057   -0.00327916
     atom  122 type  2   force =    -0.00000839    0.00001322   -0.00000705
     atom  123 type  2   force =    -0.00048847   -0.00046969    0.00008884
     atom  124 type  2   force =    -0.00000483   -0.00000161    0.00150301
     atom  125 type  2   force =    -0.00001799    0.00001526    0.00004420
     atom  126 type  2   force =     0.00037522   -0.00007747    0.00022834
     atom  127 type  1   force =    -0.00004702   -0.00011882   -0.00015194
     atom  128 type  1   force =     0.00000060   -0.00000026    0.00189770
     atom  129 type  1   force =     0.00001634    0.00002520    0.00002982
     atom  130 type  2   force =     0.00000098    0.00000069   -0.00327876
     atom  131 type  2   force =     0.00000451   -0.00000795    0.00000885
     atom  132 type  2   force =    -0.00001661   -0.00006209   -0.00047365
     atom  133 type  2   force =    -0.00000619   -0.00000524    0.00149405
     atom  134 type  2   force =     0.00003710    0.00000517    0.00000704
     atom  135 type  2   force =    -0.00004320    0.00051655    0.00004417
     atom  136 type  1   force =    -0.00007496   -0.00010078   -0.00024239
     atom  137 type  1   force =     0.00000097    0.00000079    0.00190113
     atom  138 type  1   force =     0.00000018   -0.00000904    0.00004866
     atom  139 type  2   force =     0.00000087    0.00000090   -0.00327919
     atom  140 type  2   force =    -0.00002009    0.00001761    0.00002531
     atom  141 type  2   force =    -0.00015517    0.00003609   -0.00042825
     atom  142 type  2   force =    -0.00000731   -0.00000363    0.00149952
     atom  143 type  2   force =     0.00000970   -0.00002760    0.00010748
     atom  144 type  2   force =     0.00012225   -0.00000610   -0.00023538
     atom  145 type  3   force =    -0.00000464   -0.00063456   -0.00062465
     atom  146 type  4   force =    -0.00021686    0.00086566   -0.00019908

     Total force =     0.003318     Total SCF correction =     0.000481
     SCF correction compared to forces is large: reduce conv_thr to get better values
     Energy error            =      2.9E-05 Ry
     Gradient error          =      8.7E-04 Ry/Bohr

     bfgs converged in  17 scf cycles and  16 bfgs steps
     (criteria: energy <  1.0E-04 Ry, force <  1.0E-03 Ry/Bohr)

     End of BFGS Geometry Optimization

     Final energy             =  -26031.8088953368 Ry

     File ./outdir/pwscf.bfgs deleted, as requested
Begin final coordinates

ATOMIC_POSITIONS (angstrom)
Mo               1.5506579279        2.7205772672        6.0930041322
Mo               1.5769197498        0.9104407117       -6.0872367793    0   0   0
Mo               0.0002992803        1.8209301272       -0.0002845705
S                0.0000044503        0.0000077495       -7.6506323570    0   0   0
S                1.5769118945        0.9112070462       -1.5664882487
S               -0.0016494746        1.8189444909        4.5030667689
S                0.0000053241        0.0000068460       -4.5222282367    0   0   0
S                1.5782301983        0.9107201555        1.5663297939
S               -0.0308354232        1.8070160039        7.6476584341
Mo              -0.0146365764        5.4639066677        6.0845355688
Mo               0.0000011799        3.6417399547       -6.0872367793    0   0   0
Mo              -1.5765096801        4.5520753171       -0.0013660737
S               -1.5769141197        2.7313069925       -7.6506323570    0   0   0
S                0.0004055486        3.6413890953       -1.5661592568
S               -1.5691388362        4.5523302571        4.5024689309
S               -1.5769132459        2.7313060890       -4.5222282367    0   0   0
S                0.0007838729        3.6423176667        1.5666046918
S               -1.5894534596        4.5468663091        7.6445270424
Mo              -1.5763341793        8.1933607739        6.0780318263
Mo              -1.5769173901        6.3730391977       -6.0872367793    0   0   0
Mo              -3.1539526377        7.2834471389       -0.0020801726
S               -3.1538326896        5.4626062355       -7.6506323570    0   0   0
S               -1.5767352796        6.3727832611       -1.5671171363
S               -3.1463716480        7.2864856072        4.5013934473
S               -3.1538318159        5.4626053320       -4.5222282367    0   0   0
S               -1.5768475423        6.3734265788        1.5649118500
S               -3.1551893950        7.2830379368        7.6364551534
Mo               3.1489189472       -0.0186204956        6.0836362700
Mo              -3.1538359601        9.1043384407       -6.0872367793    0   0   0
Mo              -4.7305432809       10.0151991013       -0.0019384077
S               -4.7307512596        8.1939054785       -7.6506323570    0   0   0
S               -3.1537976267        9.1044391158       -1.5674517625
S               -4.7291244121       10.0217143706        4.5002026913
S               -4.7307503859        8.1939045750       -4.5222282367    0   0   0
S               -3.1536804209        9.1043431806        1.5647235501
S               -4.7405807341       10.0019078842        7.6439501843
Mo               4.7372536474        2.7240691501        6.1304531325
Mo               4.7307503218        0.9104407117       -6.0872367793    0   0   0
Mo               3.1541364859        1.8212445426       -0.0010001137
S                3.1538350223        0.0000077495       -7.6506323570    0   0   0
S                4.7310292567        0.9109906886       -1.5665449089
S                3.1675269269        1.8315554633        4.5591650001
S                3.1538358961        0.0000068460       -4.5222282367    0   0   0
S                4.7302682852        0.9101346863        1.5666496859
S                3.0411983978        1.7466756030        7.7114973552
Mo               3.1451813735        5.4806503255        6.1280997949
Mo               3.1538317519        3.6417399547       -6.0872367793    0   0   0
Mo               1.5773482439        4.5521457147       -0.0007745004
S                1.5769164523        2.7313069925       -7.6506323570    0   0   0
S                3.1540712123        3.6419451595       -1.5663371178
S                1.5882349915        4.5587012717        4.5498084998
S                1.5769173261        2.7313060890       -4.5222282367    0   0   0
S                3.1537477074        3.6415387360        1.5673931346
S                1.4955498295        4.5126812618        7.6865605532
Mo               1.5736899957        8.2020260425        6.0905974225
Mo               1.5769131819        6.3730391977       -6.0872367793    0   0   0
Mo               0.0002646976        7.2834755504       -0.0017070165
S               -0.0000021176        5.4626062355       -7.6506323570    0   0   0
S                1.5774114941        6.3728283255       -1.5665062315
S                0.0037594188        7.2838740206        4.5156701407
S               -0.0000012439        5.4626053320       -4.5222282367    0   0   0
S                1.5766738905        6.3729037400        1.5664730330
S               -0.0070887855        7.2837596396        7.6511505567
Mo               6.3123100301       -0.0109737484        6.0911598717
Mo              -0.0000053881        9.1043384407       -6.0872367793    0   0   0
Mo              -1.5768072330       10.0149176959       -0.0017898316
S               -1.5769206876        8.1939054785       -7.6506323570    0   0   0
S                0.0005638238        9.1045682766       -1.5668791749
S               -1.5728162937       10.0146730138        4.5130601976
S               -1.5769198139        8.1939045750       -4.5222282367    0   0   0
S               -0.0006442144        9.1039425223        1.5654810086
S               -1.5795098137       10.0071985180        7.6503975650
Mo               7.8962003599        2.7314353291        6.0845086982
Mo               7.8845808939        0.9104407117       -6.0872367793    0   0   0
Mo               6.3072588749        1.8210310081       -0.0001220538
S                6.3076655943        0.0000077495       -7.6506323570    0   0   0
S                7.8842541914        0.9105521225       -1.5655359153
S                6.2854198395        1.8293004440        4.5552579546
S                6.3076664681        0.0000068460       -4.5222282367    0   0   0
S                7.8834022838        0.9106016239        1.5674707611
S                6.4020917032        1.7621827147        7.7307100421
Mo               6.3536660312        5.4882699663        6.0639024464
Mo               6.3076623239        3.6417399547       -6.0872367793    0   0   0
Mo               4.7305076724        4.5519353908       -0.0001780965
S                4.7307470244        2.7313069925       -7.6506323570    0   0   0
S                6.3074527157        3.6416820048       -1.5656437147
S                4.7212185549        4.5444386006        4.5770719331
S                4.7307478981        2.7313060890       -4.5222282367    0   0   0
S                6.3070038595        3.6418529240        1.5679078666
S                4.8430822323        4.6618238840        7.6839371551
Mo               4.7339184996        8.2008477748        6.0882820131
Mo               4.7307437539        6.3730391977       -6.0872367793    0   0   0
Mo               3.1538721188        7.2830235319       -0.0004531184
S                3.1538284544        5.4626062355       -7.6506323570    0   0   0
S                4.7305521103        6.3725390697       -1.5659430780
S                3.1513168729        7.2696787823        4.5471458868
S                3.1538293281        5.4626053320       -4.5222282367    0   0   0
S                4.7306335882        6.3723209712        1.5674392342
S                3.1467182014        7.3631503455        7.7111597455
Mo               9.4599421605       -0.0009010484        6.0778001357
Mo               3.1538251839        9.1043384407       -6.0872367793    0   0   0
Mo               1.5767279993       10.0147369591       -0.0003244574
S                1.5769098844        8.1939054785       -7.6506323570    0   0   0
S                3.1534370140        9.1039954165       -1.5660055266
S                1.5721103386       10.0118579107        4.5140395572
S                1.5769107581        8.1939045750       -4.5222282367    0   0   0
S                3.1538535184        9.1036346728        1.5667745279
S                1.5831926243       10.0161783634        7.6585168238
Mo              -1.5810818109        2.7284099586        6.0680739492
Mo              11.0384114659        0.9104407117       -6.0872367793    0   0   0
Mo               9.4612632926        1.8205922460       -0.0003440710
S                9.4614961663        0.0000077495       -7.6506323570    0   0   0
S               11.0383730717        0.9107926812       -1.5659418335
S                9.4550551618        1.8169301026        4.5056698626
S                9.4614970401        0.0000068460       -4.5222282367    0   0   0
S               11.0384737941        0.9099137870        1.5663708218
S                9.4726735933        1.8199361649        7.6462348052
Mo              -3.1458892541        5.4624824569        6.0660918374
Mo               9.4614928959        3.6417399547       -6.0872367793    0   0   0
Mo               7.8843835753        4.5519860032       -0.0004126402
S                7.8845775964        2.7313069925       -7.6506323570    0   0   0
S                9.4612887126        3.6413072133       -1.5660986900
S                7.9009580283        4.5457313473        4.4954641959
S                7.8845784701        2.7313060890       -4.5222282367    0   0   0
S                9.4622942362        3.6417631444        1.5654646628
S                7.9071868494        4.5594077436        7.6379030481
Mo              -4.7272599921        8.2004722571        6.0631166301
Mo               7.8845743259        6.3730391977       -6.0872367793    0   0   0
Mo               6.3073695210        7.2833375446       -0.0009515582
S                6.3076590264        5.4626062355       -7.6506323570    0   0   0
S                7.8840225053        6.3725024270       -1.5665582762
S                6.3070700415        7.2995585429        4.4965462424
S                6.3076599001        5.4626053320       -4.5222282367    0   0   0
S                7.8847535970        6.3734558838        1.5657585576
S                6.3298120455        7.3006670214        7.6391325927
Mo              -0.0033315088       -0.0019279917        6.0717348615
Mo               6.3076557559        9.1043384407       -6.0872367793    0   0   0
Mo               4.7305477013       10.0146845825       -0.0012779211
S                4.7307404564        8.1939054785       -7.6506323570    0   0   0
S                6.3074225514        9.1041995846       -1.5669091212
S                4.7261689625       10.0095477555        4.5112107232
S                4.7307413301        8.1939045750       -4.5222282367    0   0   0
S                6.3080132084        9.1050465523        1.5646576867
S                4.7338311447       10.0239080917        7.6492386304
Pd               3.1883060998        5.3430859398        9.0891942001
Pt               4.6607017795        2.8047952519        8.9463445295
End final coordinates



     Writing all to output data dir ./outdir/pwscf.save/ :
     XML data file, charge density, pseudopotentials, collected wavefunctions
 
     init_run     :     97.68s CPU     99.91s WALL (       1 calls)
     electrons    :  80122.88s CPU  81383.89s WALL (      17 calls)
     update_pot   :     21.28s CPU     21.92s WALL (      16 calls)
     forces       :   1215.65s CPU   1242.14s WALL (      17 calls)
     force_dftd3  :      6.43s CPU      6.73s WALL (      17 calls)

     Called by init_run:
     wfcinit      :     77.95s CPU     78.98s WALL (       1 calls)
     potinit      :      1.09s CPU      1.17s WALL (       1 calls)
     hinit0       :     10.88s CPU     11.09s WALL (       1 calls)

     Called by electrons:
     c_bands      :  69731.35s CPU  70496.08s WALL (     242 calls)
     sum_band     :   8889.52s CPU   9146.95s WALL (     242 calls)
     v_of_rho     :     71.15s CPU     79.59s WALL (     250 calls)
     newd         :   1261.92s CPU   1495.74s WALL (     250 calls)
     PAW_pot      :    203.93s CPU    205.61s WALL (     266 calls)
     mix_rho      :     19.88s CPU     22.39s WALL (     242 calls)
     energy_dftd3 :      3.66s CPU      3.68s WALL (      17 calls)

     Called by c_bands:
     init_us_2    :    335.20s CPU    337.08s WALL (    2072 calls)
     init_us_2:cp :    335.19s CPU    337.07s WALL (    2072 calls)
     cegterg      :  68341.23s CPU  69098.93s WALL (     993 calls)

     Called by *egterg:
     cdiaghg      :   3464.89s CPU   3628.42s WALL (   11703 calls)
     h_psi        :  35443.74s CPU  35703.13s WALL (   11815 calls)
     s_psi        :   7432.34s CPU   7467.86s WALL (   11815 calls)
     g_psi        :     78.64s CPU     79.02s WALL (   10818 calls)

     Called by h_psi:
     h_psi:calbec :   7383.97s CPU   7411.63s WALL (   11815 calls)
     vloc_psi     :  20445.29s CPU  20581.72s WALL (   11815 calls)
     add_vuspsi   :   7442.75s CPU   7480.64s WALL (   11815 calls)

     General routines
     calbec       :  10445.09s CPU  10483.18s WALL (   13119 calls)
     fft          :     61.26s CPU     69.25s WALL (    3428 calls)
     ffts         :      3.19s CPU      3.29s WALL (     492 calls)
     fftw         :  15193.56s CPU  15295.11s WALL ( 5368104 calls)
     interpolate  :      5.84s CPU      6.45s WALL (     250 calls)
 
     Parallel routines
 
     PWSCF        :     22h44m CPU     23h 7m WALL

 
   This run was terminated on:   9:24:43  12Mar2024            

=------------------------------------------------------------------------------=
   JOB DONE.
=------------------------------------------------------------------------------=
