
     Program PWSCF v.7.3 starts on 12Mar2024 at  9:25:39 

     This program is part of the open-source Quantum ESPRESSO suite
     for quantum simulation of materials; please cite
         "P. Giannozzi et al., J. Phys.:Condens. Matter 21 395502 (2009);
         "P. Giannozzi et al., J. Phys.:Condens. Matter 29 465901 (2017);
         "P. Giannozzi et al., J. Chem. Phys. 152 154105 (2020);
          URL http://www.quantum-espresso.org", 
     in publications or presentations arising from this work. More details at
     http://www.quantum-espresso.org/quote

     Parallel version (MPI & OpenMP), running on      36 processor cores
     Number of MPI processes:                36
     Threads/MPI process:                     1

     MPI processes distributed on     1 nodes
     555439 MiB available memory on the printing compute node when the environment starts
 
     Waiting for input...
     Reading input from standard input
Warning: card &CELL ignored
Warning: card / ignored

     Current dimensions of program PWSCF are:
     Max number of different atomic species (ntypx) = 10
     Max number of k-points (npk) =  40000
     Max angular momentum in pseudopotentials (lmaxx) =  4
     file Mo.pbe-spn-kjpaw_psl.1.0.0.UPF: wavefunction(s)  4S 4D renormalized
     file S.pbe-n-kjpaw_psl.1.0.0.UPF: wavefunction(s)  3S 3P renormalized
     file Pt.pbe-spfn-kjpaw_psl.1.0.0.UPF: wavefunction(s)  5P 4F renormalized
     file Pd.pbe-spn-kjpaw_psl.1.0.0.UPF: wavefunction(s)  4S 5S 4D renormalized
 
     R & G space division:  proc/nbgrp/npool/nimage =      36
     Subspace diagonalization in iterative solution of the eigenvalue problem:
     one sub-group per band group will be used
     scalapack distributed-memory algorithm (size of sub-group:  6*  6 procs)

 
     Parallelization info
     --------------------
     sticks:   dense  smooth     PW     G-vecs:    dense   smooth      PW
     Min         585     334     89               198743    85850   11735
     Max         586     335     90               198750    85861   11748
     Sum       21073   12049   3205              7154885  3090769  422587
 
     Using Slab Decomposition
 


     bravais-lattice index     =            0
     lattice parameter (alat)  =      23.8199  a.u.
     unit-cell volume          =   33861.0370 (a.u.)^3
     number of atoms/cell      =          194
     number of atomic types    =            4
     number of electrons       =      1714.00
     number of Kohn-Sham states=         1028
     kinetic-energy cutoff     =      77.0000  Ry
     charge density cutoff     =     539.0000  Ry
     scf convergence threshold =      1.0E-06
     mixing beta               =       0.2000
     number of iterations used =            8  plain     mixing
     energy convergence thresh.=      1.0E-04
     force convergence thresh. =      1.0E-03
     Exchange-correlation= SLA  PW   PBX  PBC
                           (   1   4   3   4   0   0   0)
     nstep                     =         1000


     Effective Screening Medium Method
     =================================
     Boundary Conditions: Vacuum-Slab-Vacuum
     total charge in unit cell        =   0.0000
     grid points for fit at edges     =        4 
 

     celldm(1)=  23.819920  celldm(2)=   0.000000  celldm(3)=   0.000000
     celldm(4)=   0.000000  celldm(5)=   0.000000  celldm(6)=   0.000000

     crystal axes: (cart. coord. in units of alat)
               a(1) = (   1.000000   0.000000   0.000000 )  
               a(2) = (  -0.499999   0.866026   0.000000 )  
               a(3) = (   0.000000   0.000000   2.893000 )  

     reciprocal axes: (cart. coord. in units 2 pi/alat)
               b(1) = (  1.000000  0.577349  0.000000 )  
               b(2) = (  0.000000  1.154700  0.000000 )  
               b(3) = (  0.000000  0.000000  0.345662 )  


     PseudoPot. # 1 for Mo read from file:
     ./pseudo/Mo.pbe-spn-kjpaw_psl.1.0.0.UPF
     MD5 check sum: 317bf72632116215fd98f72de1686f13
     Pseudo is Projector augmented-wave + core cor, Zval = 14.0
     Generated using 'atomic' code by A. Dal Corso  v.7.2
     Shape of augmentation charge: PSQ
     Using radial grid of 1229 points,  6 beta functions with: 
                l(1) =   0
                l(2) =   0
                l(3) =   1
                l(4) =   1
                l(5) =   2
                l(6) =   2
     Q(r) pseudized with 0 coefficients 


     PseudoPot. # 2 for S  read from file:
     ./pseudo/S.pbe-n-kjpaw_psl.1.0.0.UPF
     MD5 check sum: 8b7b5302570d38d5e87fed6a1065abda
     Pseudo is Projector augmented-wave + core cor, Zval =  6.0
     Generated using 'atomic' code by A. Dal Corso  v.7.2
     Shape of augmentation charge: PSQ
     Using radial grid of 1151 points,  6 beta functions with: 
                l(1) =   0
                l(2) =   0
                l(3) =   1
                l(4) =   1
                l(5) =   2
                l(6) =   2
     Q(r) pseudized with 0 coefficients 


     PseudoPot. # 3 for Pt read from file:
     ./pseudo/Pt.pbe-spfn-kjpaw_psl.1.0.0.UPF
     MD5 check sum: 620096ebf4e6ebacc94de60fd67efcb5
     Pseudo is Projector augmented-wave + core cor, Zval = 32.0
     Generated using 'atomic' code by A. Dal Corso  v.7.2
     Shape of augmentation charge: PSQ
     Using radial grid of 1277 points,  8 beta functions with: 
                l(1) =   0
                l(2) =   0
                l(3) =   1
                l(4) =   1
                l(5) =   2
                l(6) =   2
                l(7) =   3
                l(8) =   3
     Q(r) pseudized with 0 coefficients 


     PseudoPot. # 4 for Pd read from file:
     ./pseudo/Pd.pbe-spn-kjpaw_psl.1.0.0.UPF
     MD5 check sum: a60571a671f2502b8a6a4569d20a6edb
     Pseudo is Projector augmented-wave + core cor, Zval = 18.0
     Generated using 'atomic' code by A. Dal Corso  v.7.2
     Shape of augmentation charge: PSQ
     Using radial grid of 1235 points,  6 beta functions with: 
                l(1) =   0
                l(2) =   0
                l(3) =   1
                l(4) =   1
                l(5) =   2
                l(6) =   2
     Q(r) pseudized with 0 coefficients 


     atomic species   valence    mass     pseudopotential
     Mo               14.00    95.95000     Mo( 1.00)
     S                 6.00    32.06000     S ( 1.00)
     Pt               32.00   195.08400     Pt( 1.00)
     Pd               18.00   106.42000     Pd( 1.00)

     No symmetry found



   Cartesian axes

     site n.     atom                  positions (alat units)
         1        Mo     tau(   1) = (   0.0000010   0.1443372  -0.7272732  )
         2        Mo     tau(   2) = (   0.1249995   0.0721706  -0.2424038  )
         3        S      tau(   3) = (   0.0000015   0.1443386  -0.3667807  )
         4        S      tau(   4) = (   0.1250010   0.0721682  -0.6030489  )
         5        S      tau(   5) = (   0.1250010   0.0721683  -0.8514963  )
         6        S      tau(   6) = (   0.0000015   0.1443389  -0.1180260  )
         7        Mo     tau(   7) = (   0.0000014   0.1443616   0.2424356  )
         8        Mo     tau(   8) = (   0.1250042   0.0720311   0.7263989  )
         9        S      tau(   9) = (   0.0000639   0.1447004   0.6020022  )
        10        S      tau(  10) = (   0.1250030   0.0721650   0.3667578  )
        11        S      tau(  11) = (   0.1250031   0.0721991   0.1180453  )
        12        S      tau(  12) = (  -0.0005532   0.1426765   0.8513101  )
        13        Mo     tau(  13) = (  -0.1249989   0.3608437  -0.7272732  )
        14        Mo     tau(  14) = (   0.0000030   0.2886752  -0.2424042  )
        15        S      tau(  15) = (  -0.1249977   0.3608450  -0.3667802  )
        16        S      tau(  16) = (   0.0000012   0.2886747  -0.6030489  )
        17        S      tau(  17) = (   0.0000012   0.2886748  -0.8514963  )
        18        S      tau(  18) = (  -0.1249977   0.3608454  -0.1180274  )
        19        Mo     tau(  19) = (  -0.1249758   0.3608563   0.2424461  )
        20        Mo     tau(  20) = (  -0.0009250   0.2875651   0.7279418  )
        21        S      tau(  21) = (  -0.1248723   0.3609173   0.6030853  )
        22        S      tau(  22) = (   0.0000474   0.2887247   0.3668317  )
        23        S      tau(  23) = (   0.0000000   0.2886879   0.1180554  )
        24        S      tau(  24) = (  -0.1255989   0.3604976   0.8519229  )
        25        Mo     tau(  25) = (  -0.2499987   0.5773502  -0.7272732  )
        26        Mo     tau(  26) = (  -0.1249977   0.5051839  -0.2424055  )
        27        S      tau(  27) = (  -0.2499981   0.5773518  -0.3667809  )
        28        S      tau(  28) = (  -0.1249986   0.5051812  -0.6030489  )
        29        S      tau(  29) = (  -0.1249986   0.5051813  -0.8514963  )
        30        S      tau(  30) = (  -0.2499979   0.5773512  -0.1180266  )
        31        Mo     tau(  31) = (  -0.2499765   0.5773372   0.2424355  )
        32        Mo     tau(  32) = (  -0.1264232   0.5049348   0.7279418  )
        33        S      tau(  33) = (  -0.2496528   0.5772237   0.6020023  )
        34        S      tau(  34) = (  -0.1249318   0.5051954   0.3668318  )
        35        S      tau(  35) = (  -0.1249873   0.5051727   0.1180553  )
        36        S      tau(  36) = (  -0.2517142   0.5777014   0.8513102  )
        37        Mo     tau(  37) = (  -0.3749985   0.7938567  -0.7272732  )
        38        Mo     tau(  38) = (  -0.2500001   0.7216874  -0.2424031  )
        39        S      tau(  39) = (  -0.3749980   0.7938584  -0.3667800  )
        40        S      tau(  40) = (  -0.2499984   0.7216877  -0.6030489  )
        41        S      tau(  41) = (  -0.2499984   0.7216878  -0.8514963  )
        42        S      tau(  42) = (  -0.3749982   0.7938585  -0.1180264  )
        43        Mo     tau(  43) = (  -0.3749961   0.7938572   0.2423820  )
        44        Mo     tau(  44) = (  -0.2501160   0.7217599   0.7263989  )
        45        S      tau(  45) = (  -0.3749948   0.7938592   0.6019084  )
        46        S      tau(  46) = (  -0.2499995   0.7216903   0.3667578  )
        47        S      tau(  47) = (  -0.2499699   0.7216732   0.1180452  )
        48        S      tau(  48) = (  -0.3749951   0.7938590   0.8508262  )
        49        Mo     tau(  49) = (   0.2500010   0.1443372  -0.7272732  )
        50        Mo     tau(  50) = (   0.3750034   0.0721723  -0.2424032  )
        51        S      tau(  51) = (   0.2500017   0.1443391  -0.3667788  )
        52        S      tau(  52) = (   0.3750010   0.0721682  -0.6030489  )
        53        S      tau(  53) = (   0.3750010   0.0721683  -0.8514963  )
        54        S      tau(  54) = (   0.2500016   0.1443391  -0.1180271  )
        55        Mo     tau(  55) = (   0.2500050   0.1443618   0.2424356  )
        56        Mo     tau(  56) = (   0.3749291   0.0721273   0.7261578  )
        57        S      tau(  57) = (   0.2499446   0.1447002   0.6020022  )
        58        S      tau(  58) = (   0.3750312   0.0721852   0.3667808  )
        59        S      tau(  59) = (   0.3749943   0.0721639   0.1180502  )
        60        S      tau(  60) = (   0.2505615   0.1426764   0.8513103  )
        61        Mo     tau(  61) = (   0.1250012   0.3608437  -0.7272732  )
        62        Mo     tau(  62) = (   0.2500029   0.2886782  -0.2424031  )
        63        S      tau(  63) = (   0.1250024   0.3608455  -0.3667794  )
        64        S      tau(  64) = (   0.2500012   0.2886747  -0.6030489  )
        65        S      tau(  65) = (   0.2500012   0.2886748  -0.8514963  )
        66        S      tau(  66) = (   0.1250021   0.3608455  -0.1180270  )
        67        Mo     tau(  67) = (   0.1250036   0.3608788   0.2424134  )
        68        Mo     tau(  68) = (   0.2509342   0.2875650   0.7279417  )
        69        S      tau(  69) = (   0.1250047   0.3631022   0.6070003  )
        70        S      tau(  70) = (   0.2499595   0.2887248   0.3668321  )
        71        S      tau(  71) = (   0.2500069   0.2886879   0.1180551  )
        72        S      tau(  72) = (   0.1250048   0.3485809   0.8580653  )
        73        Mo     tau(  73) = (   0.0000014   0.5773502  -0.7272732  )
        74        Mo     tau(  74) = (   0.1250045   0.5051840  -0.2424036  )
        75        S      tau(  75) = (   0.0000030   0.5773520  -0.3667799  )
        76        S      tau(  76) = (   0.1250014   0.5051812  -0.6030489  )
        77        S      tau(  77) = (   0.1250014   0.5051813  -0.8514963  )
        78        S      tau(  78) = (   0.0000026   0.5773517  -0.1180274  )
        79        Mo     tau(  79) = (   0.0000336   0.5773337   0.2424134  )
        80        Mo     tau(  80) = (   0.1250049   0.5051837   0.7323431  )
        81        S      tau(  81) = (   0.0019589   0.5762246   0.6070004  )
        82        S      tau(  82) = (   0.1250038   0.5051820   0.3668453  )
        83        S      tau(  83) = (   0.1250038   0.5051819   0.1180162  )
        84        S      tau(  84) = (  -0.0106172   0.5834855   0.8580649  )
        85        Mo     tau(  85) = (  -0.1249984   0.7938567  -0.7272732  )
        86        Mo     tau(  86) = (   0.0000069   0.7216896  -0.2424039  )
        87        S      tau(  87) = (  -0.1249975   0.7938582  -0.3667782  )
        88        S      tau(  88) = (   0.0000016   0.7216877  -0.6030489  )
        89        S      tau(  89) = (   0.0000016   0.7216878  -0.8514963  )
        90        S      tau(  90) = (  -0.1249973   0.7938582  -0.1180279  )
        91        Mo     tau(  91) = (  -0.1249742   0.7938470   0.2424356  )
        92        Mo     tau(  92) = (  -0.0004933   0.7230516   0.7279416  )
        93        S      tau(  93) = (  -0.1247124   0.7936270   0.6020023  )
        94        S      tau(  94) = (   0.0000246   0.7216257   0.3668322  )
        95        S      tau(  95) = (   0.0000165   0.7216852   0.1180552  )
        96        S      tau(  96) = (  -0.1261568   0.7951731   0.8513104  )
        97        Mo     tau(  97) = (   0.5000010   0.1443372  -0.7272732  )
        98        Mo     tau(  98) = (   0.6250001   0.0721662  -0.2424040  )
        99        S      tau(  99) = (   0.5000017   0.1443386  -0.3667801  )
       100        S      tau( 100) = (   0.6250010   0.0721682  -0.6030489  )
       101        S      tau( 101) = (   0.6250010   0.0721683  -0.8514963  )
       102        S      tau( 102) = (   0.5000020   0.1443388  -0.1180261  )
       103        Mo     tau( 103) = (   0.5000076   0.1443402   0.2423934  )
       104        Mo     tau( 104) = (   0.6250040   0.0723531   0.7270557  )
       105        S      tau( 105) = (   0.5002419   0.1444767   0.6022126  )
       106        S      tau( 106) = (   0.6250031   0.0721699   0.3667634  )
       107        S      tau( 107) = (   0.6250031   0.0721381   0.1180360  )
       108        S      tau( 108) = (   0.4998195   0.1442328   0.8511552  )
       109        Mo     tau( 109) = (   0.3750012   0.3608437  -0.7272732  )
       110        Mo     tau( 110) = (   0.4999991   0.2886761  -0.2424038  )
       111        S      tau( 111) = (   0.3750012   0.3608452  -0.3667804  )
       112        S      tau( 112) = (   0.5000012   0.2886747  -0.6030489  )
       113        S      tau( 113) = (   0.5000012   0.2886748  -0.8514963  )
       114        S      tau( 114) = (   0.3750014   0.3608455  -0.1180261  )
       115        Mo     tau( 115) = (   0.3749823   0.3608562   0.2424462  )
       116        Mo     tau( 116) = (   0.5001624   0.2885857   0.7270558  )
       117        S      tau( 117) = (   0.3748813   0.3609171   0.6030850  )
       118        S      tau( 118) = (   0.5000041   0.2886750   0.3667632  )
       119        S      tau( 119) = (   0.4999767   0.2886908   0.1180361  )
       120        S      tau( 120) = (   0.3756080   0.3604978   0.8519227  )
       121        Mo     tau( 121) = (   0.2500014   0.5773502  -0.7272732  )
       122        Mo     tau( 122) = (   0.3749983   0.5051825  -0.2424043  )
       123        S      tau( 123) = (   0.2500017   0.5773519  -0.3667810  )
       124        S      tau( 124) = (   0.3750014   0.5051812  -0.6030489  )
       125        S      tau( 125) = (   0.3750014   0.5051813  -0.8514963  )
       126        S      tau( 126) = (   0.2500018   0.5773519  -0.1180256  )
       127        Mo     tau( 127) = (   0.2499737   0.5773335   0.2424135  )
       128        Mo     tau( 128) = (   0.3764328   0.5049349   0.7279416  )
       129        S      tau( 129) = (   0.2480514   0.5762247   0.6070002  )
       130        S      tau( 130) = (   0.3749389   0.5051953   0.3668317  )
       131        S      tau( 131) = (   0.3749944   0.5051727   0.1180554  )
       132        S      tau( 132) = (   0.2606253   0.5834843   0.8580650  )
       133        Mo     tau( 133) = (   0.1250016   0.7938567  -0.7272732  )
       134        Mo     tau( 134) = (   0.2499995   0.7216883  -0.2424036  )
       135        S      tau( 135) = (   0.1250024   0.7938578  -0.3667813  )
       136        S      tau( 136) = (   0.2500016   0.7216877  -0.6030489  )
       137        S      tau( 137) = (   0.2500016   0.7216878  -0.8514963  )
       138        S      tau( 138) = (   0.1250024   0.7938579  -0.1180253  )
       139        Mo     tau( 139) = (   0.1250038   0.7938330   0.2424463  )
       140        Mo     tau( 140) = (   0.2505035   0.7230514   0.7279415  )
       141        S      tau( 141) = (   0.1250048   0.7937168   0.6030849  )
       142        S      tau( 142) = (   0.2499835   0.7216255   0.3668318  )
       143        S      tau( 143) = (   0.2499914   0.7216850   0.1180556  )
       144        S      tau( 144) = (   0.1250053   0.7945558   0.8519227  )
       145        Mo     tau( 145) = (   0.7500010   0.1443372  -0.7272732  )
       146        Mo     tau( 146) = (   0.8750038   0.0721696  -0.2424038  )
       147        S      tau( 147) = (   0.7500016   0.1443382  -0.3667789  )
       148        S      tau( 148) = (   0.8750010   0.0721682  -0.6030489  )
       149        S      tau( 149) = (   0.8750010   0.0721683  -0.8514963  )
       150        S      tau( 150) = (   0.7500016   0.1443384  -0.1180279  )
       151        Mo     tau( 151) = (   0.7499988   0.1443404   0.2423934  )
       152        Mo     tau( 152) = (   0.8750792   0.0721276   0.7261574  )
       153        S      tau( 153) = (   0.7497661   0.1444769   0.6022124  )
       154        S      tau( 154) = (   0.8749753   0.0721851   0.3667807  )
       155        S      tau( 155) = (   0.8750121   0.0721637   0.1180502  )
       156        S      tau( 156) = (   0.7501887   0.1442327   0.8511550  )
       157        Mo     tau( 157) = (   0.6250012   0.3608437  -0.7272732  )
       158        Mo     tau( 158) = (   0.7500028   0.2886769  -0.2424041  )
       159        S      tau( 159) = (   0.6250015   0.3608451  -0.3667792  )
       160        S      tau( 160) = (   0.7500012   0.2886747  -0.6030489  )
       161        S      tau( 161) = (   0.7500012   0.2886748  -0.8514963  )
       162        S      tau( 162) = (   0.6250016   0.3608454  -0.1180280  )
       163        Mo     tau( 163) = (   0.6250035   0.3608392   0.2423934  )
       164        Mo     tau( 164) = (   0.7498463   0.2885859   0.7270559  )
       165        S      tau( 165) = (   0.6250044   0.3605709   0.6022125  )
       166        S      tau( 166) = (   0.7500026   0.2886750   0.3667635  )
       167        S      tau( 167) = (   0.7500299   0.2886908   0.1180357  )
       168        S      tau( 168) = (   0.6250043   0.3610591   0.8511551  )
       169        Mo     tau( 169) = (   0.5000014   0.5773502  -0.7272732  )
       170        Mo     tau( 170) = (   0.6250029   0.5051841  -0.2424047  )
       171        S      tau( 171) = (   0.5000014   0.5773518  -0.3667794  )
       172        S      tau( 172) = (   0.6250014   0.5051812  -0.6030489  )
       173        S      tau( 173) = (   0.6250014   0.5051813  -0.8514963  )
       174        S      tau( 174) = (   0.5000016   0.5773516  -0.1180277  )
       175        Mo     tau( 175) = (   0.4999838   0.5773372   0.2424356  )
       176        Mo     tau( 176) = (   0.6250048   0.5052701   0.7261575  )
       177        S      tau( 177) = (   0.4996630   0.5772238   0.6020019  )
       178        S      tau( 178) = (   0.6250037   0.5051496   0.3667806  )
       179        S      tau( 179) = (   0.6250036   0.5051921   0.1180503  )
       180        S      tau( 180) = (   0.5017240   0.5777016   0.8513099  )
       181        Mo     tau( 181) = (   0.3750016   0.7938567  -0.7272732  )
       182        Mo     tau( 182) = (   0.5000025   0.7216901  -0.2424039  )
       183        S      tau( 183) = (   0.3750019   0.7938578  -0.3667793  )
       184        S      tau( 184) = (   0.5000016   0.7216877  -0.6030489  )
       185        S      tau( 185) = (   0.5000016   0.7216878  -0.8514963  )
       186        S      tau( 186) = (   0.3750020   0.7938579  -0.1180272  )
       187        Mo     tau( 187) = (   0.3749825   0.7938468   0.2424356  )
       188        Mo     tau( 188) = (   0.5001261   0.7217601   0.7263985  )
       189        S      tau( 189) = (   0.3747228   0.7936274   0.6020018  )
       190        S      tau( 190) = (   0.5000073   0.7216903   0.3667579  )
       191        S      tau( 191) = (   0.4999777   0.7216732   0.1180450  )
       192        S      tau( 192) = (   0.3761670   0.7951734   0.8513099  )
       193        Pt     tau( 193) = (   0.1250041   0.5051825   0.9498857  )
       194        Pd     tau( 194) = (  -0.0009520   0.2875852   0.9788211  )

     --------------------------------------------
     DFT-D3 Dispersion Correction (3-body terms):
     --------------------------------------------
       Reference C6 values for interpolation: 

         atom   Coordination number   C6
         S          0.000           268.01
         S          0.995           261.99
         S          1.990           251.62
         Mo         0.000          1691.79
         Mo         1.942          1004.01
         Mo        11.056           674.22
         Pd         0.000          1217.01
         Pd         1.863           573.90
         Pd         5.710           531.75
         Pt         0.000           782.29
         Pt         1.919           692.72
         Pt         6.667           673.75

       Values used:

         atom   Coordination number  R0_AB[au]  C6      C8
         Mo        10.208            3.547    674.22  77634.20
         Mo        10.221            3.547    674.22  77634.20
         S          3.858            3.128    251.62  12327.25
         S          3.859            3.128    251.62  12327.25
         S          3.758            3.128    251.62  12327.25
         S          3.859            3.128    251.62  12327.25
         Mo        10.220            3.547    674.22  77634.20
         Mo        10.243            3.547    674.22  77634.20
         S          3.845            3.128    251.62  12327.25
         S          3.861            3.128    251.62  12327.25
         S          3.859            3.128    251.62  12327.25
         S          4.746            3.128    251.62  12327.25
         Mo        10.208            3.547    674.22  77634.20
         Mo        10.221            3.547    674.21  77634.20
         S          3.858            3.128    251.62  12327.25
         S          3.859            3.128    251.62  12327.25
         S          3.758            3.128    251.62  12327.25
         S          3.859            3.128    251.62  12327.25
         Mo        10.221            3.547    674.22  77634.20
         Mo        10.605            3.547    674.22  77634.20
         S          3.858            3.128    251.62  12327.25
         S          3.855            3.128    251.62  12327.25
         S          3.859            3.128    251.62  12327.25
         S          4.681            3.128    251.62  12327.25
         Mo        10.208            3.547    674.22  77634.20
         Mo        10.221            3.547    674.22  77634.20
         S          3.858            3.128    251.62  12327.25
         S          3.859            3.128    251.62  12327.25
         S          3.758            3.128    251.62  12327.25
         S          3.859            3.128    251.62  12327.25
         Mo        10.220            3.547    674.22  77634.20
         Mo        10.199            3.547    674.22  77634.20
         S          3.844            3.128    251.62  12327.25
         S          3.855            3.128    251.62  12327.25
         S          3.859            3.128    251.62  12327.25
         S          3.829            3.128    251.62  12327.25
         Mo        10.208            3.547    674.22  77634.20
         Mo        10.221            3.547    674.22  77634.20
         S          3.858            3.128    251.62  12327.25
         S          3.859            3.128    251.62  12327.25
         S          3.758            3.128    251.62  12327.25
         S          3.859            3.128    251.62  12327.25
         Mo        10.219            3.547    674.22  77634.20
         Mo        10.236            3.547    674.22  77634.20
         S          3.852            3.128    251.62  12327.25
         S          3.861            3.128    251.62  12327.25
         S          3.859            3.128    251.62  12327.25
         S          3.792            3.128    251.62  12327.25
         Mo        10.208            3.547    674.22  77634.20
         Mo        10.221            3.547    674.22  77634.20
         S          3.858            3.128    251.62  12327.25
         S          3.859            3.128    251.62  12327.25
         S          3.758            3.128    251.62  12327.25
         S          3.859            3.128    251.62  12327.25
         Mo        10.220            3.547    674.22  77634.20
         Mo        10.250            3.547    674.22  77634.20
         S          3.844            3.128    251.62  12327.25
         S          3.860            3.128    251.62  12327.25
         S          3.859            3.128    251.62  12327.25
         S          3.836            3.128    251.62  12327.25
         Mo        10.208            3.547    674.22  77634.20
         Mo        10.221            3.547    674.22  77634.20
         S          3.858            3.128    251.62  12327.25
         S          3.859            3.128    251.62  12327.25
         S          3.758            3.128    251.62  12327.25
         S          3.859            3.128    251.62  12327.25
         Mo        10.222            3.547    674.22  77634.20
         Mo        10.199            3.547    674.22  77634.20
         S          3.866            3.128    251.62  12327.25
         S          3.855            3.128    251.62  12327.25
         S          3.859            3.128    251.62  12327.25
         S          5.621            3.128    251.62  12327.25
         Mo        10.208            3.547    674.22  77634.20
         Mo        10.221            3.547    674.22  77634.20
         S          3.858            3.128    251.62  12327.25
         S          3.859            3.128    251.62  12327.25
         S          3.758            3.128    251.62  12327.25
         S          3.859            3.128    251.62  12327.25
         Mo        10.222            3.547    674.22  77634.20
         Mo        10.916            3.547    674.22  77634.20
         S          3.865            3.128    251.62  12327.25
         S          3.851            3.128    251.62  12327.25
         S          3.859            3.128    251.62  12327.25
         S          4.667            3.128    251.62  12327.25
         Mo        10.208            3.547    674.22  77634.20
         Mo        10.221            3.547    674.22  77634.20
         S          3.858            3.128    251.62  12327.25
         S          3.859            3.128    251.62  12327.25
         S          3.758            3.128    251.62  12327.25
         S          3.859            3.128    251.62  12327.25
         Mo        10.220            3.547    674.22  77634.20
         Mo        10.192            3.547    674.22  77634.20
         S          3.844            3.128    251.62  12327.25
         S          3.855            3.128    251.62  12327.25
         S          3.859            3.128    251.62  12327.25
         S          3.828            3.128    251.62  12327.25
         Mo        10.208            3.547    674.21  77634.20
         Mo        10.221            3.547    674.22  77634.20
         S          3.858            3.128    251.62  12327.25
         S          3.859            3.128    251.62  12327.25
         S          3.758            3.128    251.62  12327.25
         S          3.859            3.128    251.62  12327.25
         Mo        10.220            3.547    674.21  77634.20
         Mo        10.236            3.547    674.22  77634.20
         S          3.860            3.128    251.62  12327.25
         S          3.860            3.128    251.62  12327.25
         S          3.859            3.128    251.62  12327.25
         S          3.768            3.128    251.62  12327.25
         Mo        10.208            3.547    674.22  77634.20
         Mo        10.221            3.547    674.21  77634.20
         S          3.858            3.128    251.62  12327.25
         S          3.859            3.128    251.62  12327.25
         S          3.758            3.128    251.62  12327.25
         S          3.859            3.128    251.62  12327.25
         Mo        10.221            3.547    674.22  77634.20
         Mo        10.236            3.547    674.22  77634.20
         S          3.857            3.128    251.62  12327.25
         S          3.860            3.128    251.62  12327.25
         S          3.859            3.128    251.62  12327.25
         S          3.758            3.128    251.62  12327.25
         Mo        10.208            3.547    674.22  77634.20
         Mo        10.221            3.547    674.22  77634.20
         S          3.858            3.128    251.62  12327.25
         S          3.859            3.128    251.62  12327.25
         S          3.758            3.128    251.62  12327.25
         S          3.859            3.128    251.62  12327.25
         Mo        10.222            3.547    674.22  77634.20
         Mo        10.192            3.547    674.22  77634.20
         S          3.865            3.128    251.62  12327.25
         S          3.855            3.128    251.62  12327.25
         S          3.859            3.128    251.62  12327.25
         S          4.660            3.128    251.62  12327.25
         Mo        10.208            3.547    674.22  77634.20
         Mo        10.221            3.547    674.22  77634.20
         S          3.858            3.128    251.62  12327.25
         S          3.859            3.128    251.62  12327.25
         S          3.758            3.128    251.62  12327.25
         S          3.859            3.128    251.62  12327.25
         Mo        10.221            3.547    674.22  77634.20
         Mo        10.192            3.547    674.22  77634.20
         S          3.857            3.128    251.62  12327.25
         S          3.855            3.128    251.62  12327.25
         S          3.859            3.128    251.62  12327.25
         S          3.758            3.128    251.62  12327.25
         Mo        10.208            3.547    674.22  77634.20
         Mo        10.221            3.547    674.22  77634.20
         S          3.858            3.128    251.62  12327.25
         S          3.859            3.128    251.62  12327.25
         S          3.758            3.128    251.62  12327.25
         S          3.859            3.128    251.62  12327.25
         Mo        10.220            3.547    674.22  77634.20
         Mo        10.257            3.547    674.22  77634.20
         S          3.860            3.128    251.62  12327.25
         S          3.860            3.128    251.62  12327.25
         S          3.859            3.128    251.62  12327.25
         S          3.777            3.128    251.62  12327.25
         Mo        10.208            3.547    674.22  77634.20
         Mo        10.220            3.547    674.22  77634.20
         S          3.858            3.128    251.62  12327.25
         S          3.859            3.128    251.62  12327.25
         S          3.758            3.128    251.62  12327.25
         S          3.859            3.128    251.62  12327.25
         Mo        10.220            3.547    674.22  77634.20
         Mo        10.243            3.547    674.22  77634.20
         S          3.860            3.128    251.62  12327.25
         S          3.860            3.128    251.62  12327.25
         S          3.859            3.128    251.62  12327.25
         S          3.769            3.128    251.62  12327.25
         Mo        10.208            3.547    674.22  77634.20
         Mo        10.221            3.547    674.22  77634.20
         S          3.858            3.128    251.62  12327.25
         S          3.859            3.128    251.62  12327.25
         S          3.758            3.128    251.62  12327.25
         S          3.859            3.128    251.62  12327.25
         Mo        10.220            3.547    674.22  77634.20
         Mo        10.250            3.547    674.22  77634.20
         S          3.844            3.128    251.62  12327.25
         S          3.860            3.128    251.62  12327.25
         S          3.859            3.128    251.62  12327.25
         S          3.828            3.128    251.62  12327.25
         Mo        10.208            3.547    674.22  77634.20
         Mo        10.221            3.547    674.22  77634.20
         S          3.858            3.128    251.62  12327.25
         S          3.859            3.128    251.62  12327.25
         S          3.758            3.128    251.62  12327.25
         S          3.859            3.128    251.62  12327.25
         Mo        10.220            3.547    674.22  77634.20
         Mo        10.236            3.547    674.22  77634.20
         S          3.844            3.128    251.62  12327.25
         S          3.861            3.128    251.62  12327.25
         S          3.859            3.128    251.62  12327.25
         S          3.829            3.128    251.62  12327.25
         Pt         4.242            3.168    690.25  71777.81
         Pd         3.517            3.168    573.89  52582.08

         Molecular C6 ( Ry / a.u.^6 ) =  13985723.96


     number of k points=     4  Gaussian smearing, width (Ry)=  0.0100
                       cart. coord. in units 2pi/alat
        k(    1) = (   0.0000000   0.0000000   0.0000000), wk =   0.5000000
        k(    2) = (   0.0000000  -0.5773499   0.0000000), wk =   0.5000000
        k(    3) = (  -0.5000000  -0.2886744   0.0000000), wk =   0.5000000
        k(    4) = (  -0.5000000  -0.8660242   0.0000000), wk =   0.5000000

     Dense  grid:  7154885 G-vectors     FFT dimensions: ( 180, 180, 512)

     Smooth grid:  3090769 G-vectors     FFT dimensions: ( 135, 135, 400)

     Estimated max dynamical RAM per process >       4.31 GB

     Estimated total dynamical RAM >     155.10 GB

     Initial potential from superposition of free atoms

     starting charge    1713.9389, renormalised to    1714.0000

     negative rho (up, down):  9.045E-04 0.000E+00
     Starting wfcs are 1179 randomized atomic wfcs
     Checking if some PAW data can be deallocated... 

     total cpu time spent up to now is      179.7 secs

     Self-consistent Calculation

     iteration #  1     ecut=    77.00 Ry     beta= 0.20
     Davidson diagonalization with overlap
     ethr =  1.00E-02,  avg # of iterations =  2.0

     Threshold (ethr) on eigenvalues was too large:
     Diagonalizing with lowered threshold

     Davidson diagonalization with overlap
     ethr =  1.62E-04,  avg # of iterations = 15.8

     negative rho (up, down):  2.470E-04 0.000E+00

     total cpu time spent up to now is     2253.9 secs

     total energy              =  -33980.25679283 Ry
     estimated scf accuracy    <       6.60830418 Ry

     iteration #  2     ecut=    77.00 Ry     beta= 0.20
     Davidson diagonalization with overlap
     ethr =  3.86E-04,  avg # of iterations =  2.0

     negative rho (up, down):  2.643E-05 0.000E+00

     total cpu time spent up to now is     2665.0 secs

     total energy              =  -33978.88310687 Ry
     estimated scf accuracy    <       3.44951205 Ry

     iteration #  3     ecut=    77.00 Ry     beta= 0.20
     Davidson diagonalization with overlap
     c_bands:  1 eigenvalues not converged
     c_bands:  1 eigenvalues not converged
     c_bands:  1 eigenvalues not converged
     ethr =  2.01E-04,  avg # of iterations = 20.0

     negative rho (up, down):  2.194E-05 0.000E+00

     total cpu time spent up to now is     3224.2 secs

     total energy              =  -33979.28088526 Ry
     estimated scf accuracy    <       1.98873967 Ry

     iteration #  4     ecut=    77.00 Ry     beta= 0.20
     Davidson diagonalization with overlap
     c_bands:  1 eigenvalues not converged
     ethr =  1.16E-04,  avg # of iterations = 11.5

     negative rho (up, down):  1.545E-05 0.000E+00

     total cpu time spent up to now is     3713.3 secs

     total energy              =  -33979.52110903 Ry
     estimated scf accuracy    <       0.49232694 Ry

     iteration #  5     ecut=    77.00 Ry     beta= 0.20
     Davidson diagonalization with overlap
     c_bands:  1 eigenvalues not converged
     c_bands:  1 eigenvalues not converged
     c_bands:  1 eigenvalues not converged
     ethr =  2.87E-05,  avg # of iterations = 20.5

     negative rho (up, down):  2.512E-05 0.000E+00

     total cpu time spent up to now is     5580.1 secs

     total energy              =  -33980.23748567 Ry
     estimated scf accuracy    <       0.54437120 Ry

     iteration #  6     ecut=    77.00 Ry     beta= 0.20
     Davidson diagonalization with overlap
     ethr =  2.87E-05,  avg # of iterations =  1.0

     negative rho (up, down):  5.376E-05 0.000E+00

     total cpu time spent up to now is     5953.0 secs

     total energy              =  -33980.17797400 Ry
     estimated scf accuracy    <       0.31877828 Ry

     iteration #  7     ecut=    77.00 Ry     beta= 0.20
     Davidson diagonalization with overlap
     ethr =  1.86E-05,  avg # of iterations =  8.8

     negative rho (up, down):  4.233E-04 0.000E+00

     total cpu time spent up to now is     6387.5 secs

     total energy              =  -33980.14227560 Ry
     estimated scf accuracy    <       0.15530182 Ry

     iteration #  8     ecut=    77.00 Ry     beta= 0.20
     Davidson diagonalization with overlap
     c_bands:  4 eigenvalues not converged
     c_bands:  4 eigenvalues not converged
     c_bands:  5 eigenvalues not converged
     c_bands:  5 eigenvalues not converged
     ethr =  9.06E-06,  avg # of iterations = 20.0

     negative rho (up, down):  3.297E-04 0.000E+00

     total cpu time spent up to now is     7506.4 secs

     total energy              =  -33980.22599879 Ry
     estimated scf accuracy    <       0.85446534 Ry

     iteration #  9     ecut=    77.00 Ry     beta= 0.20
     Davidson diagonalization with overlap
     ethr =  9.06E-06,  avg # of iterations = 17.2

     negative rho (up, down):  2.422E-04 0.000E+00

     total cpu time spent up to now is     7999.9 secs

     total energy              =  -33980.22046563 Ry
     estimated scf accuracy    <       0.11897234 Ry

     iteration # 10     ecut=    77.00 Ry     beta= 0.20
     Davidson diagonalization with overlap
     ethr =  6.94E-06,  avg # of iterations =  7.0

     negative rho (up, down):  2.377E-04 0.000E+00

     total cpu time spent up to now is     8459.2 secs

     total energy              =  -33980.22396500 Ry
     estimated scf accuracy    <       0.02102241 Ry

     iteration # 11     ecut=    77.00 Ry     beta= 0.20
     Davidson diagonalization with overlap
     c_bands:  5 eigenvalues not converged
     ethr =  1.23E-06,  avg # of iterations = 36.5

     negative rho (up, down):  3.099E-04 0.000E+00

     total cpu time spent up to now is    11572.1 secs

     total energy              =  -33980.28983705 Ry
     estimated scf accuracy    <       0.08692477 Ry

     iteration # 12     ecut=    77.00 Ry     beta= 0.20
     Davidson diagonalization with overlap
     ethr =  1.23E-06,  avg # of iterations = 18.0

     negative rho (up, down):  4.945E-04 0.000E+00

     total cpu time spent up to now is    12282.9 secs

     total energy              =  -33980.26501646 Ry
     estimated scf accuracy    <       0.04349789 Ry

     iteration # 13     ecut=    77.00 Ry     beta= 0.20
     Davidson diagonalization with overlap
     c_bands:  3 eigenvalues not converged
     c_bands:  3 eigenvalues not converged
     ethr =  1.23E-06,  avg # of iterations = 45.8

     negative rho (up, down):  8.330E-04 0.000E+00

     total cpu time spent up to now is    13760.2 secs

     total energy              =  -33980.29891787 Ry
     estimated scf accuracy    <       0.00404777 Ry

     iteration # 14     ecut=    77.00 Ry     beta= 0.20
     Davidson diagonalization with overlap
     c_bands:  2 eigenvalues not converged
     c_bands:  2 eigenvalues not converged
     ethr =  2.36E-07,  avg # of iterations = 19.5

     negative rho (up, down):  7.775E-04 0.000E+00

     total cpu time spent up to now is    15782.9 secs

     total energy              =  -33980.29566679 Ry
     estimated scf accuracy    <       0.09443215 Ry

     iteration # 15     ecut=    77.00 Ry     beta= 0.20
     Davidson diagonalization with overlap
     ethr =  2.36E-07,  avg # of iterations = 16.2

     negative rho (up, down):  8.280E-04 0.000E+00

     total cpu time spent up to now is    16636.2 secs

     total energy              =  -33980.28533689 Ry
     estimated scf accuracy    <       0.04725767 Ry

     iteration # 16     ecut=    77.00 Ry     beta= 0.20
     Davidson diagonalization with overlap
     ethr =  2.36E-07,  avg # of iterations = 10.2

     negative rho (up, down):  7.847E-04 0.000E+00

     total cpu time spent up to now is    17463.2 secs

     total energy              =  -33980.28349245 Ry
     estimated scf accuracy    <       0.01498909 Ry

     iteration # 17     ecut=    77.00 Ry     beta= 0.20
     Davidson diagonalization with overlap
     ethr =  2.36E-07,  avg # of iterations = 10.2

     negative rho (up, down):  7.401E-04 0.000E+00

     total cpu time spent up to now is    18227.9 secs

     total energy              =  -33980.28409039 Ry
     estimated scf accuracy    <       0.00255785 Ry

     iteration # 18     ecut=    77.00 Ry     beta= 0.20
     Davidson diagonalization with overlap
     c_bands:  1 eigenvalues not converged
     ethr =  1.49E-07,  avg # of iterations = 18.5

     negative rho (up, down):  8.408E-04 0.000E+00

     total cpu time spent up to now is    19480.9 secs

     total energy              =  -33980.28665249 Ry
     estimated scf accuracy    <       0.00787214 Ry

     iteration # 19     ecut=    77.00 Ry     beta= 0.20
     Davidson diagonalization with overlap
     ethr =  1.49E-07,  avg # of iterations =  6.0

     negative rho (up, down):  8.609E-04 0.000E+00

     total cpu time spent up to now is    20013.9 secs

     total energy              =  -33980.28675697 Ry
     estimated scf accuracy    <       0.00179877 Ry

     iteration # 20     ecut=    77.00 Ry     beta= 0.20
     Davidson diagonalization with overlap
     ethr =  1.05E-07,  avg # of iterations =  7.5

     negative rho (up, down):  8.692E-04 0.000E+00

     total cpu time spent up to now is    20539.1 secs

     total energy              =  -33980.28684130 Ry
     estimated scf accuracy    <       0.00060008 Ry

     iteration # 21     ecut=    77.00 Ry     beta= 0.20
     Davidson diagonalization with overlap
     ethr =  3.50E-08,  avg # of iterations = 10.2

     negative rho (up, down):  8.712E-04 0.000E+00

     total cpu time spent up to now is    21279.3 secs

     total energy              =  -33980.28739809 Ry
     estimated scf accuracy    <       0.00003056 Ry

     iteration # 22     ecut=    77.00 Ry     beta= 0.20
     Davidson diagonalization with overlap
     c_bands:  5 eigenvalues not converged
     c_bands:  2 eigenvalues not converged
     c_bands:  4 eigenvalues not converged
     ethr =  1.78E-09,  avg # of iterations = 25.2

     negative rho (up, down):  8.679E-04 0.000E+00

     total cpu time spent up to now is    22995.5 secs

     total energy              =  -33980.28750296 Ry
     estimated scf accuracy    <       0.00000741 Ry

     iteration # 23     ecut=    77.00 Ry     beta= 0.20
     Davidson diagonalization with overlap
     c_bands:  2 eigenvalues not converged
     ethr =  4.32E-10,  avg # of iterations = 19.2

     negative rho (up, down):  8.768E-04 0.000E+00

     total cpu time spent up to now is    24213.6 secs

     total energy              =  -33980.28754017 Ry
     estimated scf accuracy    <       0.00004564 Ry

     iteration # 24     ecut=    77.00 Ry     beta= 0.20
     Davidson diagonalization with overlap
     ethr =  4.32E-10,  avg # of iterations = 12.5

     negative rho (up, down):  8.891E-04 0.000E+00

     total cpu time spent up to now is    25240.0 secs

     total energy              =  -33980.28753321 Ry
     estimated scf accuracy    <       0.00015525 Ry

     iteration # 25     ecut=    77.00 Ry     beta= 0.20
     Davidson diagonalization with overlap
     ethr =  4.32E-10,  avg # of iterations =  1.5

     negative rho (up, down):  8.967E-04 0.000E+00

     total cpu time spent up to now is    25628.9 secs

     total energy              =  -33980.28749546 Ry
     estimated scf accuracy    <       0.00012972 Ry

     iteration # 26     ecut=    77.00 Ry     beta= 0.20
     Davidson diagonalization with overlap
     ethr =  4.32E-10,  avg # of iterations = 14.8

     negative rho (up, down):  8.987E-04 0.000E+00

     total cpu time spent up to now is    26373.1 secs

     total energy              =  -33980.28747710 Ry
     estimated scf accuracy    <       0.00005607 Ry

     iteration # 27     ecut=    77.00 Ry     beta= 0.20
     Davidson diagonalization with overlap
     ethr =  4.32E-10,  avg # of iterations = 11.5

     negative rho (up, down):  8.989E-04 0.000E+00

     total cpu time spent up to now is    27352.2 secs

     total energy              =  -33980.28748278 Ry
     estimated scf accuracy    <       0.00000638 Ry

     iteration # 28     ecut=    77.00 Ry     beta= 0.20
     Davidson diagonalization with overlap
     ethr =  3.72E-10,  avg # of iterations = 12.8

     negative rho (up, down):  8.987E-04 0.000E+00

     total cpu time spent up to now is    28047.0 secs

     total energy              =  -33980.28748680 Ry
     estimated scf accuracy    <       0.00000189 Ry

     iteration # 29     ecut=    77.00 Ry     beta= 0.20
     Davidson diagonalization with overlap
     ethr =  1.10E-10,  avg # of iterations = 14.5

     negative rho (up, down):  8.978E-04 0.000E+00

     total cpu time spent up to now is    28805.2 secs

     total energy              =  -33980.28748796 Ry
     estimated scf accuracy    <       0.00000258 Ry

     iteration # 30     ecut=    77.00 Ry     beta= 0.20
     Davidson diagonalization with overlap
     ethr =  1.10E-10,  avg # of iterations =  1.0

     negative rho (up, down):  8.989E-04 0.000E+00

     total cpu time spent up to now is    29176.0 secs

     total energy              =  -33980.28748700 Ry
     estimated scf accuracy    <       0.00000109 Ry

     iteration # 31     ecut=    77.00 Ry     beta= 0.20
     Davidson diagonalization with overlap
     ethr =  6.36E-11,  avg # of iterations = 10.0

     negative rho (up, down):  9.020E-04 0.000E+00

     total cpu time spent up to now is    29658.8 secs

     End of self-consistent calculation

          k = 0.0000 0.0000 0.0000 (386245 PWs)   bands (ev):

  -103.0502 -88.3407 -71.3713 -71.3590 -71.3493 -71.3370 -71.3296 -71.3231
   -71.3155 -66.6234 -66.6233 -66.6222 -66.6221 -66.6104 -66.6032 -66.6022
   -66.6021 -66.6021 -66.6021 -66.6021 -66.6021 -66.6020 -66.6020 -66.6020
   -66.6020 -66.6020 -66.6018 -66.6010 -66.6008 -66.6008 -66.6008 -66.6008
   -66.6008 -66.6008 -66.5960 -66.5884 -66.5878 -66.5809 -66.5808 -66.5807
   -66.5807 -66.5807 -66.5807 -66.5807 -66.5807 -66.5807 -66.5806 -66.5806
   -66.5806 -66.5806 -66.5806 -66.5806 -66.5805 -66.5805 -66.5805 -66.5804
   -66.5794 -66.5794 -66.5794 -66.5794 -66.5794 -66.5793 -66.5793 -66.5793
   -66.5793 -66.5780 -66.5718 -66.5649 -66.5583 -66.5548 -66.5504 -66.5434
   -66.5368 -57.2959 -57.2829 -57.2459 -54.2019 -54.1505 -54.0759 -40.9508
   -40.9508 -40.9508 -40.9508 -40.9507 -40.9507 -40.9501 -40.9501 -40.9501
   -40.9425 -40.9411 -40.9353 -40.8756 -40.8755 -40.8755 -40.8754 -40.8754
   -40.8754 -40.8754 -40.8754 -40.8754 -40.8754 -40.8754 -40.8753 -40.8748
   -40.8748 -40.8748 -40.8748 -40.8747 -40.8747 -40.8703 -40.8682 -40.8632
   -40.8591 -40.8445 -40.8430 -40.8039 -40.7830 -40.7829 -40.7824 -40.7795
   -40.7525 -40.7493 -40.7492 -40.7491 -40.7491 -40.7491 -40.7491 -40.7491
   -40.7491 -40.7491 -40.7490 -40.7490 -40.7489 -40.7483 -40.7483 -40.7483
   -40.7483 -40.7483 -40.7483 -40.7470 -40.7455 -40.7443 -40.7435 -40.7414
   -40.7414 -40.7414 -40.7413 -40.7412 -40.7412 -40.7412 -40.7412 -40.7412
   -40.7412 -40.7412 -40.7411 -40.7411 -40.7406 -40.7406 -40.7406 -40.7406
   -40.7406 -40.7406 -40.7400 -40.7339 -40.7300 -40.7278 -40.7145 -40.7142
   -40.7141 -40.7141 -40.7141 -40.7141 -40.7141 -40.7141 -40.7141 -40.7140
   -40.7140 -40.7140 -40.7139 -40.7132 -40.7132 -40.7132 -40.7132 -40.7132
   -40.7132 -40.7131 -40.7117 -40.7079 -40.7074 -40.7015 -40.6995 -40.6995
   -40.6994 -40.6993 -40.6993 -40.6993 -40.6993 -40.6993 -40.6993 -40.6993
   -40.6993 -40.6992 -40.6992 -40.6992 -40.6992 -40.6992 -40.6992 -40.6991
   -40.6991 -40.6989 -40.6986 -40.6986 -40.6986 -40.6986 -40.6986 -40.6986
   -40.6985 -40.6985 -40.6985 -40.6985 -40.6923 -40.6920 -40.6874 -40.6854
   -40.6806 -40.6798 -40.6789 -40.6358 -40.6357 -40.6357 -40.6357 -40.6357
   -40.6356 -40.6348 -40.6348 -40.6348 -40.6245 -40.6222 -40.6192 -40.5888
   -40.5887 -40.5887 -40.5886 -40.5886 -40.5886 -40.5886 -40.5886 -40.5886
   -40.5885 -40.5885 -40.5884 -40.5876 -40.5876 -40.5876 -40.5876 -40.5876
   -40.5876 -40.5748 -40.5735 -40.5682 -40.5673 -40.5627 -40.5600 -40.5410
   -40.5410 -40.5410 -40.5410 -40.5400 -40.5400 -40.5143 -40.5091 -20.1710
   -20.0948 -19.9931 -19.8874 -19.5448 -19.3440 -19.3126 -19.2552 -19.2504
   -19.2474 -19.2367 -19.2318 -19.2297 -19.2049 -19.1944 -19.1857 -19.1499
   -19.1414 -19.1393 -19.1215 -19.1116 -19.1009 -19.0451 -19.0400 -19.0391
   -19.0331 -19.0293 -19.0244 -18.9105 -18.8047 -18.7305 -18.6348 -18.5954
   -18.5583 -18.5068 -18.4948 -18.4782 -18.4699 -18.4476 -18.4346 -18.4191
   -18.4022 -18.3946 -18.3636 -18.3360 -18.3244 -18.2857 -18.2849 -18.2759
   -18.2519 -18.2422 -18.2375 -18.1912 -18.1845 -18.1822 -18.1739 -18.1729
   -18.1716 -18.1434 -18.1265 -18.1220 -18.1210 -18.1192 -18.1183 -18.1174
   -18.1044 -18.0929 -18.0890 -18.0853 -18.0817 -18.0811 -18.0760 -18.0758
   -18.0744 -18.0659 -18.0511 -18.0505 -18.0493 -18.0476 -18.0444 -18.0341
   -18.0291 -18.0285 -18.0154 -18.0102 -18.0048 -18.0043 -18.0001 -17.9981
   -17.9880 -17.9852 -17.9850 -17.9563 -17.9472 -17.9430 -17.9326 -17.9211
   -17.9193 -17.9176 -17.9165 -17.9143 -17.8954 -17.8932 -17.8895 -17.8785
   -17.8748 -17.8708 -17.8686 -17.8661 -17.8627 -17.8577 -17.8567 -17.8558
   -17.8403 -17.8400 -17.8393 -17.8285 -17.8273 -17.8247 -17.8229 -17.8213
   -17.8191 -17.7962 -17.7961 -17.7951 -17.7946 -17.7938 -17.7931 -12.1480
   -12.0150 -11.9279 -11.8746 -11.8075 -11.7991 -11.7841 -11.7723 -11.6832
   -11.6719 -11.6646 -11.5628 -11.5599 -11.5531 -11.5168 -11.4250 -11.3816
   -11.3369 -11.2932 -11.2414 -11.2390 -11.2368 -11.2338 -11.2312 -11.2179
   -11.1556 -11.1456 -11.1338 -11.1325 -11.1306 -11.1256 -11.1185 -11.1143
   -11.0924 -11.0742 -11.0707 -11.0671 -11.0620 -11.0603 -11.0560 -11.0540
   -11.0484 -11.0402 -11.0304 -11.0219 -11.0104 -10.9794 -10.9725 -10.9562
   -10.9508 -10.9451 -10.9340 -10.9143 -10.9053 -10.8972 -10.8934 -10.8901
   -10.8751 -10.8693 -10.8597 -10.8502 -10.8488 -10.8460 -10.8403 -10.8351
   -10.8338 -10.8288 -10.8284 -10.8275 -10.8198 -10.8100 -10.8086 -10.8054
   -10.8043 -10.8030 -10.8008 -10.7812 -10.7807 -10.7763 -10.7748 -10.7707
   -10.7695 -10.7651 -10.7551 -10.7528 -10.7372 -10.7370 -10.7354 -10.7349
   -10.7328 -10.7313 -10.6689 -10.6635 -10.6571 -10.6176 -10.5997 -10.5949
   -10.5844 -10.5793 -10.5773 -10.5409 -10.4792 -10.2668 -10.1869 -10.1708
   -10.1258 -10.0896  -9.9741  -9.9629  -9.9063  -9.8892  -9.8489  -9.8221
    -9.8115  -9.8041  -9.8016  -9.7950  -9.7787  -9.7738  -9.7710  -9.7701
    -9.7669  -9.7624  -9.7604  -9.7556  -9.7516  -9.7487  -9.7452  -9.7403
    -9.7371  -9.7248  -9.7076  -9.6967  -9.6698  -9.6447  -9.6311  -9.6299
    -9.6282  -9.6256  -9.6189  -9.6182  -9.6178  -9.6169  -9.6161  -9.6144
    -9.6127  -9.6095  -9.6006  -9.5759  -9.5541  -9.5409  -9.5407  -9.5406
    -9.5402  -9.5400  -9.5397  -9.5371  -9.5297  -9.5181  -9.5177  -9.5040
    -9.5000  -9.4787  -9.4718  -9.4526  -9.4465  -9.4073  -9.3659  -9.3649
    -9.3634  -9.3574  -9.3463  -9.3388  -9.3327  -9.3315  -9.3229  -9.3129
    -9.3046  -9.2938  -9.2663  -9.2467  -9.2390  -9.2335  -9.2209  -9.2145
    -9.2078  -9.1863  -9.1839  -9.1812  -9.1797  -9.1769  -9.1762  -9.1561
    -9.1350  -9.1325  -9.1229  -9.1033  -9.0994  -9.0659  -9.0465  -9.0101
    -8.9822  -8.9814  -8.9784  -8.9653  -8.9581  -8.9518  -8.9488  -8.9470
    -8.9386  -8.9286  -8.9164  -8.9160  -8.9144  -8.9102  -8.9039  -8.8957
    -8.8842  -8.8803  -8.8650  -8.8205  -8.8205  -8.8201  -8.8200  -8.8198
    -8.8192  -8.7641  -8.7511  -8.7499  -8.7441  -8.7411  -8.7259  -8.7075
    -8.6730  -8.6666  -8.6657  -8.6620  -8.6570  -8.6422  -8.5979  -8.5949
    -8.5916  -8.5904  -8.5895  -8.5856  -8.5508  -8.5314  -8.4512  -8.3914
    -8.3655  -8.3655  -8.3617  -8.3607  -8.3599  -8.3543  -8.3541  -8.3470
    -8.3422  -8.2995  -8.2827  -8.2751  -8.2748  -8.2747  -8.2745  -8.2725
    -8.2670  -8.2495  -8.2483  -8.2480  -8.2474  -8.2450  -8.2417  -8.2218
    -8.2202  -8.2199  -8.2196  -8.2186  -8.2177  -8.1973  -8.1525  -8.0972
    -8.0093  -7.9359  -7.8617  -7.8573  -7.8553  -7.7975  -7.7743  -7.7662
    -7.7450  -7.7089  -7.6952  -7.6865  -7.6480  -7.6448  -7.6418  -7.6354
    -7.6250  -7.6203  -7.6182  -7.6129  -7.5993  -7.5937  -7.5822  -7.5637
    -7.5576  -7.5467  -7.5391  -7.5385  -7.5337  -7.5330  -7.5329  -7.5323
    -7.5287  -7.5207  -7.5078  -7.5075  -7.5060  -7.5056  -7.5038  -7.4977
    -7.4891  -7.4839  -7.4817  -7.4811  -7.4810  -7.4802  -7.4785  -7.4717
    -7.4613  -7.4497  -7.4308  -7.4273  -7.4186  -7.4134  -7.4108  -7.4060
    -7.4056  -7.3988  -7.3622  -7.3511  -7.3492  -7.3308  -7.3235  -7.3147
    -7.3096  -7.3035  -7.2966  -7.2935  -7.2901  -7.2865  -7.2856  -7.2812
    -7.2500  -7.2495  -7.2485  -7.2311  -7.2308  -7.2127  -7.2127  -7.1776
    -7.1445  -7.1416  -7.1062  -7.0945  -7.0792  -7.0672  -7.0465  -6.9794
    -6.9474  -6.9035  -6.8812  -6.8643  -6.8559  -6.8439  -6.8275  -6.7885
    -6.7784  -6.7776  -6.7678  -6.7366  -6.7108  -6.6980  -6.6966  -6.6907
    -6.6697  -6.6331  -6.6269  -6.6222  -6.6209  -6.6199  -6.6091  -6.6078
    -6.5755  -6.5679  -6.5673  -6.5606  -6.5505  -6.5407  -6.5310  -6.5216
    -6.5152  -6.5135  -6.5121  -6.5091  -6.5075  -6.5053  -6.5039  -6.5023
    -6.4965  -6.4964  -6.4962  -6.4961  -6.4958  -6.4954  -6.4846  -6.4709
    -6.4521  -6.4424  -6.4344  -6.4115  -6.4087  -6.4083  -6.4024  -6.3801
    -6.3638  -6.3428  -6.3368  -6.3321  -6.3311  -6.3286  -6.3263  -6.3203
    -6.3107  -6.2971  -6.2928  -6.2879  -6.2865  -6.2839  -6.2776  -6.2633
    -6.2552  -6.2520  -6.2513  -6.2504  -6.2487  -6.2434  -6.2325  -6.1754
    -6.0449  -5.9185  -5.8037  -5.6366  -5.5886  -5.4654  -5.4553  -5.3112
    -5.1500  -4.2220  -3.9407  -3.8512  -3.8502  -3.8458  -3.8427  -3.8297
    -3.8267  -3.8248  -3.8241  -3.8216  -3.8196  -3.8014  -3.7706  -3.7022
    -3.6991  -3.6863  -3.6840  -3.6820  -3.6778  -3.6742  -3.6738  -3.6730
    -3.6699  -3.5778  -3.5495  -3.5167  -3.5097  -3.5059  -3.4999  -3.4908
    -3.4820  -3.4776  -3.4732  -3.4714  -3.4705  -3.4675  -3.4640  -3.4557
    -3.4513  -3.4477  -3.4455  -3.4415  -3.4409  -3.4408  -3.4346  -3.4266
    -3.4262  -3.4249  -3.4158  -3.4115  -3.4103  -3.4092  -3.4061  -3.4056
    -3.3998  -3.3991  -3.3978  -3.3917  -3.3872  -3.3572  -3.3510  -3.3501
    -3.3477  -3.3437  -3.3419  -3.3400  -3.3387  -3.3333  -3.3311  -3.3148
    -3.3065  -3.2901  -3.2856  -3.2828  -3.2813  -3.2794  -3.2694  -3.2557
    -3.2369  -3.2215  -3.2036  -3.2010  -3.1925  -3.0835  -3.0801  -3.0720
    -3.0601  -3.0580  -3.0570  -3.0500  -3.0444  -3.0420  -3.0366  -3.0110
    -3.0016  -2.9953  -2.9752  -2.9731  -2.9718  -2.9703  -2.9699  -2.9661
    -2.9631  -2.9626  -2.9613  -2.9611  -2.9531  -2.9525  -2.9505  -2.9448
    -2.9382  -2.9354  -2.9325  -2.9321  -2.9312  -2.9294  -2.9289  -2.9278
    -2.9275  -2.9195  -2.9157  -2.8919  -2.8866  -2.8836  -2.8701  -2.8647
    -2.8617  -2.8578  -2.8538  -2.8430  -2.8043  -2.8042  -2.8041  -2.8038
    -2.8037  -2.8036  -2.8029  -2.8021  -2.8007  -2.7838  -2.7827  -2.7741
    -2.7569  -2.7447  -2.7348  -2.7309  -2.7260  -2.7154  -2.7136  -2.6699
    -2.6645  -2.6392  -2.6381  -2.6280  -2.6195  -2.6192  -2.6147  -2.6127
    -2.6113  -2.5866  -2.5648  -2.5532  -2.5395  -2.5367  -2.5348  -2.4260
    -2.4158  -2.4114  -2.4056  -2.4034

          k = 0.0000-0.5773 0.0000 (386352 PWs)   bands (ev):

  -103.0502 -88.3407 -71.3713 -71.3590 -71.3493 -71.3370 -71.3296 -71.3231
   -71.3155 -66.6197 -66.6171 -66.6171 -66.6171 -66.6171 -66.6159 -66.6158
   -66.6153 -66.6065 -66.6065 -66.6065 -66.6064 -66.6052 -66.6052 -66.6026
   -66.5985 -66.5953 -66.5920 -66.5915 -66.5914 -66.5914 -66.5914 -66.5914
   -66.5913 -66.5913 -66.5913 -66.5901 -66.5901 -66.5901 -66.5901 -66.5869
   -66.5869 -66.5869 -66.5869 -66.5857 -66.5856 -66.5856 -66.5808 -66.5807
   -66.5807 -66.5806 -66.5806 -66.5806 -66.5806 -66.5806 -66.5805 -66.5794
   -66.5794 -66.5794 -66.5793 -66.5769 -66.5762 -66.5762 -66.5762 -66.5762
   -66.5749 -66.5749 -66.5721 -66.5650 -66.5583 -66.5549 -66.5504 -66.5437
   -66.5367 -57.2959 -57.2829 -57.2459 -54.2019 -54.1505 -54.0760 -40.9211
   -40.9193 -40.9191 -40.9191 -40.9191 -40.9191 -40.9191 -40.9190 -40.9190
   -40.9185 -40.9185 -40.9185 -40.9185 -40.9126 -40.9074 -40.8924 -40.8923
   -40.8923 -40.8923 -40.8916 -40.8916 -40.8898 -40.8882 -40.8836 -40.8803
   -40.8803 -40.8802 -40.8802 -40.8796 -40.8796 -40.8634 -40.8471 -40.8296
   -40.8296 -40.8296 -40.8296 -40.8296 -40.8296 -40.8295 -40.8295 -40.8288
   -40.8288 -40.8288 -40.8288 -40.8161 -40.8131 -40.8080 -40.8024 -40.7944
   -40.7773 -40.7709 -40.7708 -40.7708 -40.7707 -40.7702 -40.7702 -40.7660
   -40.7613 -40.7613 -40.7613 -40.7612 -40.7604 -40.7604 -40.7499 -40.7499
   -40.7499 -40.7499 -40.7493 -40.7493 -40.7493 -40.7435 -40.7410 -40.7395
   -40.7272 -40.7232 -40.7204 -40.7203 -40.7203 -40.7203 -40.7203 -40.7203
   -40.7203 -40.7202 -40.7196 -40.7196 -40.7196 -40.7196 -40.7174 -40.7151
   -40.7116 -40.7116 -40.7116 -40.7115 -40.7109 -40.7109 -40.7088 -40.7032
   -40.7013 -40.6998 -40.6998 -40.6998 -40.6997 -40.6994 -40.6993 -40.6992
   -40.6992 -40.6992 -40.6992 -40.6992 -40.6992 -40.6989 -40.6989 -40.6986
   -40.6986 -40.6986 -40.6985 -40.6969 -40.6931 -40.6906 -40.6906 -40.6906
   -40.6906 -40.6899 -40.6899 -40.6878 -40.6858 -40.6815 -40.6786 -40.6690
   -40.6689 -40.6689 -40.6689 -40.6689 -40.6689 -40.6688 -40.6687 -40.6680
   -40.6680 -40.6679 -40.6679 -40.6593 -40.6587 -40.6537 -40.6490 -40.6342
   -40.6341 -40.6341 -40.6341 -40.6341 -40.6341 -40.6341 -40.6341 -40.6332
   -40.6332 -40.6332 -40.6332 -40.6232 -40.6220 -40.6220 -40.6220 -40.6219
   -40.6210 -40.6210 -40.6179 -40.6124 -40.6093 -40.6032 -40.6027 -40.6027
   -40.6026 -40.6025 -40.6017 -40.6017 -40.5916 -40.5910 -40.5857 -40.5857
   -40.5857 -40.5856 -40.5847 -40.5847 -40.5799 -40.5627 -40.5551 -40.5550
   -40.5550 -40.5549 -40.5540 -40.5540 -40.5464 -40.5411 -40.5185 -20.0124
   -19.8929 -19.8656 -19.8372 -19.7667 -19.7438 -19.6575 -19.6482 -19.4884
   -19.4712 -19.4242 -19.4161 -19.3331 -19.3238 -19.2311 -19.2254 -19.0810
   -18.8904 -18.8585 -18.7760 -18.7474 -18.7400 -18.7230 -18.7195 -18.7189
   -18.7057 -18.6872 -18.6608 -18.6515 -18.6476 -18.6324 -18.6231 -18.5920
   -18.5835 -18.5702 -18.5542 -18.5502 -18.5458 -18.5319 -18.5164 -18.5094
   -18.4849 -18.4782 -18.4719 -18.4678 -18.4389 -18.4109 -18.4080 -18.4014
   -18.3808 -18.3685 -18.3647 -18.3337 -18.3225 -18.3187 -18.2895 -18.2549
   -18.2474 -18.2394 -18.2320 -18.1983 -18.1916 -18.1784 -18.1639 -18.1340
   -18.1202 -18.1157 -18.1097 -18.1027 -18.1000 -18.0965 -18.0956 -18.0874
   -18.0733 -18.0718 -18.0680 -18.0641 -18.0630 -18.0548 -18.0489 -18.0444
   -18.0411 -18.0388 -18.0303 -18.0082 -18.0069 -18.0026 -17.9995 -17.9982
   -17.9942 -17.9932 -17.9887 -17.9849 -17.9763 -17.9461 -17.9426 -17.9350
   -17.9330 -17.9284 -17.9196 -17.8909 -17.8882 -17.8824 -17.8744 -17.8515
   -17.8468 -17.8434 -17.8386 -17.8336 -17.8223 -17.8175 -17.8174 -17.8169
   -17.8159 -17.8151 -17.8128 -17.8029 -17.8010 -17.7835 -17.7810 -17.7593
   -17.7572 -17.7403 -17.7373 -17.7255 -17.7236 -17.7176 -17.7174 -12.0163
   -11.8561 -11.7415 -11.7129 -11.7039 -11.5789 -11.5559 -11.5224 -11.4995
   -11.4971 -11.4924 -11.4812 -11.4789 -11.4733 -11.4565 -11.4060 -11.3984
   -11.3857 -11.3827 -11.3781 -11.3502 -11.3363 -11.3196 -11.3166 -11.2948
   -11.2780 -11.2755 -11.2713 -11.2605 -11.2576 -11.2548 -11.2492 -11.2448
   -11.2105 -11.2023 -11.1955 -11.1906 -11.1850 -11.1706 -11.1677 -11.1648
   -11.1589 -11.1446 -11.1445 -11.1309 -11.1157 -11.0951 -11.0785 -11.0770
   -11.0606 -11.0561 -11.0247 -10.9922 -10.9762 -10.9534 -10.9481 -10.9213
   -10.9136 -10.9107 -10.9049 -10.8897 -10.8626 -10.8457 -10.8349 -10.8338
   -10.8265 -10.8174 -10.8108 -10.8104 -10.8101 -10.8083 -10.8058 -10.7989
   -10.7985 -10.7927 -10.7917 -10.7899 -10.7896 -10.7829 -10.7825 -10.7795
   -10.7729 -10.7425 -10.7421 -10.7410 -10.7402 -10.6982 -10.6275 -10.5610
   -10.5448 -10.5298 -10.5274 -10.5013 -10.4754 -10.4149 -10.3924 -10.3044
   -10.2838 -10.2448 -10.2103 -10.1651 -10.1464 -10.1349 -10.1307 -10.1128
   -10.1081 -10.0919 -10.0837 -10.0559 -10.0510 -10.0340 -10.0331 -10.0299
   -10.0240 -10.0159 -10.0065  -9.9823  -9.9724  -9.9325  -9.9297  -9.9252
    -9.9138  -9.9090  -9.8974  -9.8907  -9.8877  -9.8631  -9.8571  -9.8460
    -9.8371  -9.8067  -9.7950  -9.7804  -9.7765  -9.7653  -9.7623  -9.7437
    -9.7330  -9.7068  -9.7003  -9.6815  -9.6770  -9.6534  -9.6527  -9.6262
    -9.6174  -9.6142  -9.6002  -9.5881  -9.5683  -9.5631  -9.5530  -9.5443
    -9.5350  -9.5314  -9.5243  -9.4944  -9.4897  -9.4870  -9.4728  -9.4713
    -9.4658  -9.4595  -9.4572  -9.4529  -9.4409  -9.4313  -9.4278  -9.3976
    -9.3772  -9.3602  -9.3381  -9.2964  -9.2841  -9.2583  -9.2251  -9.2153
    -9.2090  -9.2028  -9.1937  -9.1850  -9.1744  -9.1553  -9.1477  -9.1326
    -9.1225  -9.1186  -9.1028  -9.0835  -9.0628  -9.0530  -9.0476  -9.0388
    -9.0365  -9.0340  -9.0273  -8.9898  -8.9855  -8.9823  -8.9655  -8.9535
    -8.9469  -8.9461  -8.9370  -8.9263  -8.9074  -8.8948  -8.8893  -8.8868
    -8.8853  -8.8828  -8.8805  -8.8756  -8.8689  -8.8672  -8.8642  -8.8628
    -8.8563  -8.8545  -8.8502  -8.8417  -8.8382  -8.8376  -8.8325  -8.8171
    -8.8086  -8.7911  -8.7897  -8.7874  -8.7842  -8.7825  -8.7805  -8.7611
    -8.7598  -8.7405  -8.7378  -8.7309  -8.7288  -8.7250  -8.7146  -8.6993
    -8.6542  -8.6471  -8.6379  -8.6178  -8.5875  -8.5085  -8.5021  -8.4961
    -8.4503  -8.4386  -8.4092  -8.3863  -8.3539  -8.3399  -8.2889  -8.2795
    -8.2275  -8.2031  -8.1575  -8.1256  -8.1255  -8.1168  -8.1164  -8.1053
    -8.1053  -8.0941  -8.0652  -8.0462  -8.0207  -7.9712  -7.9688  -7.9552
    -7.9342  -7.8899  -7.8703  -7.8458  -7.8422  -7.8385  -7.8324  -7.8264
    -7.8182  -7.8132  -7.8090  -7.8020  -7.8002  -7.7972  -7.7935  -7.7908
    -7.7897  -7.7860  -7.7803  -7.7790  -7.7737  -7.7715  -7.7674  -7.7664
    -7.7633  -7.7628  -7.7604  -7.7575  -7.7563  -7.7559  -7.7432  -7.7373
    -7.7340  -7.7279  -7.7245  -7.7200  -7.7182  -7.6952  -7.6946  -7.6940
    -7.6933  -7.6661  -7.6647  -7.6638  -7.6627  -7.6596  -7.6535  -7.6476
    -7.6402  -7.6305  -7.6147  -7.6080  -7.6060  -7.6033  -7.6015  -7.5995
    -7.5923  -7.5834  -7.5814  -7.5711  -7.5624  -7.5613  -7.5603  -7.5484
    -7.5429  -7.5357  -7.4962  -7.4630  -7.4582  -7.4509  -7.4503  -7.4300
    -7.4082  -7.3539  -7.2887  -7.2103  -7.1874  -7.1735  -7.1673  -7.1669
    -7.1576  -7.1377  -7.1309  -7.1168  -7.1107  -7.0993  -7.0939  -7.0651
    -7.0530  -7.0434  -7.0313  -7.0204  -7.0117  -7.0069  -6.9926  -6.9770
    -6.9738  -6.9599  -6.9380  -6.9128  -6.9054  -6.8899  -6.8824  -6.8789
    -6.8588  -6.8575  -6.8532  -6.8321  -6.8245  -6.8107  -6.7727  -6.7684
    -6.7497  -6.7328  -6.7300  -6.6864  -6.6812  -6.6432  -6.6371  -6.6187
    -6.6142  -6.6065  -6.6034  -6.6029  -6.6007  -6.5935  -6.5870  -6.5855
    -6.5841  -6.5826  -6.5773  -6.5768  -6.5766  -6.5764  -6.5669  -6.5435
    -6.5225  -6.4970  -6.4839  -6.4605  -6.4242  -6.4085  -6.3586  -6.3274
    -6.3196  -6.3168  -6.3131  -6.2971  -6.2913  -6.2787  -6.2748  -6.2738
    -6.2703  -6.2699  -6.2654  -6.2533  -6.2487  -6.2464  -6.2298  -6.2254
    -6.2113  -6.2025  -6.1995  -6.1955  -6.1897  -6.0622  -6.0399  -6.0035
    -5.9826  -5.9706  -5.9411  -5.9138  -5.9011  -5.8543  -5.8485  -5.8402
    -5.7545  -5.7197  -5.6772  -5.6381  -5.6000  -5.5903  -5.5470  -5.4499
    -5.3944  -4.2606  -4.1011  -4.0904  -4.0863  -4.0611  -3.9645  -3.9262
    -3.9234  -3.9158  -3.9078  -3.8625  -3.8393  -3.8385  -3.8246  -3.8221
    -3.8081  -3.8060  -3.7965  -3.7954  -3.7942  -3.7410  -3.7183  -3.6856
    -3.6804  -3.6461  -3.6112  -3.5992  -3.5978  -3.5968  -3.5940  -3.5515
    -3.5502  -3.5480  -3.5365  -3.5233  -3.5174  -3.5140  -3.5092  -3.5057
    -3.4963  -3.4803  -3.4780  -3.4727  -3.4686  -3.4671  -3.4666  -3.4587
    -3.4440  -3.4436  -3.4323  -3.4205  -3.4168  -3.4152  -3.4028  -3.3784
    -3.3694  -3.3534  -3.3451  -3.3439  -3.3411  -3.3407  -3.3371  -3.3350
    -3.3121  -3.2981  -3.2922  -3.2872  -3.2824  -3.2793  -3.2764  -3.2733
    -3.2710  -3.2667  -3.2560  -3.2440  -3.2388  -3.2338  -3.2291  -3.2269
    -3.2246  -3.2126  -3.2086  -3.2045  -3.1985  -3.1903  -3.1794  -3.1754
    -3.1687  -3.1670  -3.1630  -3.1581  -3.1578  -3.1487  -3.1396  -3.1201
    -3.0940  -3.0878  -3.0727  -3.0665  -3.0652  -3.0613  -3.0550  -3.0240
    -3.0217  -3.0192  -3.0191  -3.0174  -3.0159  -3.0102  -3.0086  -3.0076
    -3.0028  -3.0000  -2.9970  -2.9870  -2.9832  -2.9817  -2.9745  -2.9722
    -2.9700  -2.9656  -2.9632  -2.9571  -2.9543  -2.9439  -2.9428  -2.9390
    -2.9376  -2.9312  -2.9266  -2.9202  -2.9097  -2.8948  -2.8909  -2.8820
    -2.8801  -2.8763  -2.8709  -2.8608  -2.8403  -2.7946  -2.7909  -2.7853
    -2.7815  -2.7461  -2.7260  -2.7115  -2.7045  -2.6178  -2.6069  -2.5880
    -2.5761  -2.5678  -2.5503  -2.5487  -2.5409  -2.5313  -2.5257  -2.5227
    -2.5224  -2.5180  -2.4981  -2.4158  -2.4095  -2.3958  -2.3906  -2.3839
    -2.3804  -2.3652  -2.3556  -2.3367

          k =-0.5000-0.2887 0.0000 (386352 PWs)   bands (ev):

  -103.0502 -88.3407 -71.3713 -71.3590 -71.3493 -71.3370 -71.3296 -71.3231
   -71.3155 -66.6191 -66.6172 -66.6171 -66.6171 -66.6170 -66.6161 -66.6159
   -66.6158 -66.6065 -66.6065 -66.6065 -66.6064 -66.6052 -66.6052 -66.6031
   -66.5975 -66.5953 -66.5914 -66.5914 -66.5914 -66.5914 -66.5914 -66.5913
   -66.5913 -66.5913 -66.5908 -66.5901 -66.5901 -66.5901 -66.5901 -66.5872
   -66.5870 -66.5869 -66.5869 -66.5868 -66.5856 -66.5856 -66.5812 -66.5808
   -66.5807 -66.5807 -66.5806 -66.5806 -66.5806 -66.5806 -66.5805 -66.5794
   -66.5794 -66.5794 -66.5793 -66.5770 -66.5762 -66.5762 -66.5762 -66.5762
   -66.5749 -66.5749 -66.5714 -66.5652 -66.5582 -66.5547 -66.5506 -66.5437
   -66.5367 -57.2959 -57.2829 -57.2459 -54.2019 -54.1505 -54.0759 -40.9192
   -40.9192 -40.9191 -40.9191 -40.9191 -40.9191 -40.9191 -40.9191 -40.9185
   -40.9185 -40.9185 -40.9185 -40.9160 -40.9157 -40.9060 -40.8929 -40.8924
   -40.8923 -40.8923 -40.8923 -40.8917 -40.8916 -40.8889 -40.8850 -40.8803
   -40.8803 -40.8802 -40.8802 -40.8796 -40.8796 -40.8659 -40.8444 -40.8296
   -40.8296 -40.8296 -40.8296 -40.8296 -40.8295 -40.8295 -40.8295 -40.8288
   -40.8288 -40.8288 -40.8288 -40.8200 -40.8108 -40.8047 -40.8002 -40.7953
   -40.7741 -40.7709 -40.7708 -40.7707 -40.7707 -40.7705 -40.7702 -40.7702
   -40.7613 -40.7613 -40.7613 -40.7612 -40.7604 -40.7604 -40.7505 -40.7499
   -40.7499 -40.7499 -40.7499 -40.7493 -40.7493 -40.7435 -40.7395 -40.7356
   -40.7276 -40.7249 -40.7210 -40.7203 -40.7203 -40.7203 -40.7203 -40.7203
   -40.7203 -40.7203 -40.7203 -40.7196 -40.7196 -40.7196 -40.7196 -40.7164
   -40.7116 -40.7116 -40.7116 -40.7115 -40.7109 -40.7109 -40.7056 -40.7036
   -40.6998 -40.6998 -40.6998 -40.6997 -40.6994 -40.6994 -40.6993 -40.6993
   -40.6993 -40.6992 -40.6992 -40.6992 -40.6992 -40.6989 -40.6989 -40.6986
   -40.6986 -40.6986 -40.6985 -40.6975 -40.6928 -40.6906 -40.6906 -40.6906
   -40.6906 -40.6899 -40.6899 -40.6879 -40.6857 -40.6822 -40.6781 -40.6691
   -40.6689 -40.6689 -40.6689 -40.6689 -40.6688 -40.6688 -40.6687 -40.6680
   -40.6680 -40.6679 -40.6679 -40.6587 -40.6572 -40.6540 -40.6528 -40.6342
   -40.6341 -40.6341 -40.6341 -40.6341 -40.6341 -40.6341 -40.6341 -40.6332
   -40.6332 -40.6332 -40.6332 -40.6256 -40.6220 -40.6220 -40.6220 -40.6219
   -40.6210 -40.6210 -40.6166 -40.6128 -40.6107 -40.6028 -40.6027 -40.6026
   -40.6025 -40.6017 -40.6017 -40.5999 -40.5941 -40.5914 -40.5857 -40.5857
   -40.5857 -40.5856 -40.5847 -40.5847 -40.5765 -40.5646 -40.5550 -40.5550
   -40.5550 -40.5549 -40.5540 -40.5540 -40.5431 -40.5405 -40.5208 -20.0166
   -19.8895 -19.8657 -19.8321 -19.7667 -19.7400 -19.6575 -19.6470 -19.5159
   -19.4626 -19.4275 -19.4114 -19.3354 -19.3209 -19.2315 -19.2246 -19.0675
   -18.8884 -18.8507 -18.7848 -18.7531 -18.7393 -18.7232 -18.7197 -18.7185
   -18.7106 -18.6866 -18.6591 -18.6537 -18.6503 -18.6303 -18.6222 -18.6005
   -18.5767 -18.5718 -18.5539 -18.5513 -18.5449 -18.5301 -18.5231 -18.5096
   -18.4803 -18.4774 -18.4723 -18.4660 -18.4396 -18.4114 -18.4049 -18.4045
   -18.3829 -18.3796 -18.3493 -18.3322 -18.3202 -18.3142 -18.2803 -18.2576
   -18.2523 -18.2438 -18.2297 -18.1983 -18.1952 -18.1827 -18.1630 -18.1339
   -18.1219 -18.1145 -18.1109 -18.1013 -18.0997 -18.0969 -18.0957 -18.0871
   -18.0721 -18.0709 -18.0674 -18.0649 -18.0626 -18.0545 -18.0486 -18.0466
   -18.0405 -18.0386 -18.0300 -18.0089 -18.0069 -18.0034 -17.9997 -17.9969
   -17.9954 -17.9930 -17.9877 -17.9848 -17.9762 -17.9469 -17.9442 -17.9355
   -17.9326 -17.9276 -17.9186 -17.8910 -17.8896 -17.8822 -17.8733 -17.8511
   -17.8475 -17.8426 -17.8367 -17.8337 -17.8231 -17.8178 -17.8170 -17.8169
   -17.8161 -17.8149 -17.8128 -17.8030 -17.8013 -17.7838 -17.7809 -17.7595
   -17.7571 -17.7405 -17.7372 -17.7256 -17.7235 -17.7176 -17.7174 -12.0342
   -11.8524 -11.7287 -11.7068 -11.6849 -11.5907 -11.5415 -11.5145 -11.5066
   -11.4971 -11.4951 -11.4840 -11.4693 -11.4664 -11.4439 -11.4272 -11.4100
   -11.3893 -11.3799 -11.3617 -11.3487 -11.3362 -11.3313 -11.3180 -11.3085
   -11.2815 -11.2760 -11.2699 -11.2602 -11.2581 -11.2557 -11.2532 -11.2469
   -11.2115 -11.2040 -11.2013 -11.1920 -11.1824 -11.1681 -11.1673 -11.1657
   -11.1560 -11.1453 -11.1445 -11.1353 -11.1209 -11.1058 -11.0778 -11.0667
   -11.0594 -11.0506 -11.0308 -10.9978 -10.9643 -10.9539 -10.9338 -10.9252
   -10.9188 -10.9007 -10.8957 -10.8883 -10.8761 -10.8590 -10.8350 -10.8328
   -10.8290 -10.8188 -10.8121 -10.8102 -10.8097 -10.8086 -10.8070 -10.8048
   -10.7957 -10.7939 -10.7921 -10.7903 -10.7895 -10.7827 -10.7822 -10.7793
   -10.7774 -10.7425 -10.7418 -10.7411 -10.7408 -10.6893 -10.6593 -10.5420
   -10.5374 -10.5284 -10.5257 -10.4886 -10.4663 -10.3969 -10.3765 -10.3207
   -10.2808 -10.2572 -10.2446 -10.1616 -10.1526 -10.1301 -10.1291 -10.1122
   -10.1024 -10.0884 -10.0804 -10.0544 -10.0451 -10.0354 -10.0310 -10.0267
   -10.0254 -10.0138 -10.0078  -9.9895  -9.9707  -9.9444  -9.9300  -9.9222
    -9.9131  -9.9049  -9.8975  -9.8904  -9.8797  -9.8713  -9.8561  -9.8516
    -9.8253  -9.8154  -9.7988  -9.7806  -9.7776  -9.7645  -9.7618  -9.7381
    -9.7321  -9.7180  -9.6929  -9.6864  -9.6764  -9.6543  -9.6508  -9.6191
    -9.6166  -9.6130  -9.5960  -9.5922  -9.5670  -9.5657  -9.5463  -9.5428
    -9.5385  -9.5318  -9.5177  -9.4913  -9.4890  -9.4868  -9.4715  -9.4687
    -9.4641  -9.4594  -9.4558  -9.4529  -9.4356  -9.4327  -9.4217  -9.3949
    -9.3698  -9.3598  -9.3446  -9.3018  -9.2777  -9.2546  -9.2371  -9.2163
    -9.2135  -9.2071  -9.1994  -9.1939  -9.1622  -9.1564  -9.1443  -9.1361
    -9.1227  -9.1108  -9.0997  -9.0891  -9.0882  -9.0610  -9.0479  -9.0409
    -9.0318  -9.0303  -9.0229  -8.9995  -8.9851  -8.9759  -8.9730  -8.9540
    -8.9475  -8.9449  -8.9368  -8.9241  -8.9134  -8.8928  -8.8888  -8.8882
    -8.8872  -8.8837  -8.8758  -8.8714  -8.8687  -8.8670  -8.8642  -8.8596
    -8.8553  -8.8539  -8.8505  -8.8421  -8.8381  -8.8375  -8.8329  -8.8218
    -8.8049  -8.7913  -8.7887  -8.7879  -8.7861  -8.7816  -8.7799  -8.7616
    -8.7583  -8.7502  -8.7317  -8.7305  -8.7273  -8.7247  -8.7135  -8.6993
    -8.6557  -8.6470  -8.6398  -8.6064  -8.5943  -8.5046  -8.5013  -8.4807
    -8.4457  -8.4442  -8.4353  -8.3769  -8.3574  -8.3462  -8.2921  -8.2741
    -8.2577  -8.1801  -8.1259  -8.1257  -8.1177  -8.1171  -8.1071  -8.1064
    -8.1034  -8.0970  -8.0738  -8.0532  -8.0374  -7.9951  -7.9687  -7.9637
    -7.9242  -7.8865  -7.8745  -7.8467  -7.8391  -7.8352  -7.8314  -7.8240
    -7.8149  -7.8109  -7.8077  -7.8029  -7.8005  -7.7964  -7.7931  -7.7918
    -7.7881  -7.7848  -7.7821  -7.7794  -7.7767  -7.7710  -7.7675  -7.7663
    -7.7634  -7.7622  -7.7622  -7.7567  -7.7560  -7.7555  -7.7462  -7.7363
    -7.7318  -7.7267  -7.7258  -7.7196  -7.7188  -7.6951  -7.6943  -7.6939
    -7.6933  -7.6656  -7.6650  -7.6646  -7.6626  -7.6572  -7.6545  -7.6453
    -7.6358  -7.6302  -7.6157  -7.6064  -7.6058  -7.5994  -7.5972  -7.5956
    -7.5897  -7.5832  -7.5811  -7.5761  -7.5619  -7.5617  -7.5580  -7.5497
    -7.5440  -7.5393  -7.4718  -7.4573  -7.4552  -7.4530  -7.4479  -7.4334
    -7.3892  -7.3234  -7.2987  -7.2405  -7.2081  -7.1762  -7.1669  -7.1661
    -7.1604  -7.1589  -7.1244  -7.1148  -7.1095  -7.1080  -7.0983  -7.0759
    -7.0526  -7.0411  -7.0296  -7.0261  -7.0190  -6.9970  -6.9926  -6.9746
    -6.9742  -6.9593  -6.9336  -6.9174  -6.9114  -6.8943  -6.8833  -6.8745
    -6.8628  -6.8569  -6.8533  -6.8481  -6.8285  -6.8119  -6.7708  -6.7655
    -6.7487  -6.7454  -6.7059  -6.6766  -6.6629  -6.6519  -6.6339  -6.6234
    -6.6183  -6.6048  -6.6034  -6.6024  -6.6021  -6.5878  -6.5858  -6.5853
    -6.5847  -6.5819  -6.5774  -6.5768  -6.5766  -6.5766  -6.5612  -6.5148
    -6.5125  -6.5038  -6.4732  -6.4476  -6.4366  -6.4078  -6.3958  -6.3241
    -6.3222  -6.3181  -6.3148  -6.3055  -6.2995  -6.2754  -6.2751  -6.2724
    -6.2710  -6.2699  -6.2679  -6.2549  -6.2499  -6.2463  -6.2339  -6.2231
    -6.2105  -6.2027  -6.2014  -6.1927  -6.1882  -6.0840  -6.0176  -5.9971
    -5.9772  -5.9744  -5.9322  -5.9103  -5.8960  -5.8529  -5.8478  -5.8375
    -5.7553  -5.7226  -5.6797  -5.6417  -5.5957  -5.5939  -5.5437  -5.4632
    -5.3912  -4.2543  -4.1041  -4.0909  -4.0824  -4.0596  -3.9651  -3.9311
    -3.9199  -3.9166  -3.9071  -3.8601  -3.8398  -3.8383  -3.8255  -3.8217
    -3.8091  -3.8055  -3.8001  -3.7954  -3.7942  -3.7521  -3.7166  -3.6877
    -3.6823  -3.6475  -3.6133  -3.6001  -3.5971  -3.5966  -3.5924  -3.5644
    -3.5500  -3.5483  -3.5341  -3.5250  -3.5192  -3.5156  -3.5093  -3.5039
    -3.4919  -3.4819  -3.4760  -3.4739  -3.4708  -3.4682  -3.4663  -3.4565
    -3.4439  -3.4415  -3.4339  -3.4209  -3.4163  -3.4138  -3.3995  -3.3899
    -3.3596  -3.3521  -3.3487  -3.3425  -3.3399  -3.3382  -3.3365  -3.3323
    -3.3088  -3.3036  -3.2886  -3.2881  -3.2829  -3.2790  -3.2770  -3.2736
    -3.2718  -3.2678  -3.2537  -3.2434  -3.2402  -3.2339  -3.2305  -3.2283
    -3.2249  -3.2095  -3.2073  -3.2045  -3.1924  -3.1889  -3.1829  -3.1799
    -3.1703  -3.1664  -3.1628  -3.1581  -3.1580  -3.1550  -3.1344  -3.1120
    -3.0884  -3.0858  -3.0710  -3.0669  -3.0634  -3.0610  -3.0543  -3.0242
    -3.0222  -3.0197  -3.0187  -3.0170  -3.0157  -3.0105  -3.0091  -3.0073
    -3.0022  -3.0008  -2.9966  -2.9875  -2.9828  -2.9802  -2.9753  -2.9726
    -2.9707  -2.9649  -2.9606  -2.9565  -2.9531  -2.9437  -2.9430  -2.9385
    -2.9371  -2.9299  -2.9257  -2.9209  -2.9078  -2.9000  -2.8951  -2.8844
    -2.8792  -2.8753  -2.8710  -2.8614  -2.8456  -2.7972  -2.7926  -2.7851
    -2.7821  -2.7479  -2.7238  -2.7103  -2.7085  -2.6238  -2.6059  -2.5914
    -2.5722  -2.5690  -2.5590  -2.5557  -2.5399  -2.5326  -2.5302  -2.5229
    -2.5220  -2.5203  -2.5037  -2.4215  -2.4043  -2.3980  -2.3956  -2.3884
    -2.3816  -2.3720  -2.3533  -2.3389

          k =-0.5000-0.8660 0.0000 (386352 PWs)   bands (ev):

  -103.0502 -88.3407 -71.3713 -71.3590 -71.3493 -71.3370 -71.3296 -71.3231
   -71.3155 -66.6208 -66.6172 -66.6171 -66.6171 -66.6171 -66.6159 -66.6158
   -66.6126 -66.6065 -66.6065 -66.6065 -66.6064 -66.6052 -66.6052 -66.6042
   -66.6003 -66.5960 -66.5916 -66.5914 -66.5914 -66.5914 -66.5914 -66.5914
   -66.5912 -66.5912 -66.5901 -66.5901 -66.5901 -66.5901 -66.5883 -66.5870
   -66.5869 -66.5869 -66.5869 -66.5860 -66.5856 -66.5856 -66.5811 -66.5808
   -66.5807 -66.5807 -66.5807 -66.5806 -66.5806 -66.5806 -66.5804 -66.5794
   -66.5794 -66.5794 -66.5793 -66.5772 -66.5762 -66.5762 -66.5762 -66.5762
   -66.5749 -66.5749 -66.5726 -66.5647 -66.5583 -66.5552 -66.5503 -66.5435
   -66.5367 -57.2959 -57.2829 -57.2459 -54.2019 -54.1505 -54.0760 -40.9265
   -40.9193 -40.9191 -40.9191 -40.9191 -40.9191 -40.9191 -40.9191 -40.9190
   -40.9185 -40.9185 -40.9185 -40.9185 -40.9103 -40.9016 -40.8924 -40.8923
   -40.8923 -40.8922 -40.8917 -40.8916 -40.8911 -40.8849 -40.8803 -40.8803
   -40.8802 -40.8802 -40.8801 -40.8796 -40.8796 -40.8672 -40.8519 -40.8296
   -40.8296 -40.8296 -40.8296 -40.8296 -40.8296 -40.8295 -40.8295 -40.8288
   -40.8288 -40.8288 -40.8288 -40.8159 -40.8150 -40.8130 -40.8028 -40.7911
   -40.7777 -40.7709 -40.7708 -40.7708 -40.7707 -40.7702 -40.7702 -40.7647
   -40.7613 -40.7613 -40.7613 -40.7612 -40.7604 -40.7604 -40.7509 -40.7499
   -40.7499 -40.7499 -40.7499 -40.7493 -40.7493 -40.7421 -40.7408 -40.7364
   -40.7270 -40.7210 -40.7204 -40.7204 -40.7203 -40.7203 -40.7203 -40.7203
   -40.7202 -40.7202 -40.7200 -40.7196 -40.7196 -40.7196 -40.7196 -40.7122
   -40.7117 -40.7116 -40.7115 -40.7115 -40.7109 -40.7109 -40.7099 -40.7042
   -40.7010 -40.6998 -40.6998 -40.6998 -40.6997 -40.6994 -40.6994 -40.6993
   -40.6993 -40.6993 -40.6992 -40.6992 -40.6990 -40.6989 -40.6989 -40.6986
   -40.6986 -40.6986 -40.6985 -40.6978 -40.6932 -40.6906 -40.6906 -40.6906
   -40.6906 -40.6899 -40.6899 -40.6867 -40.6847 -40.6809 -40.6789 -40.6691
   -40.6689 -40.6689 -40.6688 -40.6688 -40.6688 -40.6688 -40.6687 -40.6680
   -40.6680 -40.6679 -40.6679 -40.6635 -40.6581 -40.6533 -40.6437 -40.6342
   -40.6341 -40.6341 -40.6341 -40.6341 -40.6341 -40.6341 -40.6341 -40.6332
   -40.6332 -40.6332 -40.6332 -40.6235 -40.6220 -40.6220 -40.6220 -40.6219
   -40.6210 -40.6210 -40.6165 -40.6146 -40.6115 -40.6039 -40.6028 -40.6027
   -40.6026 -40.6025 -40.6017 -40.6017 -40.5891 -40.5873 -40.5857 -40.5857
   -40.5857 -40.5856 -40.5847 -40.5847 -40.5847 -40.5658 -40.5550 -40.5550
   -40.5550 -40.5550 -40.5540 -40.5540 -40.5472 -40.5430 -40.5143 -20.0224
[...]
     atom  170 type  1   force =    -0.00001147   -0.00001380    0.00000661
     atom  171 type  2   force =    -0.00000371    0.00000280    0.00000479
     atom  172 type  2   force =     0.00000005    0.00000278    0.00161504
     atom  173 type  2   force =    -0.00000012    0.00000230   -0.00235907
     atom  174 type  2   force =    -0.00000163   -0.00000049   -0.00000247
     atom  175 type  1   force =     0.00000664    0.00000917    0.00001651
     atom  176 type  1   force =     0.00001767   -0.00001884    0.00001785
     atom  177 type  2   force =    -0.00003487   -0.00008123    0.00007906
     atom  178 type  2   force =     0.00001962   -0.00000274    0.00000159
     atom  179 type  2   force =     0.00000011   -0.00001038    0.00000857
     atom  180 type  2   force =     0.00007209    0.00006544    0.00005057
     atom  181 type  1   force =     0.00000196    0.00000216    0.00068849
     atom  182 type  1   force =    -0.00000912   -0.00000834   -0.00000055
     atom  183 type  2   force =    -0.00000177    0.00000128    0.00000515
     atom  184 type  2   force =    -0.00000000    0.00000284    0.00161507
     atom  185 type  2   force =    -0.00000018    0.00000233   -0.00235916
     atom  186 type  2   force =    -0.00000133   -0.00000050   -0.00000336
     atom  187 type  1   force =     0.00000124   -0.00000347    0.00002305
     atom  188 type  1   force =     0.00005343    0.00000444   -0.00004664
     atom  189 type  2   force =    -0.00015352    0.00000572    0.00011523
     atom  190 type  2   force =     0.00000388    0.00001068    0.00000845
     atom  191 type  2   force =     0.00000272    0.00000136    0.00001104
     atom  192 type  2   force =     0.00010757   -0.00000653    0.00003715
     atom  193 type  3   force =    -0.00036961   -0.00061691   -0.00040469
     atom  194 type  4   force =     0.00012975   -0.00026747   -0.00036216

     Total force =     0.002036     Total SCF correction =     0.000599
     SCF correction compared to forces is large: reduce conv_thr to get better values
     Energy error            =      4.2E-06 Ry
     Gradient error          =      6.5E-04 Ry/Bohr

     bfgs converged in  25 scf cycles and  24 bfgs steps
     (criteria: energy <  1.0E-04 Ry, force <  1.0E-03 Ry/Bohr)

     End of BFGS Geometry Optimization

     Final energy             =  -33980.2985032488 Ry

     File ./outdir/pwscf.bfgs deleted, as requested
Begin final coordinates

ATOMIC_POSITIONS (angstrom)
Mo               0.0000119917        1.8193638619       -9.1672481230    0   0   0
Mo               1.5756136568        0.9097075315       -3.0554901653    0   0   0
S                0.0000188998        1.8193822938       -4.6232556019    0   0   0
S                1.5756321638        0.9096773839       -7.6014065489    0   0   0
S                1.5756326175        0.9096785128      -10.7330757790    0   0   0
S                0.0000189190        1.8193860094       -1.4877129945    0   0   0
Mo               0.0000062240        1.8193761449        3.0561489421
Mo               1.5781170371        0.9025438255        9.1714022476
S               -0.0038205990        1.8338229528        7.6289141149
S                1.5750629596        0.9095722739        4.6237609752
S                1.5757305987        0.9094695511        1.4884652004
S               -0.0052402491        1.7431098470       10.7957502913
Mo              -1.5756053507        4.5484193819       -9.1672481230    0   0   0
Mo               0.0000378379        3.6387394919       -3.0554952701    0   0   0
S               -1.5755913433        4.5484363582       -4.6232494962    0   0   0
S                0.0000148214        3.6387329039       -7.6014065489    0   0   0
S                0.0000152751        3.6387340328      -10.7330757790    0   0   0
S               -1.5755906502        4.5484413613       -1.4877305502    0   0   0
Mo              -1.5751440946        4.5481227690        3.0568980948
Mo              -0.0098331156        3.6210210324        9.2123564852
S               -1.5635166621        4.5429614762        7.6326401768
S                0.0005180630        3.6384788690        4.6249649709
S                0.0000439144        3.6387059044        1.4886000332
S               -1.6580791683        4.5869253065       10.7694879348
Mo              -3.1512226931        7.2774749019       -9.1672481230    0   0   0
Mo              -1.5755910988        6.3678216792       -3.0555115988    0   0   0
S               -3.1512162438        7.2774954350       -4.6232578178    0   0   0
S               -1.5756025210        6.3677884239       -7.6014065489    0   0   0
S               -1.5756020673        6.3677895528      -10.7330757790    0   0   0
S               -3.1512127704        7.2774877076       -1.4877200710    0   0   0
Mo              -3.1509708388        7.2770388968        3.0568858957
Mo              -1.6031072023        6.3789414076        9.1786047192
S               -3.1545895892        7.2794067342        7.5856452271
S               -1.5750440586        6.3672269207        4.6252460414
S               -1.5754490065        6.3674605435        1.4891479854
S               -3.1835438022        7.2926941717       10.7328609838
Mo              -4.7268400355       10.0065304219       -9.1672481230    0   0   0
Mo              -3.1512405618        9.0968403586       -3.0554816746    0   0   0
S               -4.7268341792       10.0065523623       -4.6232463762    0   0   0
S               -3.1512198634        9.0968439439       -7.6014065489    0   0   0
S               -3.1512194097        9.0968450728      -10.7330757790    0   0   0
S               -4.7268370797       10.0065537885       -1.4877176751    0   0   0
Mo              -4.7269135373       10.0062851481        3.0561172770
Mo              -3.1558015980        9.0992775832        9.1554948859
S               -4.7341051201       10.0102518575        7.5928375798
S               -3.1513237197        9.0967608371        4.6238927541
S               -3.1509788255        9.0962987194        1.4888042191
S               -4.7230264984        9.9983126526       10.7342478950
Mo               3.1512517547        1.8193638619       -9.1672481230    0   0   0
Mo               4.7269020221        0.9097289540       -3.0554823951    0   0   0
S                3.1512612351        1.8193882564       -4.6232320683    0   0   0
S                4.7268719268        0.9096773839       -7.6014065489    0   0   0
S                4.7268723805        0.9096785128      -10.7330757790    0   0   0
S                3.1512592485        1.8193890201       -1.4877261251    0   0   0
Mo               3.1512815345        1.8190523801        3.0565522024
Mo               4.7301309417        0.9031106061        9.1453950267
S                3.1494046348        1.8041225508        7.5772954632
S                4.7275102813        0.9093654321        4.6236466007
S                4.7269594150        0.9090734643        1.4886164061
S                3.1730608601        1.7995415867       10.7229202229
Mo               1.5756344123        4.5484193819       -9.1672481230    0   0   0
Mo               3.1512756394        3.6387769522       -3.0554814834    0   0   0
S                1.5756504879        4.5484423799       -4.6232390542    0   0   0
S                3.1512545844        3.6387329039       -7.6014065489    0   0   0
S                3.1512550381        3.6387340328      -10.7330757790    0   0   0
S                1.5756466253        4.5484431864       -1.4877251801    0   0   0
Mo               1.5756135842        4.5482137809        3.0564986589
Mo               3.1962450599        3.6127279994        9.1501339403
S                1.5644091002        4.5602074214        7.6632520368
S                3.1509270196        3.6386595496        4.6245942997
S                3.1513626958        3.6383898053        1.4888011654
S                1.6846568529        4.4407873727       10.7662895929
Mo               0.0000170699        7.2774749019       -9.1672481230    0   0   0
Mo               1.5756764447        6.3678236689       -3.0554877708    0   0   0
S                0.0000381981        7.2774979204       -4.6232454413    0   0   0
S                1.5756372420        6.3677884239       -7.6014065489    0   0   0
S                1.5756376957        6.3677895528      -10.7330757790    0   0   0
S                0.0000328088        7.2774946042       -1.4877307940    0   0   0
Mo               0.0003476135        7.2767502008        3.0569254793
Mo               1.5822631491        6.3773131654        9.2189664291
S                0.0148937483        7.2663339726        7.6442143025
S                1.5758999625        6.3670938550        4.6251889534
S                1.5754681159        6.3673529888        1.4885831251
S               -0.1118856067        7.3492947707       10.7971938266
Mo              -1.5756002725       10.0065304219       -9.1672481230    0   0   0
Mo               0.0000873425        9.0968676911       -3.0554912329    0   0   0
S               -1.5755883952       10.0065504530       -4.6232240150    0   0   0
S                0.0000198996        9.0968439439       -7.6014065489    0   0   0
S                0.0000203533        9.0968450728      -10.7330757790    0   0   0
S               -1.5755859047       10.0065492576       -1.4877362381    0   0   0
Mo              -1.5752398718       10.0059354434        3.0565852677
Mo              -0.0061704823        9.1146628629        9.1701736954
S               -1.5741669140        9.9989526663        7.5818361449
S                0.0005106484        9.0958841295        4.6246433079
S                0.0003053280        9.0961561961        1.4889600955
S               -1.5872087430       10.0206612897       10.7276609704
Mo               6.3024915177        1.8193638619       -9.1672481230    0   0   0
Mo               7.8781001445        0.9096521684       -3.0554919963    0   0   0
S                6.3025008696        1.8193826232       -4.6232480596    0   0   0
S                7.8781116898        0.9096773839       -7.6014065489    0   0   0
S                7.8781121435        0.9096785128      -10.7330757790    0   0   0
S                6.3025042007        1.8193849068       -1.4877147524    0   0   0
Mo               6.3029263026        1.8188548461        3.0558746198
Mo               7.8794276911        0.9085147057        9.1633487440
S                6.3123262651        1.8141210642        7.5820224410
S                7.8784888990        0.9091895553        4.6239347666
S                7.8786157773        0.9090476920        1.4886114318
S                6.3007802843        1.8188594849       10.7194825430
Mo               4.7268741753        4.5484193819       -9.1672481230    0   0   0
Mo               6.3024679138        3.6387501714       -3.0554895197    0   0   0
S                4.7268748770        4.5484386753       -4.6232519432    0   0   0
S                6.3024943474        3.6387329039       -7.6014065489    0   0   0
S                6.3024948011        3.6387340328      -10.7330757790    0   0   0
S                4.7268770533        4.5484432419       -1.4877137856    0   0   0
Mo               4.7268441688        4.5481300638        3.0565934285
Mo               6.3096341173        3.6378091916        9.1487920352
S                4.7408209751        4.5568958025        7.5794615189
S                6.3028343963        3.6380039173        4.6235006254
S                6.3026790747        3.6385639846        1.4885551017
S                4.7505458008        4.5386237185       10.7244252509
Mo               3.1512568329        7.2774749019       -9.1672481230    0   0   0
Mo               4.7268384135        6.3678043337       -3.0554959052    0   0   0
S                3.1512606125        7.2774972547       -4.6232589675    0   0   0
S                4.7268770050        6.3677884239       -7.6014065489    0   0   0
S                4.7268774587        6.3677895528      -10.7330757790    0   0   0
S                3.1512629079        7.2774963749       -1.4877081835    0   0   0
Mo               3.1509311574        7.2769816207        3.0562090755
Mo               4.7378142247        6.3672354951        9.1736100278
S                3.1300408131        7.2706375795        7.6421200148
S                4.7261840510        6.3678280364        4.6240133485
S                4.7267883847        6.3673775664        1.4885485244
S                3.2452178777        7.3342692743       10.8214041796
Mo               1.5756394905       10.0065304219       -9.1672481230    0   0   0
Mo               3.1512330605        9.0968514907       -3.0554878870    0   0   0
S                1.5756499830       10.0065443759       -4.6232632674    0   0   0
S                3.1512596626        9.0968439439       -7.6014065489    0   0   0
S                3.1512601163        9.0968450728      -10.7330757790    0   0   0
S                1.5756503041       10.0065459699       -1.4877044377    0   0   0
Mo               1.5759080901       10.0059035018        3.0567098007
Mo               3.1567329490        9.1069093551        9.1817330112
S                1.5812030901       10.0026109359        7.5995984857
S                3.1513009814        9.0958843692        4.6245604515
S                3.1512673616        9.0965146899        1.4886724242
S                1.5713670752       10.0135389130       10.7383364983
Mo               9.4537312807        1.8193638619       -9.1672481230    0   0   0
Mo              11.0293863460        0.9096952246       -3.0554894007    0   0   0
S                9.4537395970        1.8193770750       -4.6232328036    0   0   0
S               11.0293514528        0.9096773839       -7.6014065489    0   0   0
S               11.0293519066        0.9096785128      -10.7330757790    0   0   0
S                9.4537393632        1.8193794783       -1.4877366147    0   0   0
Mo               9.4540835669        1.8190735519        3.0566221983
Mo              11.0269630667        0.9017503574        9.1769396555
S                9.4582407696        1.8159481473        7.5975163306
S               11.0298046023        0.9095969601        4.6244344467
S               11.0293416046        0.9093312507        1.4886474522
S                9.4466412484        1.8202827485       10.7354176598
Mo               7.8781139383        4.5484193819       -9.1672481230    0   0   0
Mo               9.4537539161        3.6387607911       -3.0554933032    0   0   0
S                7.8781175448        4.5484378232       -4.6232366318    0   0   0
S                9.4537341104        3.6387329039       -7.6014065489    0   0   0
S                9.4537345641        3.6387340328      -10.7330757790    0   0   0
S                7.8781194018        4.5484411585       -1.4877377057    0   0   0
Mo               7.8784799662        4.5480288143        3.0563995721
Mo               9.4380765157        3.6370046847        9.1664894187
S                7.8834402611        4.5490247754        7.5821014984
S                9.4543315145        3.6384531859        4.6245040329
S                9.4542042252        3.6384937973        1.4888591787
S                7.8647755438        4.5515396800       10.7269623323
Mo               6.3024965959        7.2774749019       -9.1672481230    0   0   0
Mo               7.8781361655        6.3678242352       -3.0555014130    0   0   0
S                6.3024973331        7.2774953556       -4.6232392528    0   0   0
S                7.8781167680        6.3677884239       -7.6014065489    0   0   0
S                7.8781172217        6.3677895528      -10.7330757790    0   0   0
S                6.3024989866        7.2774929744       -1.4877349119    0   0   0
Mo               6.3023020886        7.2771580799        3.0563350757
Mo               7.8729185122        6.3701176174        9.1531687166
S                6.2937421159        7.2814453172        7.5912279030
S                7.8778766025        6.3673966164        4.6239882072
S                7.8783571982        6.3675674789        1.4888312948
S                6.3147899607        7.2776107189       10.7341271310
Mo               4.7268792535       10.0065304219       -9.1672481230    0   0   0
Mo               6.3025111524        9.0968738021       -3.0554915260    0   0   0
S                4.7268840634       10.0065452125       -4.6232380477    0   0   0
S                6.3024994256        9.0968439439       -7.6014065489    0   0   0
S                6.3024998793        9.0968450728      -10.7330757790    0   0   0
S                4.7268847312       10.0065459141       -1.4877283294    0   0   0
Mo               4.7267978760       10.0062231419        3.0565672041
Mo               6.3007135050        9.0974909962        9.1655263388
S                4.7218588822       10.0080105049        7.6003647577
S                6.3024109664        9.0966060703        4.6238270944
S                6.3023415285        9.0965298260        1.4885210217
S                4.7343660244       10.0066025710       10.7475477676
Pt               1.5061637635        6.2905391350       12.0377271315
Pd               0.0333005650        3.7691906230       12.1791691487
End final coordinates



     Writing all to output data dir ./outdir/pwscf.save/ :
     XML data file, charge density, pseudopotentials, collected wavefunctions
 
     init_run     :    175.99s CPU    179.17s WALL (       1 calls)
     electrons    : 192677.66s CPU 195085.10s WALL (      25 calls)
     update_pot   :     40.66s CPU     41.93s WALL (      24 calls)
     forces       :   3239.31s CPU   3295.44s WALL (      25 calls)
     force_dftd3  :     16.69s CPU     17.44s WALL (      25 calls)

     Called by init_run:
     wfcinit      :    152.20s CPU    154.00s WALL (       1 calls)
     potinit      :      1.30s CPU      1.39s WALL (       1 calls)
     hinit0       :     12.79s CPU     12.86s WALL (       1 calls)

     Called by electrons:
     c_bands      : 170674.05s CPU 172301.06s WALL (     309 calls)
     sum_band     :  19673.39s CPU  20080.75s WALL (     309 calls)
     v_of_rho     :    110.92s CPU    124.60s WALL (     312 calls)
     newd         :   1971.07s CPU   2337.30s WALL (     312 calls)
     PAW_pot      :    296.66s CPU    299.72s WALL (     336 calls)
     mix_rho      :     28.94s CPU     33.82s WALL (     309 calls)
     energy_dftd3 :      9.67s CPU      9.71s WALL (      25 calls)

     Called by c_bands:
     init_us_2    :    664.76s CPU    667.94s WALL (    2672 calls)
     init_us_2:cp :    664.74s CPU    667.92s WALL (    2672 calls)
     cegterg      : 167845.80s CPU 169455.40s WALL (    1258 calls)

     Called by *egterg:
     cdiaghg      :   9681.35s CPU  10020.69s WALL (   15157 calls)
     h_psi        :  84487.75s CPU  85028.93s WALL (   15346 calls)
     s_psi        :  19090.29s CPU  19214.03s WALL (   15346 calls)
     g_psi        :    153.52s CPU    154.32s WALL (   14084 calls)

     Called by h_psi:
     h_psi:calbec :  19213.60s CPU  19283.02s WALL (   15346 calls)
     vloc_psi     :  45813.16s CPU  46045.44s WALL (   15346 calls)
     add_vuspsi   :  19113.52s CPU  19237.06s WALL (   15346 calls)

     General routines
     calbec       :  27568.85s CPU  27667.02s WALL (   17078 calls)
     fft          :    132.32s CPU    145.37s WALL (    4327 calls)
     ffts         :      5.79s CPU      6.22s WALL (     621 calls)
     fftw         :  34600.31s CPU  34772.79s WALL ( 8978354 calls)
     interpolate  :      9.67s CPU     10.61s WALL (     312 calls)
 
     Parallel routines
 
     PWSCF        :   2d 6h45m CPU   2d 7h28m WALL

 
   This run was terminated on:  16:53:53  14Mar2024            

=------------------------------------------------------------------------------=
   JOB DONE.
=------------------------------------------------------------------------------=
