ITEM: TIMESTEP
0
ITEM: NUMBER OF ATOMS
757
ITEM: BOX BOUNDS xy xz yz pp pp ff
-1.2287415449999999e+01 3.4404763260000003e+01 -1.2287415449999999e+01
0.0000000000000000e+00 3.4502427988999997e+01 0.0000000000000000e+00
0.0000000000000000e+00 3.6159325252999999e+01 0.0000000000000000e+00
ITEM: ATOMS id type element x y z ix iy iz
1 5 Si 0.0218629 5.40545 5.81725 0 0 0
2 5 Si 1.38529 1.27722 6.4868 0 0 0
3 5 Si 3.89733 2.51221 5 0 0 0
4 4 O 0.89092 4.69806 7.09531 0 0 0
5 4 O -1.12624 6.50802 6.44429 0 0 0
6 4 O 2.94355 1.79114 6.23148 0 0 0
7 4 O -0.952567 4.11933 5.15665 0 0 0
8 4 O 0.442021 1.86105 5.21008 0 0 0
9 4 O 0.848806 1.78357 7.97759 0 0 0
10 5 Si 0.0998332 1.05057 9.29403 0 0 0
11 5 Si -0.92023 3.87245 9.94796 0 0 0
12 5 Si 1.54923 5.08847 8.56526 0 0 0
13 4 O 1.25994 0.532959 10.3581 0 0 0
14 4 O 4.03832 2.22012 9.99038 0 0 0
15 4 O 0.637283 4.45968 9.82951 0 0 0
16 4 O 1.56087 6.73456 8.76425 0 0 0
17 4 O 3.0592 4.39504 8.65635 0 0 0
18 4 O 3.40515 4.55351 11.3645 0 0 0
19 5 Si -2.43536 12.3059 5.81749 0 0 0
20 5 Si -1.07216 8.17735 6.48681 0 0 0
21 5 Si 1.43985 9.41269 5 0 0 0
22 4 O -1.5664 11.598 7.09547 0 0 0
23 4 O -3.58292 13.4085 6.44421 0 0 0
24 4 O 0.48613 8.69149 6.23129 0 0 0
25 4 O -3.41005 11.0198 5.15665 0 0 0
26 4 O -2.01546 8.76153 5.21008 0 0 0
27 4 O -1.60846 8.68371 7.97736 0 0 0
28 5 Si -2.35748 7.95098 9.29392 0 0 0
29 5 Si -3.3777 10.7725 9.94836 0 0 0
30 5 Si -0.908335 11.9888 8.56542 0 0 0
31 4 O -1.19728 7.43288 10.3574 0 0 0
32 4 O 1.58069 9.12084 9.9901 0 0 0
33 4 O -1.82034 11.36 9.82944 0 0 0
34 4 O -0.89728 13.6353 8.76437 0 0 0
35 4 O 0.601825 11.2959 8.65731 0 0 0
36 4 O 0.947888 11.4538 11.3649 0 0 0
38 5 Si -3.52942 15.0778 6.48655 0 0 0
39 5 Si -1.01763 16.3132 5 0 0 0
42 4 O -1.97131 15.5923 6.23141 0 0 0
44 4 O -4.47294 15.662 5.21008 0 0 0
45 4 O -4.06591 15.5843 7.97732 0 0 0
46 5 Si -4.81487 14.8515 9.29394 0 0 0
49 4 O -3.65543 14.3337 10.3587 0 0 0
50 4 O -0.876939 16.0214 9.98998 0 0 0
91 5 Si 4.93209 5.40535 5.82546 0 0 0
92 5 Si 6.30108 1.28125 6.49051 0 0 0
93 5 Si 8.8123 2.51221 5 0 0 0
94 4 O 5.80574 4.69349 7.0974 0 0 0
95 4 O 3.79398 6.51051 6.46169 0 0 0
96 4 O 7.86131 1.79092 6.2344 0 0 0
97 4 O 3.9624 4.11933 5.15665 0 0 0
98 4 O 5.35699 1.86105 5.21008 0 0 0
99 4 O 5.76125 1.7933 7.97907 0 0 0
100 5 Si 5.01741 1.05679 9.29508 0 0 0
101 5 Si 3.99125 3.8753 9.94195 0 0 0
102 5 Si 6.46088 5.09104 8.56795 0 0 0
103 4 O 6.17698 0.543651 10.3623 0 0 0
104 4 O 8.94531 2.22125 9.99098 0 0 0
105 4 O 5.54914 4.46354 9.83324 0 0 0
106 4 O 6.47103 6.73782 8.76212 0 0 0
107 4 O 7.97536 4.40545 8.65939 0 0 0
108 4 O 8.31615 4.55304 11.3703 0 0 0
109 5 Si 2.47462 12.3056 5.82557 0 0 0
110 5 Si 3.84363 8.18183 6.49048 0 0 0
111 5 Si 6.35482 9.41269 5 0 0 0
112 4 O 3.34797 11.5942 7.09775 0 0 0
113 4 O 1.33624 13.411 6.46092 0 0 0
114 4 O 5.40381 8.69139 6.23429 0 0 0
115 4 O 1.50492 11.0198 5.15665 0 0 0
116 4 O 2.8995 8.76153 5.21008 0 0 0
117 4 O 3.30388 8.69405 7.97877 0 0 0
118 5 Si 2.55994 7.95726 9.29489 0 0 0
119 5 Si 1.53404 10.7756 9.9425 0 0 0
120 5 Si 4.00328 11.9913 8.56818 0 0 0
121 4 O 3.72038 7.44444 10.3611 0 0 0
122 4 O 6.48823 9.12189 9.99129 0 0 0
123 4 O 3.09208 11.3637 9.83344 0 0 0
124 4 O 4.01347 13.6383 8.76238 0 0 0
125 4 O 5.51755 11.3055 8.65931 0 0 0
126 4 O 5.85876 11.4537 11.3704 0 0 0
128 5 Si 1.38605 15.0821 6.49042 0 0 0
129 5 Si 3.89733 16.3132 5 0 0 0
132 4 O 2.9461 15.5921 6.23438 0 0 0
134 4 O 0.442021 15.662 5.21008 0 0 0
135 4 O 0.845852 15.5939 7.97897 0 0 0
136 5 Si 0.101942 14.8577 9.29528 0 0 0
139 4 O 1.26155 14.3454 10.3623 0 0 0
140 4 O 4.0308 16.0221 9.99138 0 0 0
181 5 Si 9.84609 5.40012 5.83196 0 0 0
182 5 Si 11.2153 1.28033 6.48933 0 0 0
183 5 Si 13.7273 2.51221 5 0 0 0
184 4 O 10.7182 4.68398 7.102 0 0 0
185 4 O 8.71022 6.50963 6.46354 0 0 0
186 4 O 12.7756 1.78842 6.23242 0 0 0
187 4 O 8.87737 4.11933 5.15665 0 0 0
188 4 O 10.272 1.86105 5.21008 0 0 0
189 4 O 10.6747 1.7921 7.97758 0 0 0
190 5 Si 9.92783 1.0595 9.29486 0 0 0
191 5 Si 8.90274 3.87772 9.94615 0 0 0
192 5 Si 11.375 5.08375 8.57176 0 0 0
193 4 O 11.0882 0.543888 10.3604 0 0 0
194 4 O 13.8659 2.21402 9.99278 0 0 0
195 4 O 10.4622 4.46324 9.84046 0 0 0
196 4 O 11.3845 6.73267 8.75543 0 0 0
197 4 O 12.8871 4.39312 8.66427 0 0 0
198 4 O 13.2271 4.54226 11.3757 0 0 0
199 5 Si 7.3886 12.3003 5.83205 0 0 0
200 5 Si 8.75781 8.18075 6.48932 0 0 0
201 5 Si 11.2698 9.41269 5 0 0 0
202 4 O 8.26114 11.5846 7.10176 0 0 0
203 4 O 6.25293 13.4102 6.46356 0 0 0
204 4 O 10.3183 8.68847 6.2323 0 0 0
205 4 O 6.41988 11.0198 5.15665 0 0 0
206 4 O 7.81447 8.76153 5.21008 0 0 0
207 4 O 8.21706 8.69253 7.9775 0 0 0
208 5 Si 7.47055 7.95994 9.29476 0 0 0
209 5 Si 6.4452 10.7784 9.94612 0 0 0
210 5 Si 8.91742 11.9841 8.5716 0 0 0
211 4 O 8.63118 7.444 10.3599 0 0 0
212 4 O 11.408 9.11421 9.99249 0 0 0
213 4 O 8.00457 11.3643 9.8406 0 0 0
214 4 O 8.92665 13.6336 8.7551 0 0 0
215 4 O 10.4293 11.2932 8.66447 0 0 0
216 4 O 10.7695 11.4426 11.3759 0 0 0
218 5 Si 6.30037 15.0813 6.48938 0 0 0
219 5 Si 8.8123 16.3132 5 0 0 0
222 4 O 7.86063 15.5891 6.23244 0 0 0
224 4 O 5.35699 15.662 5.21008 0 0 0
225 4 O 5.75973 15.5931 7.97772 0 0 0
226 5 Si 5.01309 14.8601 9.29479 0 0 0
229 4 O 6.17391 14.3446 10.3599 0 0 0
230 4 O 8.95117 16.0153 9.99243 0 0 0
271 5 Si 14.7626 5.3995 5.83276 0 0 0
272 5 Si 16.1305 1.28147 6.48916 0 0 0
275 4 O 13.6257 6.51125 6.45924 0 0 0
277 4 O 13.7923 4.11933 5.15665 0 0 0
278 4 O 15.1869 1.86105 5.21008 0 0 0
279 4 O 15.596 1.78687 7.98209 0 0 0
280 5 Si 14.8444 1.05039 9.29353 0 0 0
281 5 Si 13.8175 3.87009 9.95111 0 0 0
283 4 O 16.001 0.527526 10.36 0 0 0
285 4 O 15.3736 4.46675 9.84571 0 0 0
289 5 Si 12.305 12.3001 5.83307 0 0 0
290 5 Si 13.673 8.182 6.48941 0 0 0
293 4 O 11.168 13.412 6.45943 0 0 0
295 4 O 11.3348 11.0198 5.15665 0 0 0
296 4 O 12.7294 8.76153 5.21008 0 0 0
297 4 O 13.1387 8.68762 7.982 0 0 0
298 5 Si 12.3867 7.95063 9.29345 0 0 0
299 5 Si 11.3596 10.7702 9.95129 0 0 0
301 4 O 13.5437 7.42795 10.3597 0 0 0
303 4 O 12.9158 11.3669 9.84562 0 0 0
308 5 Si 11.2155 15.0826 6.48935 0 0 0
314 4 O 10.272 15.662 5.21008 0 0 0
315 4 O 10.681 15.5882 7.98209 0 0 0
316 5 Si 9.92909 14.8514 9.29347 0 0 0
319 4 O 11.0859 14.3288 10.3602 0 0 0
558 4 O -1.49233 4.54998 11.378 1 0 0
576 4 O -3.94986 11.4503 11.3783 1 0 0
632 2 H 2.46528 4.35438 11.5459 0 0 0
633 2 H -1.34862 6.60692 10.864 0 0 0
634 2 H 0.00796047 11.2549 11.5466 0 0 0
635 2 H -3.80671 13.5063 10.8639 0 0 0
642 2 H 7.37726 4.34946 11.5529 0 0 0
643 2 H 3.56655 6.62082 10.8706 0 0 0
644 2 H 4.91978 11.25 11.5527 0 0 0
645 2 H 1.10843 13.5211 10.871 0 0 0
652 2 H 12.2884 4.33366 11.5546 0 0 0
653 2 H 8.47403 6.62382 10.8742 0 0 0
654 2 H 9.83048 11.2348 11.5544 0 0 0
655 2 H 6.01711 13.5246 10.8744 0 0 0
663 2 H 13.377 6.61153 10.8773 0 0 0
665 2 H 10.92 13.5116 10.8769 0 0 0
734 1 C 10.3557 16.2231 17.5331 0 0 0
735 1 C 11.0002 14.813 17.2903 0 0 0
736 1 C 10.7378 14.2251 15.8825 0 0 0
748 2 H 10.9046 16.97 15.564 0 0 0
749 2 H 9.25529 16.1167 17.3476 0 0 0
751 2 H 10.5911 14.1182 18.062 0 0 0
752 2 H 11.1866 13.2068 15.7995 0 0 0
753 2 H 11.1791 14.8465 15.0682 0 0 0
754 2 H 9.64306 14.1306 15.6809 0 0 0
704 1 C 11.5307 15.6682 25.9402 0 0 0
718 2 H 10.5273 15.1817 26.0534 0 0 0
721 2 H 9.22715 17.1729 25.4077 0 0 0
737 1 C 10.4713 16.5507 19.035 0 0 0
755 4 O 9.91811 15.7551 19.9011 0 0 0
757 3 Mg 10.5238 17.0732 21.3265 0 0 0
37 5 Si -4.89293 19.2063 5.81745 0 0 0
40 4 O -4.02376 18.499 7.09559 0 0 0
41 4 O -6.04038 20.3093 6.44415 0 0 0
43 4 O -5.86753 17.9203 5.15665 0 0 0
47 5 Si -5.83519 17.6732 9.94777 0 0 0
48 5 Si -3.36573 18.8896 8.56542 0 0 0
51 4 O -4.27764 18.2606 9.8294 0 0 0
52 4 O -3.35446 20.5361 8.76434 0 0 0
53 4 O -1.85561 18.1967 8.65698 0 0 0
54 4 O -1.50961 18.3544 11.3651 0 0 0
55 5 Si -7.35099 26.107 5.81792 0 0 0
56 5 Si -5.98688 21.9786 6.48648 0 0 0
57 5 Si -3.47512 23.2137 5 0 0 0
58 4 O -6.48148 25.3996 7.09565 0 0 0
59 4 O -8.49872 27.2096 6.44494 0 0 0
60 4 O -4.42875 22.4932 6.23172 0 0 0
61 4 O -8.32502 24.8208 5.15665 0 0 0
62 4 O -6.93043 22.5625 5.21008 0 0 0
63 4 O -6.52363 22.4849 7.97745 0 0 0
64 5 Si -7.27278 21.752 9.2938 0 0 0
65 5 Si -8.29249 24.5739 9.94818 0 0 0
66 5 Si -5.82324 25.7902 8.56538 0 0 0
67 4 O -6.11314 21.2338 10.3579 0 0 0
68 4 O -3.33441 22.9214 9.99041 0 0 0
69 4 O -6.7349 25.1612 9.82965 0 0 0
70 4 O -5.81172 27.4363 8.76434 0 0 0
71 4 O -4.31337 25.0967 8.65693 0 0 0
72 4 O -3.96735 25.2546 11.3649 0 0 0
73 5 Si -9.80855 33.0074 5.81814 0 0 0
74 5 Si -8.44458 28.8793 6.48661 0 0 0
75 5 Si -5.9326 30.1142 5 0 0 0
76 4 O -8.93907 32.3 7.09582 0 0 0
77 4 O -10.9563 34.11 6.44441 0 0 0
78 4 O -6.8862 29.393 6.23136 0 0 0
79 4 O -10.7825 31.7213 5.15665 0 0 0
80 4 O -9.38791 29.463 5.21008 0 0 0
81 4 O -8.98076 29.3857 7.97769 0 0 0
82 5 Si -9.72946 28.6527 9.29404 0 0 0
83 5 Si -10.7499 31.4743 9.94848 0 0 0
84 5 Si -8.28076 32.6904 8.56539 0 0 0
85 4 O -8.56952 28.1351 10.3582 0 0 0
86 4 O -5.79156 29.8226 9.99037 0 0 0
87 4 O -9.19228 32.0619 9.83012 0 0 0
88 4 O -8.26973 34.3369 8.76381 0 0 0
89 4 O -6.77047 31.9974 8.65713 0 0 0
90 4 O -6.42496 32.1552 11.3649 0 0 0
127 5 Si 0.0170735 19.2062 5.82578 0 0 0
130 4 O 0.890491 18.4947 7.09795 0 0 0
131 4 O -1.12139 20.3114 6.46136 0 0 0
133 4 O -0.952567 17.9203 5.15665 0 0 0
137 5 Si -0.923637 17.6763 9.94255 0 0 0
138 5 Si 1.54565 18.8917 8.56828 0 0 0
141 4 O 0.634382 18.2646 9.83386 0 0 0
142 4 O 1.5566 20.5387 8.76211 0 0 0
143 4 O 3.06015 18.2063 8.65969 0 0 0
144 4 O 3.40135 18.3542 11.3706 0 0 0
145 5 Si -2.44059 26.1064 5.82584 0 0 0
146 5 Si -1.07127 21.9828 6.49041 0 0 0
147 5 Si 1.43985 23.2137 5 0 0 0
148 4 O -1.56693 25.395 7.09756 0 0 0
149 4 O -3.57917 27.212 6.46151 0 0 0
150 4 O 0.488803 22.4923 6.23423 0 0 0
151 4 O -3.41005 24.8208 5.15665 0 0 0
152 4 O -2.01546 22.5625 5.21008 0 0 0
153 4 O -1.61095 22.4948 7.97922 0 0 0
154 5 Si -2.35499 21.7583 9.29526 0 0 0
155 5 Si -3.3812 24.5766 9.9425 0 0 0
156 5 Si -0.911883 25.792 8.56815 0 0 0
157 4 O -1.19482 21.2455 10.3619 0 0 0
158 4 O 1.57334 22.9229 9.99086 0 0 0
159 4 O -1.82309 25.1647 9.83359 0 0 0
160 4 O -0.901691 27.4392 8.76223 0 0 0
161 4 O 0.602545 25.1067 8.65944 0 0 0
162 4 O 0.943921 25.2542 11.3705 0 0 0
163 5 Si -4.89796 33.0073 5.82584 0 0 0
164 5 Si -3.52896 28.8832 6.49055 0 0 0
165 5 Si -1.01763 30.1142 5 0 0 0
166 4 O -4.02432 32.2952 7.09773 0 0 0
167 4 O -6.03644 34.1124 6.46147 0 0 0
168 4 O -1.96854 29.3928 6.23436 0 0 0
169 4 O -5.86753 31.7213 5.15665 0 0 0
170 4 O -4.47294 29.463 5.21008 0 0 0
171 4 O -4.06821 29.3953 7.97931 0 0 0
172 5 Si -4.81228 28.6587 9.29532 0 0 0
173 5 Si -5.8385 31.4771 9.9427 0 0 0
174 5 Si -3.36905 32.6927 8.56815 0 0 0
175 4 O -3.6527 28.1457 10.362 0 0 0
176 4 O -0.884361 29.8231 9.99122 0 0 0
177 4 O -4.28053 32.0657 9.83372 0 0 0
178 4 O -3.35882 34.3397 8.76216 0 0 0
179 4 O -1.85467 32.0074 8.65961 0 0 0
180 4 O -1.51318 32.1548 11.3708 0 0 0
217 5 Si 4.93094 19.2008 5.83218 0 0 0
220 4 O 5.80312 18.4849 7.10209 0 0 0
221 4 O 3.7949 20.3103 6.46317 0 0 0
223 4 O 3.9624 17.9203 5.15665 0 0 0
227 5 Si 3.98761 17.6784 9.94635 0 0 0
228 5 Si 6.45989 18.8848 8.57171 0 0 0
231 4 O 5.54693 18.2645 9.84059 0 0 0
232 4 O 6.46887 20.5341 8.75538 0 0 0
233 4 O 7.97166 18.1943 8.66436 0 0 0
234 4 O 8.31206 18.3435 11.3759 0 0 0
235 5 Si 2.47437 26.1013 5.83139 0 0 0
236 5 Si 3.84273 21.9814 6.48925 0 0 0
237 5 Si 6.35482 23.2137 5 0 0 0
238 4 O 3.3459 25.3855 7.10151 0 0 0
239 4 O 1.33819 27.2108 6.46201 0 0 0
240 4 O 5.40313 22.489 6.2321 0 0 0
241 4 O 1.50492 24.8208 5.15665 0 0 0
242 4 O 2.8995 22.5625 5.21008 0 0 0
243 4 O 3.30253 22.4931 7.9778 0 0 0
244 5 Si 2.55567 21.7606 9.29498 0 0 0
245 5 Si 1.53015 24.5792 9.94612 0 0 0
246 5 Si 4.00248 25.7852 8.57138 0 0 0
247 4 O 3.71636 21.245 10.3604 0 0 0
248 4 O 6.49318 22.9154 9.99263 0 0 0
249 4 O 3.08969 25.1654 9.84051 0 0 0
250 4 O 4.01202 27.4344 8.75464 0 0 0
251 4 O 5.51426 25.0943 8.66426 0 0 0
252 4 O 5.85432 25.2437 11.3757 0 0 0
253 5 Si 0.0164514 33.002 5.8321 0 0 0
254 5 Si 1.38539 28.882 6.48891 0 0 0
255 5 Si 3.89733 30.1142 5 0 0 0
256 4 O 0.888664 32.2862 7.10205 0 0 0
257 4 O -1.11924 34.1116 6.46386 0 0 0
258 4 O 2.94575 29.3905 6.23261 0 0 0
259 4 O -0.952567 31.7213 5.15665 0 0 0
260 4 O 0.442021 29.463 5.21008 0 0 0
261 4 O 0.844876 29.3937 7.97748 0 0 0
262 5 Si 0.0979477 28.661 9.29471 0 0 0
263 5 Si -0.926983 31.4796 9.94649 0 0 0
264 5 Si 1.54533 32.6856 8.57165 0 0 0
265 4 O 1.25917 28.1454 10.3597 0 0 0
266 4 O 4.03596 29.8157 9.99264 0 0 0
267 4 O 0.632283 32.0654 9.84049 0 0 0
268 4 O 1.55436 34.3347 8.75573 0 0 0
269 4 O 3.057 31.9947 8.66445 0 0 0
270 4 O 3.39718 32.1438 11.3757 0 0 0
307 5 Si 9.84731 19.2011 5.83239 0 0 0
311 4 O 8.71035 20.3122 6.459 0 0 0
313 4 O 8.87737 17.9203 5.15665 0 0 0
317 5 Si 8.90218 17.6713 9.95149 0 0 0
321 4 O 10.4581 18.2677 9.84562 0 0 0
325 5 Si 7.39053 26.1006 5.83276 0 0 0
326 5 Si 8.75799 21.983 6.48941 0 0 0
329 4 O 6.25382 27.2127 6.45865 0 0 0
331 4 O 6.41988 24.8208 5.15665 0 0 0
332 4 O 7.81447 22.5625 5.21008 0 0 0
333 4 O 8.22362 22.4884 7.9821 0 0 0
334 5 Si 7.47185 21.7521 9.29353 0 0 0
335 5 Si 6.44472 24.5715 9.95138 0 0 0
337 4 O 8.62898 21.2293 10.3598 0 0 0
339 4 O 8.00085 25.1684 9.84582 0 0 0
343 5 Si 4.93259 33.0019 5.83234 0 0 0
344 5 Si 6.30064 28.8835 6.48924 0 0 0
347 4 O 3.79531 34.1131 6.45896 0 0 0
349 4 O 3.9624 31.7213 5.15665 0 0 0
350 4 O 5.35699 29.463 5.21008 0 0 0
351 4 O 5.7667 29.3887 7.98216 0 0 0
352 5 Si 5.01441 28.6523 9.29337 0 0 0
353 5 Si 3.9875 31.4716 9.95138 0 0 0
355 4 O 6.17138 28.129 10.3595 0 0 0
357 4 O 5.54337 32.0686 9.84568 0 0 0
594 4 O -6.40771 18.351 11.3776 1 0 0
612 4 O -8.86488 25.2516 11.378 1 0 0
630 4 O -11.3219 32.152 11.3786 1 0 0
631 2 H -11.1784 34.2086 10.864 0 -1 0
636 2 H -2.4495 18.1555 11.5467 0 0 0
637 2 H -6.26437 20.4067 10.8635 0 0 0
638 2 H -4.90738 25.056 11.5464 0 0 0
639 2 H -8.72049 27.308 10.8638 0 0 0
640 2 H -7.3649 31.956 11.5465 0 0 0
641 2 H -6.26428 34.2222 10.8713 0 -1 0
646 2 H 2.46228 18.1513 11.5529 0 0 0
647 2 H -1.34867 20.4218 10.8713 0 0 0
648 2 H 0.00488932 25.0512 11.5527 0 0 0
649 2 H -3.80648 27.3222 10.8714 0 0 0
650 2 H -2.45226 31.952 11.5532 0 0 0
651 2 H -1.35549 34.2259 10.8741 0 -1 0
656 2 H 7.37304 18.1356 11.5544 0 0 0
657 2 H 3.55981 20.4246 10.874 0 0 0
658 2 H 4.91539 25.0354 11.5543 0 0 0
659 2 H 1.10232 27.3254 10.8742 0 0 0
660 2 H 2.45839 31.9357 11.5548 0 0 0
661 2 H 3.54788 34.2128 10.8766 0 -1 0
667 2 H 8.46263 20.4128 10.8772 0 0 0
669 2 H 6.00509 27.3122 10.8766 0 0 0
732 1 C 10.1513 18.6891 16.6864 0 0 0
733 1 C 10.9254 17.3427 16.6165 0 0 0
743 2 H 9.78149 20.5847 15.7087 0 0 0
744 2 H 10.1628 19.2731 14.5638 0 0 0
745 2 H 10.3479 19.1656 17.6763 0 0 0
746 2 H 9.05188 18.4744 16.6578 0 0 0
706 1 C 10.1545 17.7435 25.1403 0 0 0
707 1 C 9.83997 19.2636 25.3707 0 0 0
708 1 C 9.37998 19.6101 26.8075 0 0 0
709 1 C 10.3338 17.5142 23.6265 0 0 0
723 2 H 9.0416 19.5552 24.6476 0 0 0
724 2 H 9.13359 20.6958 26.8825 0 0 0
725 2 H 10.1634 19.3965 27.5722 0 0 0
726 2 H 8.46512 19.0346 27.0897 0 0 0
727 4 O 9.35234 17.7977 22.8224 0 0 0
273 5 Si 18.6422 2.51221 5 0 0 0
274 4 O 15.6251 4.68018 7.10843 0 0 0
276 4 O 17.6888 1.79503 6.23248 0 0 0
282 5 Si 16.2844 5.08647 8.57435 0 0 0
284 4 O 18.7789 2.21981 9.99151 0 0 0
286 4 O 16.2922 6.73617 8.75206 0 0 0
287 4 O 17.7979 4.3995 8.66602 0 0 0
288 4 O 18.1378 4.5446 11.3747 0 0 0
291 5 Si 16.1847 9.41269 5 0 0 0
292 4 O 13.1669 11.5802 7.10859 0 0 0
294 4 O 15.2313 8.69557 6.23248 0 0 0
300 5 Si 13.8265 11.9865 8.57436 0 0 0
302 4 O 16.322 9.12013 9.99157 0 0 0
304 4 O 13.8343 13.6363 8.75218 0 0 0
305 4 O 15.3401 11.2995 8.66592 0 0 0
306 4 O 15.6807 11.4451 11.3746 0 0 0
309 5 Si 13.7273 16.3132 5 0 0 0
312 4 O 12.7737 15.5962 6.23263 0 0 0
320 4 O 13.8622 16.0205 9.99004 0 0 0
361 5 Si 19.6782 5.40175 5.82807 0 0 0
362 5 Si 21.0441 1.28217 6.49031 0 0 0
363 5 Si 23.5572 2.51221 5 0 0 0
364 4 O 20.5417 4.68235 7.10382 0 0 0
365 4 O 18.5392 6.51241 6.45466 0 0 0
366 4 O 22.601 1.80179 6.2377 0 0 0
367 4 O 18.7073 4.11933 5.15665 0 0 0
368 4 O 20.1019 1.86105 5.21008 0 0 0
369 4 O 20.5091 1.78647 7.98335 0 0 0
370 5 Si 19.7526 1.05189 9.29265 0 0 0
371 5 Si 18.7314 3.87516 9.95023 0 0 0
372 5 Si 21.1999 5.08608 8.57081 0 0 0
373 4 O 20.9036 0.520818 10.3597 0 0 0
374 4 O 23.6962 2.2205 9.9903 0 0 0
375 4 O 20.2895 4.46764 9.84306 0 0 0
376 4 O 21.2036 6.73616 8.74747 0 0 0
377 4 O 22.7163 4.40334 8.66158 0 0 0
378 4 O 23.0519 4.548 11.3716 0 0 0
379 5 Si 17.2214 12.302 5.82698 0 0 0
380 5 Si 18.5866 8.18279 6.49053 0 0 0
381 5 Si 21.0997 9.41269 5 0 0 0
382 4 O 18.0849 11.583 7.10337 0 0 0
383 4 O 16.0819 13.4128 6.45401 0 0 0
384 4 O 20.1437 8.70174 6.23776 0 0 0
385 4 O 16.2498 11.0198 5.15665 0 0 0
386 4 O 17.6444 8.76153 5.21008 0 0 0
387 4 O 18.0518 8.68777 7.98346 0 0 0
388 5 Si 17.2957 7.95238 9.29259 0 0 0
389 5 Si 16.2738 10.7755 9.94999 0 0 0
390 5 Si 18.7426 11.9866 8.57068 0 0 0
391 4 O 18.4471 7.4212 10.3592 0 0 0
392 4 O 21.2393 9.12084 9.99129 0 0 0
393 4 O 17.8317 11.3682 9.84263 0 0 0
394 4 O 18.7462 13.6366 8.74712 0 0 0
395 4 O 20.2591 11.3037 8.66184 0 0 0
396 4 O 20.5942 11.4485 11.3721 0 0 0
398 5 Si 16.1291 15.0833 6.4903 0 0 0
399 5 Si 18.6422 16.3132 5 0 0 0
402 4 O 17.6857 15.6029 6.2377 0 0 0
404 4 O 15.1869 15.662 5.21008 0 0 0
405 4 O 15.5939 15.5879 7.98334 0 0 0
406 5 Si 14.8372 14.8532 9.29256 0 0 0
409 4 O 15.9884 14.323 10.36 0 0 0
410 4 O 18.7824 16.0211 9.99163 0 0 0
451 5 Si 24.5903 5.40253 5.82704 0 0 0
452 5 Si 25.9586 1.27894 6.48873 0 0 0
453 5 Si 28.4722 2.51221 5 0 0 0
454 4 O 25.4651 4.69237 7.09967 0 0 0
455 4 O 23.4463 6.50974 6.44929 0 0 0
456 4 O 27.5167 1.79272 6.23214 0 0 0
457 4 O 23.6223 4.11933 5.15665 0 0 0
458 4 O 25.0169 1.86105 5.21008 0 0 0
459 4 O 25.4307 1.7838 7.98383 0 0 0
460 5 Si 24.6664 1.04961 9.29092 0 0 0
461 5 Si 23.6472 3.87691 9.94741 0 0 0
462 5 Si 26.1141 5.09424 8.57098 0 0 0
463 4 O 25.8102 0.513943 10.364 0 0 0
464 4 O 28.6003 2.22693 9.98625 0 0 0
465 4 O 25.2051 4.46834 9.83939 0 0 0
466 4 O 26.106 6.7432 8.75461 0 0 0
467 4 O 27.6311 4.41451 8.66486 0 0 0
468 4 O 27.9678 4.55387 11.3763 0 0 0
469 5 Si 22.1326 12.3034 5.8268 0 0 0
470 5 Si 23.5013 8.17965 6.48892 0 0 0
471 5 Si 26.0147 9.41269 5 0 0 0
472 4 O 23.0068 11.5935 7.09959 0 0 0
473 4 O 20.9885 13.4103 6.44922 0 0 0
474 4 O 25.0594 8.69315 6.23222 0 0 0
475 4 O 21.1648 11.0198 5.15665 0 0 0
476 4 O 22.5594 8.76153 5.21008 0 0 0
477 4 O 22.973 8.68494 7.984 0 0 0
478 5 Si 22.2093 7.95043 9.29101 0 0 0
479 5 Si 21.1898 10.7773 9.94767 0 0 0
480 5 Si 23.656 11.9954 8.57087 0 0 0
481 4 O 23.3535 7.41434 10.3639 0 0 0
482 4 O 26.1417 9.12745 9.98495 0 0 0
483 4 O 22.7474 11.369 9.83989 0 0 0
484 4 O 23.6477 13.6441 8.75453 0 0 0
485 4 O 25.1731 11.3158 8.66496 0 0 0
486 4 O 25.5101 11.4542 11.3761 0 0 0
488 5 Si 21.0437 15.0801 6.48894 0 0 0
489 5 Si 23.5572 16.3132 5 0 0 0
492 4 O 22.6018 15.5936 6.23211 0 0 0
494 4 O 20.1019 15.662 5.21008 0 0 0
495 4 O 20.516 15.5854 7.98411 0 0 0
496 5 Si 19.752 14.8505 9.29122 0 0 0
499 4 O 20.8959 14.3143 10.3638 0 0 0
500 4 O 23.6846 16.0281 9.98556 0 0 0
541 5 Si 29.5062 5.40126 5.83212 0 0 0
542 5 Si 30.8714 1.27672 6.4892 0 0 0
543 5 Si 33.3871 2.51221 5 0 0 0
544 4 O 30.3746 4.69265 7.10916 0 0 0
545 4 O 28.3567 6.50776 6.44577 0 0 0
546 4 O 32.4296 1.78902 6.22686 0 0 0
547 4 O 28.5372 4.11933 5.15665 0 0 0
548 4 O 29.9318 1.86105 5.21008 0 0 0
549 4 O 30.3448 1.78285 7.98447 0 0 0
550 5 Si 29.5726 1.05593 9.291 0 0 0
551 5 Si 28.5572 3.88298 9.95096 0 0 0
552 5 Si 31.0307 5.08678 8.57967 0 0 0
553 4 O 30.719 0.520458 10.3608 0 0 0
554 4 O 33.5303 2.2163 9.99463 0 0 0
555 4 O 30.1181 4.46594 9.8475 0 0 0
556 4 O 31.0376 6.7352 8.76446 0 0 0
557 4 O 32.5437 4.39792 8.66896 0 0 0
559 5 Si 27.0485 12.3016 5.83194 0 0 0
560 5 Si 28.4141 8.17745 6.48938 0 0 0
561 5 Si 30.9296 9.41269 5 0 0 0
562 4 O 27.9173 11.5929 7.10894 0 0 0
563 4 O 25.899 13.4079 6.44597 0 0 0
564 4 O 29.9721 8.68974 6.22699 0 0 0
565 4 O 26.0797 11.0198 5.15665 0 0 0
566 4 O 27.4743 8.76153 5.21008 0 0 0
567 4 O 27.8879 8.68307 7.98521 0 0 0
568 5 Si 27.1154 7.95674 9.29167 0 0 0
569 5 Si 26.0993 10.7838 9.9506 0 0 0
570 5 Si 28.5733 11.987 8.57949 0 0 0
571 4 O 28.2607 7.42278 10.3632 0 0 0
572 4 O 31.073 9.11681 9.99487 0 0 0
573 4 O 27.6604 11.3662 9.84703 0 0 0
574 4 O 28.5801 13.6358 8.7637 0 0 0
575 4 O 30.0865 11.2985 8.6691 0 0 0
578 5 Si 25.9564 15.0776 6.4894 0 0 0
579 5 Si 28.4722 16.3132 5 0 0 0
582 4 O 27.5144 15.5898 6.2269 0 0 0
584 4 O 25.0169 15.662 5.21008 0 0 0
585 4 O 25.4305 15.5833 7.98511 0 0 0
586 5 Si 24.6579 14.8571 9.29174 0 0 0
589 4 O 25.8035 14.3223 10.3626 0 0 0
590 4 O 28.6153 16.0176 9.99446 0 0 0
662 2 H 17.1952 4.34424 11.5437 0 0 0
664 2 H 14.7384 11.2445 11.5445 0 0 0
672 2 H 22.1086 4.35068 11.5424 0 0 0
673 2 H 18.2779 6.60464 10.8755 0 0 0
674 2 H 19.6509 11.251 11.5428 0 0 0
675 2 H 15.8198 13.5059 10.8759 0 0 0
682 2 H 27.0264 4.35865 11.5549 0 0 0
683 2 H 23.1801 6.59371 10.8735 0 0 0
684 2 H 24.5687 11.259 11.5545 0 0 0
685 2 H 20.7223 13.4939 10.8739 0 0 0
692 2 H 31.9743 4.35329 11.5702 0 0 0
693 2 H 28.0841 6.60896 10.8822 0 0 0
694 2 H 29.5167 11.2535 11.5704 0 0 0
695 2 H 25.6265 13.5094 10.8825 0 0 0
750 2 H 12.1021 14.8809 17.474 0 0 0
701 1 C 14.2795 16.8274 27.7727 0 0 0
702 1 C 13.9638 15.5195 26.9991 0 0 0
703 1 C 12.4707 15.064 27.0244 0 0 0
705 1 C 11.3458 17.2111 25.9867 0 0 0
710 2 H 15.3793 17.0237 27.785 0 0 0
711 2 H 13.939 16.7547 28.8352 0 0 0
713 2 H 14.3091 15.6164 25.9381 0 0 0
714 2 H 14.5858 14.701 27.4406 0 0 0
715 2 H 12.4423 13.9533 26.8963 0 0 0
716 2 H 12.0427 15.2588 28.0419 0 0 0
717 2 H 11.9013 15.3804 24.9278 0 0 0
728 4 O 11.4495 17.0521 23.1397 0 0 0
310 4 O 10.7085 18.4818 7.10863 0 0 0
318 5 Si 11.3683 18.8881 8.57419 0 0 0
322 4 O 11.3761 20.538 8.75208 0 0 0
323 4 O 12.8819 18.2012 8.66513 0 0 0
324 4 O 13.2217 18.3454 11.3737 0 0 0
327 5 Si 11.2698 23.2137 5 0 0 0
328 4 O 8.25256 25.3808 7.10865 0 0 0
330 4 O 10.3161 22.4963 6.23223 0 0 0
336 5 Si 8.91198 25.787 8.57458 0 0 0
338 4 O 11.4075 22.9207 9.9923 0 0 0
340 4 O 8.92026 27.4369 8.7519 0 0 0
341 4 O 10.4253 25.0995 8.66639 0 0 0
342 4 O 10.7658 25.2459 11.3749 0 0 0
345 5 Si 8.8123 30.1142 5 0 0 0
346 4 O 5.79314 32.2825 7.10873 0 0 0
348 4 O 7.85885 29.3972 6.23273 0 0 0
354 5 Si 6.45338 32.6891 8.57413 0 0 0
356 4 O 8.9471 29.8209 9.98892 0 0 0
358 4 O 6.46085 34.3388 8.75267 0 0 0
359 4 O 7.96736 32.0026 8.66465 0 0 0
360 4 O 8.30617 32.1456 11.3731 0 0 0
397 5 Si 14.7637 19.2027 5.82707 0 0 0
400 4 O 15.6276 18.4835 7.10327 0 0 0
401 4 O 13.6245 20.3133 6.45365 0 0 0
403 4 O 13.7923 17.9203 5.15665 0 0 0
407 5 Si 13.8149 17.6761 9.94903 0 0 0
408 5 Si 16.2845 18.8867 8.57088 0 0 0
411 4 O 15.3729 18.2684 9.84226 0 0 0
412 4 O 16.2891 20.5367 8.74749 0 0 0
413 4 O 17.8008 18.2033 8.66229 0 0 0
414 4 O 18.1368 18.3485 11.3727 0 0 0
415 5 Si 12.3063 26.1032 5.82755 0 0 0
416 5 Si 13.6717 21.9838 6.49046 0 0 0
417 5 Si 16.1847 23.2137 5 0 0 0
418 4 O 13.1696 25.384 7.10372 0 0 0
419 4 O 11.167 27.2136 6.45411 0 0 0
420 4 O 15.2288 22.5031 6.23784 0 0 0
421 4 O 11.3348 24.8208 5.15665 0 0 0
422 4 O 12.7294 22.5625 5.21008 0 0 0
423 4 O 13.1369 22.4883 7.98366 0 0 0
424 5 Si 12.3806 21.7533 9.29274 0 0 0
425 5 Si 11.3591 24.5761 9.95046 0 0 0
426 5 Si 13.8273 25.7874 8.57088 0 0 0
427 4 O 13.5319 21.2216 10.3591 0 0 0
428 4 O 16.3242 22.9215 9.99113 0 0 0
429 4 O 12.9169 25.169 9.84297 0 0 0
430 4 O 13.8316 27.4373 8.74729 0 0 0
431 4 O 15.3436 25.1042 8.66176 0 0 0
432 4 O 15.6791 25.2494 11.3722 0 0 0
433 5 Si 9.84908 33.0034 5.82717 0 0 0
434 5 Si 11.2144 28.884 6.49016 0 0 0
435 5 Si 13.7273 30.1142 5 0 0 0
436 4 O 10.712 32.284 7.10355 0 0 0
437 4 O 8.70959 34.1141 6.45325 0 0 0
438 4 O 12.7713 29.4032 6.23744 0 0 0
439 4 O 8.87737 31.7213 5.15665 0 0 0
440 4 O 10.272 29.463 5.21008 0 0 0
441 4 O 10.6796 29.3887 7.98366 0 0 0
442 5 Si 9.92274 28.6537 9.29225 0 0 0
443 5 Si 8.8999 31.4769 9.94844 0 0 0
444 5 Si 11.3695 32.6874 8.57078 0 0 0
445 4 O 11.0737 28.1239 10.3603 0 0 0
446 4 O 13.8671 29.822 9.99126 0 0 0
447 4 O 10.4577 32.0691 9.84239 0 0 0
448 4 O 11.3742 34.3375 8.74721 0 0 0
449 4 O 12.8862 32.0045 8.66208 0 0 0
450 4 O 13.2223 32.1501 11.3727 0 0 0
487 5 Si 19.6754 19.2034 5.82705 0 0 0
490 4 O 20.5497 18.4935 7.09991 0 0 0
491 4 O 18.5309 20.3105 6.44917 0 0 0
493 4 O 18.7073 17.9203 5.15665 0 0 0
497 5 Si 18.7323 17.6774 9.9482 0 0 0
498 5 Si 21.1986 18.8957 8.57114 0 0 0
501 4 O 20.2897 18.2698 9.83992 0 0 0
502 4 O 21.1904 20.5448 8.75431 0 0 0
503 4 O 22.7158 18.2162 8.66536 0 0 0
504 4 O 23.0534 18.355 11.3765 0 0 0
505 5 Si 17.2182 26.1039 5.82641 0 0 0
506 5 Si 18.5863 21.9805 6.48907 0 0 0
507 5 Si 21.0997 23.2137 5 0 0 0
508 4 O 18.0918 25.3935 7.09972 0 0 0
509 4 O 16.074 27.2109 6.44868 0 0 0
510 4 O 20.1444 22.494 6.23218 0 0 0
511 4 O 16.2498 24.8208 5.15665 0 0 0
512 4 O 17.6444 22.5625 5.21008 0 0 0
513 4 O 18.0582 22.4856 7.98417 0 0 0
514 5 Si 17.2944 21.751 9.29113 0 0 0
515 5 Si 16.2743 24.5779 9.94768 0 0 0
516 5 Si 18.7409 25.7958 8.5709 0 0 0
517 4 O 18.4386 21.2154 10.3636 0 0 0
518 4 O 21.227 22.9286 9.98534 0 0 0
519 4 O 17.8323 25.17 9.83988 0 0 0
520 4 O 18.7326 27.4447 8.75382 0 0 0
521 4 O 20.2583 25.1167 8.66471 0 0 0
522 4 O 20.5954 25.2554 11.3762 0 0 0
523 5 Si 14.761 33.0046 5.82639 0 0 0
524 5 Si 16.1289 28.8807 6.48892 0 0 0
525 5 Si 18.6422 30.1142 5 0 0 0
526 4 O 15.6348 32.2945 7.09962 0 0 0
527 4 O 13.6161 34.1117 6.44855 0 0 0
528 4 O 17.6869 29.3947 6.232 0 0 0
529 4 O 13.7923 31.7213 5.15665 0 0 0
530 4 O 15.1869 29.463 5.21008 0 0 0
531 4 O 15.6004 29.3859 7.98382 0 0 0
532 5 Si 14.8371 28.6515 9.2911 0 0 0
533 5 Si 13.8174 31.4786 9.94802 0 0 0
534 5 Si 16.2837 32.6968 8.57083 0 0 0
535 4 O 15.9809 28.1154 10.3639 0 0 0
536 4 O 18.7692 29.8289 9.98446 0 0 0
537 4 O 15.375 32.0705 9.83973 0 0 0
538 4 O 16.2747 34.3456 8.75383 0 0 0
539 4 O 17.8011 32.0178 8.66464 0 0 0
540 4 O 18.1377 32.1552 11.3761 0 0 0
577 5 Si 24.591 19.2026 5.83178 0 0 0
580 4 O 25.4602 18.4935 7.10844 0 0 0
581 4 O 23.4416 20.3087 6.44671 0 0 0
583 4 O 23.6223 17.9203 5.15665 0 0 0
587 5 Si 23.6421 17.6842 9.95063 0 0 0
588 5 Si 26.1158 18.8875 8.57907 0 0 0
591 4 O 25.2034 18.2659 9.84662 0 0 0
592 4 O 26.1225 20.5363 8.76401 0 0 0
593 4 O 27.6293 18.1994 8.66874 0 0 0
595 5 Si 22.1337 26.1028 5.83154 0 0 0
596 5 Si 23.4989 21.9784 6.48939 0 0 0
597 5 Si 26.0147 23.2137 5 0 0 0
598 4 O 23.0025 25.3942 7.10884 0 0 0
599 4 O 20.9843 27.2092 6.44539 0 0 0
600 4 O 25.057 22.4902 6.22675 0 0 0
601 4 O 21.1648 24.8208 5.15665 0 0 0
602 4 O 22.5594 22.5625 5.21008 0 0 0
603 4 O 22.9728 22.4846 7.98501 0 0 0
604 5 Si 22.2003 21.7577 9.29142 0 0 0
605 5 Si 21.1845 24.5848 9.95058 0 0 0
606 5 Si 23.6586 25.7883 8.5793 0 0 0
607 4 O 23.3461 21.2235 10.3623 0 0 0
608 4 O 26.1579 22.918 9.99452 0 0 0
609 4 O 22.7458 25.1672 9.84679 0 0 0
610 4 O 23.6656 27.437 8.76406 0 0 0
611 4 O 25.1714 25.0993 8.66865 0 0 0
613 5 Si 19.6763 33.003 5.83228 0 0 0
614 5 Si 21.0417 28.8787 6.48914 0 0 0
615 5 Si 23.5572 30.1142 5 0 0 0
616 4 O 20.5451 32.2941 7.10888 0 0 0
617 4 O 18.5268 34.1094 6.44613 0 0 0
618 4 O 22.5997 29.391 6.22708 0 0 0
619 4 O 18.7073 31.7213 5.15665 0 0 0
620 4 O 20.1019 29.463 5.21008 0 0 0
621 4 O 20.5155 29.3843 7.9849 0 0 0
622 5 Si 19.7426 28.6581 9.29119 0 0 0
623 5 Si 18.7271 31.4853 9.95025 0 0 0
624 5 Si 21.201 32.6884 8.57967 0 0 0
625 4 O 20.8876 28.1234 10.3625 0 0 0
626 4 O 23.7005 29.8188 9.99405 0 0 0
627 4 O 20.2887 32.0674 9.84739 0 0 0
628 4 O 21.2079 34.3371 8.76435 0 0 0
629 4 O 22.7145 32.0004 8.66916 0 0 0
666 2 H 12.2793 18.145 11.5431 0 0 0
668 2 H 9.82325 25.0458 11.5445 0 0 0
670 2 H 7.36353 31.9459 11.542 0 0 0
671 2 H 8.44785 34.2061 10.8754 0 -1 0
676 2 H 17.1934 18.1516 11.5433 0 0 0
677 2 H 13.363 20.4049 10.8752 0 0 0
678 2 H 14.7356 25.0521 11.5422 0 0 0
679 2 H 10.9046 27.307 10.8761 0 0 0
680 2 H 12.2792 31.9522 11.5438 0 0 0
681 2 H 13.3497 34.1959 10.8739 0 -1 0
686 2 H 22.1122 18.1598 11.5553 0 0 0
687 2 H 18.2655 20.3951 10.874 0 0 0
688 2 H 19.6542 25.0598 11.5547 0 0 0
689 2 H 15.8075 27.2947 10.8734 0 0 0
690 2 H 17.1963 31.9599 11.5543 0 0 0
691 2 H 18.2543 34.2105 10.8813 0 -1 0
696 2 H 27.0588 18.1542 11.5693 0 0 0
697 2 H 23.1695 20.4101 10.8817 0 0 0
698 2 H 24.6018 25.0546 11.5703 0 0 0
699 2 H 20.7112 27.3098 10.8818 0 0 0
700 2 H 22.1447 31.9549 11.5703 0 0 0
729 1 C 12.906 19.3649 14.6339 0 0 0
730 1 C 11.9261 20.2407 15.4589 0 0 0
731 1 C 10.4608 19.71 15.5524 0 0 0
738 2 H 13.8994 19.8667 14.5379 0 0 0
739 2 H 12.5146 19.1938 13.6008 0 0 0
740 2 H 13.0807 18.3644 15.0935 0 0 0
741 2 H 12.3354 20.396 16.4899 0 0 0
742 2 H 11.8994 21.2576 14.9933 0 0 0
747 2 H 11.998 17.5031 16.8802 0 0 0
712 2 H 13.7858 17.7218 27.3257 0 0 0
719 2 H 12.2782 17.7192 25.6422 0 0 0
720 2 H 11.1814 17.5222 27.0462 0 0 0
722 2 H 10.7454 19.8657 25.1061 0 0 0
756 4 O 11.1175 17.6006 19.4509 0 0 0
ITEM: TIMESTEP
100000
ITEM: NUMBER OF ATOMS
757
ITEM: BOX BOUNDS xy xz yz pp pp ff
-1.2287415449999999e+01 3.4404763260000003e+01 -1.2287415449999999e+01
0.0000000000000000e+00 3.4502427988999997e+01 0.0000000000000000e+00
0.0000000000000000e+00 3.6159325252999999e+01 0.0000000000000000e+00
ITEM: ATOMS id type element x y z ix iy iz
1 5 Si 0.0218629 5.40545 5.81725 0 0 0
2 5 Si 1.38529 1.27722 6.4868 0 0 0
3 5 Si 3.89733 2.51221 5 0 0 0
4 4 O 0.89092 4.69806 7.09531 0 0 0
5 4 O -1.12624 6.50802 6.44429 0 0 0
6 4 O 2.94355 1.79114 6.23148 0 0 0
7 4 O -0.952567 4.11933 5.15665 0 0 0
8 4 O 0.442021 1.86105 5.21008 0 0 0
9 4 O 0.848806 1.78357 7.97759 0 0 0
10 5 Si 0.0998332 1.05057 9.29403 0 0 0
11 5 Si -0.92023 3.87245 9.94796 0 0 0
12 5 Si 1.54923 5.08847 8.56526 0 0 0
13 4 O 1.25994 0.532959 10.3581 0 0 0
14 4 O 4.03832 2.22012 9.99038 0 0 0
15 4 O 0.637283 4.45968 9.82951 0 0 0
16 4 O 1.56087 6.73456 8.76425 0 0 0
17 4 O 3.0592 4.39504 8.65635 0 0 0
18 4 O 3.40515 4.55351 11.3645 0 0 0
19 5 Si -2.43536 12.3059 5.81749 0 0 0