
     Program PWSCF v.7.2 starts on  3Nov2023 at 18:10:32 

     This program is part of the open-source Quantum ESPRESSO suite
     for quantum simulation of materials; please cite
         "P. Giannozzi et al., J. Phys.:Condens. Matter 21 395502 (2009);
         "P. Giannozzi et al., J. Phys.:Condens. Matter 29 465901 (2017);
         "P. Giannozzi et al., J. Chem. Phys. 152 154105 (2020);
          URL http://www.quantum-espresso.org", 
     in publications or presentations arising from this work. More details at
     http://www.quantum-espresso.org/quote

     Parallel version (MPI), running on    36 processors

     MPI processes distributed on     1 nodes
     769486 MiB available memory on the printing compute node when the environment starts
 
     Waiting for input...
     Reading input from standard input
Warning: card &CELL ignored
Warning: card / ignored

     Current dimensions of program PWSCF are:
     Max number of different atomic species (ntypx) = 10
     Max number of k-points (npk) =  40000
     Max angular momentum in pseudopotentials (lmaxx) =  4
     file Mo.pbe-spn-kjpaw_psl.1.0.0.UPF: wavefunction(s)  4S 4D renormalized
     file S.pbe-n-kjpaw_psl.1.0.0.UPF: wavefunction(s)  3S 3P renormalized
     file Pd.pbe-spn-kjpaw_psl.1.0.0.UPF: wavefunction(s)  4S 5S 4D renormalized
 
     R & G space division:  proc/nbgrp/npool/nimage =      36
     Subspace diagonalization in iterative solution of the eigenvalue problem:
     one sub-group per band group will be used
     custom distributed-memory algorithm (size of sub-group:  6*  6 procs)

 
     Parallelization info
     --------------------
     sticks:   dense  smooth     PW     G-vecs:    dense   smooth      PW
     Min         586     335     89               165416    71459    9765
     Max         587     337     90               165425    71461    9778
     Sum       21109   12085   3205              5955087  2572543  351657
 
     Using Slab Decomposition
 


     bravais-lattice index     =            0
     lattice parameter (alat)  =      23.8395  a.u.
     unit-cell volume          =   28182.8498 (a.u.)^3
     number of atoms/cell      =          147
     number of atomic types    =            3
     number of electrons       =      1302.00
     number of Kohn-Sham states=          781
     kinetic-energy cutoff     =      77.0000  Ry
     charge density cutoff     =     539.0000  Ry
     scf convergence threshold =      1.0E-06
     mixing beta               =       0.2000
     number of iterations used =            8  plain     mixing
     energy convergence thresh.=      1.0E-04
     force convergence thresh. =      1.0E-03
     Exchange-correlation= SLA  PW   PBX  PBC
                           (   1   4   3   4   0   0   0)
     nstep                     =         1000


     Effective Screening Medium Method
     =================================
     Boundary Conditions: Vacuum-Slab-Vacuum
     total charge in unit cell        =   0.0000
     grid points for fit at edges     =        4 
 

     celldm(1)=  23.839504  celldm(2)=   0.000000  celldm(3)=   0.000000
     celldm(4)=   0.000000  celldm(5)=   0.000000  celldm(6)=   0.000000

     crystal axes: (cart. coord. in units of alat)
               a(1) = (   1.000000   0.000000   0.000000 )  
               a(2) = (  -0.500001   0.866026   0.000000 )  
               a(3) = (   0.000000   0.000000   2.401941 )  

     reciprocal axes: (cart. coord. in units 2 pi/alat)
               b(1) = (  1.000000  0.577351  0.000000 )  
               b(2) = (  0.000000  1.154700  0.000000 )  
               b(3) = (  0.000000  0.000000  0.416330 )  


     PseudoPot. # 1 for Mo read from file:
     ./pseudo/Mo.pbe-spn-kjpaw_psl.1.0.0.UPF
     MD5 check sum: 317bf72632116215fd98f72de1686f13
     Pseudo is Projector augmented-wave + core cor, Zval = 14.0
     Generated using 'atomic' code by A. Dal Corso  v.7.2
     Shape of augmentation charge: PSQ
     Using radial grid of 1229 points,  6 beta functions with: 
                l(1) =   0
                l(2) =   0
                l(3) =   1
                l(4) =   1
                l(5) =   2
                l(6) =   2
     Q(r) pseudized with 0 coefficients 


     PseudoPot. # 2 for S  read from file:
     ./pseudo/S.pbe-n-kjpaw_psl.1.0.0.UPF
     MD5 check sum: 8b7b5302570d38d5e87fed6a1065abda
     Pseudo is Projector augmented-wave + core cor, Zval =  6.0
     Generated using 'atomic' code by A. Dal Corso  v.7.2
     Shape of augmentation charge: PSQ
     Using radial grid of 1151 points,  6 beta functions with: 
                l(1) =   0
                l(2) =   0
                l(3) =   1
                l(4) =   1
                l(5) =   2
                l(6) =   2
     Q(r) pseudized with 0 coefficients 


     PseudoPot. # 3 for Pd read from file:
     ./pseudo/Pd.pbe-spn-kjpaw_psl.1.0.0.UPF
     MD5 check sum: a60571a671f2502b8a6a4569d20a6edb
     Pseudo is Projector augmented-wave + core cor, Zval = 18.0
     Generated using 'atomic' code by A. Dal Corso  v.7.2
     Shape of augmentation charge: PSQ
     Using radial grid of 1235 points,  6 beta functions with: 
                l(1) =   0
                l(2) =   0
                l(3) =   1
                l(4) =   1
                l(5) =   2
                l(6) =   2
     Q(r) pseudized with 0 coefficients 


     atomic species   valence    mass     pseudopotential
        Mo            14.00    95.95000     Mo( 1.00)
        S              6.00    32.06000     S ( 1.00)
        Pd            18.00   106.42000     Pd( 1.00)

     No symmetry found



   Cartesian axes

     site n.     atom                  positions (alat units)
         1           Mo  tau(   1) = (   0.1248625   0.2131281   0.4810783  )
         2           Mo  tau(   2) = (   0.1250004   0.0721694  -0.4825273  )
         3           Mo  tau(   3) = (  -0.0000005   0.1443526  -0.0000490  )
         4           S   tau(   4) = (   0.0000004   0.0000006  -0.6064556  )
         5           S   tau(   5) = (   0.1249809   0.0722325  -0.1242083  )
         6           S   tau(   6) = (  -0.0008091   0.1437924   0.3564499  )
         7           S   tau(   7) = (   0.0000004   0.0000005  -0.3584711  )
         8           S   tau(   8) = (   0.1250266   0.0721270   0.1240857  )
         9           S   tau(   9) = (  -0.0005942   0.1424836   0.6054838  )
        10           Mo  tau(  10) = (  -0.0011099   0.4328730   0.4866737  )
        11           Mo  tau(  11) = (   0.0000001   0.2886759  -0.4825273  )
        12           Mo  tau(  12) = (  -0.1249710   0.3608625  -0.0000153  )
        13           S   tau(  13) = (  -0.1249999   0.2165071  -0.6064556  )
        14           S   tau(  14) = (   0.0000009   0.2886909  -0.1241159  )
        15           S   tau(  15) = (  -0.1236884   0.3618446   0.3606188  )
        16           S   tau(  16) = (  -0.1249998   0.2165070  -0.3584711  )
        17           S   tau(  17) = (   0.0000530   0.2887092   0.1242638  )
        18           S   tau(  18) = (  -0.1316249   0.3573130   0.6109420  )
        19           Mo  tau(  19) = (  -0.1257401   0.6504248   0.4820927  )
        20           Mo  tau(  20) = (  -0.1250002   0.5051824  -0.4825273  )
        21           Mo  tau(  21) = (  -0.2499958   0.5773353  -0.0001714  )
        22           S   tau(  22) = (  -0.2500002   0.4330136  -0.6064556  )
        23           S   tau(  23) = (  -0.1249719   0.5051311  -0.1241932  )
        24           S   tau(  24) = (  -0.2500164   0.5770675   0.3576049  )
        25           S   tau(  25) = (  -0.2500001   0.4330135  -0.3584711  )
        26           S   tau(  26) = (  -0.1250100   0.5052346   0.1241515  )
        27           S   tau(  27) = (  -0.2503695   0.5776584   0.6061514  )
        28           Mo  tau(  28) = (   0.2502170  -0.0003953   0.4806411  )
        29           Mo  tau(  29) = (  -0.2500004   0.7216889  -0.4825273  )
        30           Mo  tau(  30) = (  -0.3749978   0.7938641  -0.0002041  )
        31           S   tau(  31) = (  -0.3750004   0.6495201  -0.6064556  )
        32           S   tau(  32) = (  -0.2499890   0.7216755  -0.1242803  )
        33           S   tau(  33) = (  -0.3749740   0.7932749   0.3566586  )
        34           S   tau(  34) = (  -0.3750004   0.6495200  -0.3584711  )
        35           S   tau(  35) = (  -0.2500089   0.7216778   0.1239952  )
        36           S   tau(  36) = (  -0.3749998   0.7939174   0.6051309  )
        37           Mo  tau(  37) = (   0.3753608   0.2157704   0.4822604  )
        38           Mo  tau(  38) = (   0.3750004   0.0721694  -0.4825273  )
        39           Mo  tau(  39) = (   0.2499960   0.1443611  -0.0001003  )
        40           S   tau(  40) = (   0.2500004   0.0000006  -0.6064556  )
        41           S   tau(  41) = (   0.3750017   0.0721909  -0.1242276  )
        42           S   tau(  42) = (   0.2507085   0.1439928   0.3565793  )
        43           S   tau(  43) = (   0.2500004   0.0000005  -0.3584711  )
        44           S   tau(  44) = (   0.3750105   0.0721153   0.1240138  )
        45           S   tau(  45) = (   0.2503040   0.1425185   0.6055897  )
        46           Mo  tau(  46) = (   0.2508295   0.4328457   0.4866827  )
        47           Mo  tau(  47) = (   0.2500001   0.2886759  -0.4825273  )
        48           Mo  tau(  48) = (   0.1249947   0.3608692  -0.0000343  )
        49           S   tau(  49) = (   0.1250001   0.2165071  -0.6064556  )
        50           S   tau(  50) = (   0.2499709   0.2887106  -0.1241515  )
        51           S   tau(  51) = (   0.1248475   0.3620695   0.3632119  )
        52           S   tau(  52) = (   0.1250002   0.2165070  -0.3584711  )
        53           S   tau(  53) = (   0.2499461   0.2887051   0.1242364  )
        54           S   tau(  54) = (   0.1248217   0.3502704   0.6102012  )
        55           Mo  tau(  55) = (   0.1249300   0.6515066   0.4828014  )
        56           Mo  tau(  56) = (   0.1249998   0.5051824  -0.4825273  )
        57           Mo  tau(  57) = (   0.0000129   0.5773133  -0.0000993  )
        58           S   tau(  58) = (  -0.0000002   0.4330136  -0.6064556  )
        59           S   tau(  59) = (   0.1250046   0.5051576  -0.1241791  )
        60           S   tau(  60) = (   0.0000991   0.5758547   0.3610070  )
        61           S   tau(  61) = (  -0.0000001   0.4330135  -0.3584711  )
        62           S   tau(  62) = (   0.1249978   0.5051967   0.1242137  )
        63           S   tau(  63) = (  -0.0004561   0.5855879   0.6099183  )
        64           Mo  tau(  64) = (   0.4999896   0.0002543   0.4809432  )
        65           Mo  tau(  65) = (  -0.0000004   0.7216889  -0.4825273  )
        66           Mo  tau(  66) = (  -0.1249822   0.7938260  -0.0001787  )
        67           S   tau(  67) = (  -0.1250004   0.6495201  -0.6064556  )
        68           S   tau(  68) = (   0.0000560   0.7216541  -0.1241922  )
        69           S   tau(  69) = (  -0.1247643   0.7934174   0.3566857  )
        70           S   tau(  70) = (  -0.1250004   0.6495200  -0.3584711  )
        71           S   tau(  71) = (  -0.0000442   0.7215876   0.1241439  )
        72           S   tau(  72) = (  -0.1253483   0.7949346   0.6057201  )
        73           Mo  tau(  73) = (   0.6249017   0.2165129   0.4812697  )
        74           Mo  tau(  74) = (   0.6250004   0.0721694  -0.4825273  )
        75           Mo  tau(  75) = (   0.4999952   0.1443533  -0.0001098  )
        76           S   tau(  76) = (   0.5000004   0.0000006  -0.6064556  )
        77           S   tau(  77) = (   0.6250318   0.0721540  -0.1241362  )
        78           S   tau(  78) = (   0.4996954   0.1447446   0.3570727  )
        79           S   tau(  79) = (   0.5000004   0.0000005  -0.3584711  )
        80           S   tau(  80) = (   0.6249569   0.0721720   0.1241430  )
        81           S   tau(  81) = (   0.5006050   0.1436236   0.6059489  )
        82           Mo  tau(  82) = (   0.5006857   0.4329470   0.4824369  )
        83           Mo  tau(  83) = (   0.5000001   0.2886759  -0.4825273  )
        84           Mo  tau(  84) = (   0.3749597   0.3608609  -0.0000517  )
        85           S   tau(  85) = (   0.3750001   0.2165071  -0.6064556  )
        86           S   tau(  86) = (   0.4999928   0.2887170  -0.1241435  )
        87           S   tau(  87) = (   0.3733222   0.3618437   0.3607838  )
        88           S   tau(  88) = (   0.3750002   0.2165070  -0.3584711  )
        89           S   tau(  89) = (   0.4999211   0.2887076   0.1241935  )
        90           S   tau(  90) = (   0.3816191   0.3573238   0.6109900  )
        91           Mo  tau(  91) = (   0.3756235   0.6503811   0.4821918  )
        92           Mo  tau(  92) = (   0.3749998   0.5051824  -0.4825273  )
        93           Mo  tau(  93) = (   0.2499864   0.5773188  -0.0000834  )
        94           S   tau(  94) = (   0.2499998   0.4330136  -0.6064556  )
        95           S   tau(  95) = (   0.3749642   0.5051523  -0.1241979  )
        96           S   tau(  96) = (   0.2498138   0.5757592   0.3610614  )
        97           S   tau(  97) = (   0.2499999   0.4330135  -0.3584711  )
        98           S   tau(  98) = (   0.3750061   0.5052047   0.1241511  )
        99           S   tau(  99) = (   0.2502814   0.5855194   0.6099661  )
       100           Mo  tau( 100) = (   0.7499287   0.0002139   0.4807633  )
       101           Mo  tau( 101) = (   0.2499996   0.7216889  -0.4825273  )
       102           Mo  tau( 102) = (   0.1249938   0.7938245  -0.0000338  )
       103           S   tau( 103) = (   0.1249996   0.6495201  -0.6064556  )
       104           S   tau( 104) = (   0.2499613   0.7216724  -0.1241590  )
       105           S   tau( 105) = (   0.1248898   0.7937393   0.3567607  )
       106           S   tau( 106) = (   0.1249996   0.6495200  -0.3584711  )
       107           S   tau( 107) = (   0.2500082   0.7215902   0.1241792  )
       108           S   tau( 108) = (   0.1250505   0.7963098   0.6059971  )
       109           Mo  tau( 109) = (  -0.1255078   0.2157673   0.4820262  )
       110           Mo  tau( 110) = (   0.8750004   0.0721694  -0.4825273  )
       111           Mo  tau( 111) = (   0.7499955   0.1443569  -0.0000274  )
       112           S   tau( 112) = (   0.7500004   0.0000006  -0.6064556  )
       113           S   tau( 113) = (   0.8749777   0.0721989  -0.1241465  )
       114           S   tau( 114) = (   0.7500467   0.1447298   0.3568874  )
       115           S   tau( 115) = (   0.7500004   0.0000005  -0.3584711  )
       116           S   tau( 116) = (   0.8749903   0.0721117   0.1240970  )
       117           S   tau( 117) = (   0.7493677   0.1435906   0.6057073  )
       118           Mo  tau( 118) = (  -0.2508787   0.4328922   0.4823938  )
       119           Mo  tau( 119) = (   0.7500001   0.2886759  -0.4825273  )
       120           Mo  tau( 120) = (   0.6249968   0.3608571  -0.0000279  )
       121           S   tau( 121) = (   0.6250001   0.2165071  -0.6064556  )
       122           S   tau( 122) = (   0.7500208   0.2886896  -0.1240956  )
       123           S   tau( 123) = (   0.6248005   0.3612471   0.3574315  )
       124           S   tau( 124) = (   0.6250002   0.2165070  -0.3584711  )
       125           S   tau( 125) = (   0.7500493   0.2887427   0.1242427  )
       126           S   tau( 126) = (   0.6249033   0.3601959   0.6065890  )
       127           Mo  tau( 127) = (  -0.3750379   0.6494479   0.4815491  )
       128           Mo  tau( 128) = (   0.6249998   0.5051824  -0.4825273  )
       129           Mo  tau( 129) = (   0.4999893   0.5773309  -0.0001634  )
       130           S   tau( 130) = (   0.4999998   0.4330136  -0.6064556  )
       131           S   tau( 131) = (   0.6249961   0.5051217  -0.1242214  )
       132           S   tau( 132) = (   0.4998255   0.5770883   0.3576879  )
       133           S   tau( 133) = (   0.4999999   0.4330135  -0.3584711  )
       134           S   tau( 134) = (   0.6249981   0.5052504   0.1240736  )
       135           S   tau( 135) = (   0.5003122   0.5776902   0.6062470  )
       136           Mo  tau( 136) = (  -0.0002805  -0.0004824   0.4806096  )
       137           Mo  tau( 137) = (   0.4999996   0.7216889  -0.4825273  )
       138           Mo  tau( 138) = (   0.3749756   0.7938309  -0.0001159  )
       139           S   tau( 139) = (   0.3749996   0.6495201  -0.6064556  )
       140           S   tau( 140) = (   0.4999628   0.7216864  -0.1242513  )
       141           S   tau( 141) = (   0.3747357   0.7932164   0.3566619  )
       142           S   tau( 142) = (   0.3749996   0.6495200  -0.3584711  )
       143           S   tau( 143) = (   0.5000348   0.7216656   0.1240143  )
       144           S   tau( 144) = (   0.3751928   0.7949639   0.6056664  )
       145           Pd  tau( 145) = (   0.2448410   0.4348549   0.7173028  )
       146           Pd  tau( 146) = (   0.0055759   0.4353384   0.7172832  )
       147           Pd  tau( 147) = (   0.5006610   0.4329656   0.7268410  )

     --------------------------------------------
     DFT-D3 Dispersion Correction (3-body terms):
     --------------------------------------------
       Reference C6 values for interpolation: 

         atom   Coordination number   C6
         S          0.000           268.01
         S          0.995           261.99
         S          1.990           251.62
         Mo         0.000          1691.79
         Mo         1.942          1004.01
         Mo        11.056           674.22
         Pd         0.000          1217.01
         Pd         1.863           573.90
         Pd         5.710           531.75

       Values used:

         atom   Coordination number  R0_AB[au]  C6      C8
         Mo        10.164            3.547    674.22  77634.20
         Mo        10.189            3.547    674.22  77634.20
         Mo        10.201            3.547    674.22  77634.20
         S          3.753            3.128    251.62  12327.25
         S          3.858            3.128    251.62  12327.25
         S          3.843            3.128    251.62  12327.25
         S          3.859            3.128    251.62  12327.25
         S          3.863            3.128    251.62  12327.25
         S          3.813            3.128    251.62  12327.25
         Mo        10.768            3.547    674.22  77634.20
         Mo        10.189            3.547    674.22  77634.20
         Mo        10.202            3.547    674.22  77634.20
         S          3.753            3.128    251.62  12327.25
         S          3.859            3.128    251.62  12327.25
         S          3.854            3.128    251.62  12327.25
         S          3.858            3.128    251.62  12327.25
         S          3.851            3.128    251.62  12327.25
         S          4.639            3.128    251.62  12327.25
         Mo        10.197            3.547    674.22  77634.20
         Mo        10.189            3.547    674.22  77634.20
         Mo        10.201            3.547    674.22  77634.20
         S          3.753            3.128    251.62  12327.25
         S          3.859            3.128    251.62  12327.25
         S          3.863            3.128    251.62  12327.25
         S          3.859            3.128    251.62  12327.25
         S          3.855            3.128    251.62  12327.25
         S          3.768            3.128    251.62  12327.25
         Mo        10.248            3.547    674.22  77634.20
         Mo        10.189            3.547    674.22  77634.20
         Mo        10.200            3.547    674.22  77634.20
         S          3.753            3.128    251.62  12327.25
         S          3.858            3.128    251.62  12327.25
         S          3.860            3.128    251.62  12327.25
         S          3.859            3.128    251.62  12327.25
         S          3.864            3.128    251.62  12327.25
         S          3.777            3.128    251.62  12327.25
         Mo        10.209            3.547    674.22  77634.20
         Mo        10.189            3.547    674.22  77634.20
         Mo        10.201            3.547    674.22  77634.20
         S          3.753            3.128    251.62  12327.25
         S          3.858            3.128    251.62  12327.25
         S          3.845            3.128    251.62  12327.25
         S          3.859            3.128    251.62  12327.25
         S          3.864            3.128    251.62  12327.25
         S          3.812            3.128    251.62  12327.25
         Mo        10.776            3.547    674.22  77634.20
         Mo        10.189            3.547    674.22  77634.20
         Mo        10.203            3.547    674.22  77634.20
         S          3.753            3.128    251.62  12327.25
         S          3.859            3.128    251.62  12327.25
         S          3.876            3.128    251.62  12327.25
         S          3.859            3.128    251.62  12327.25
         S          3.852            3.128    251.62  12327.25
         S          5.603            3.128    251.62  12327.25
         Mo        10.160            3.547    674.22  77634.20
         Mo        10.189            3.547    674.22  77634.20
         Mo        10.203            3.547    674.22  77634.20
         S          3.753            3.128    251.62  12327.25
         S          3.859            3.128    251.62  12327.25
         S          3.866            3.128    251.62  12327.25
         S          3.859            3.128    251.62  12327.25
         S          3.849            3.128    251.62  12327.25
         S          4.659            3.128    251.62  12327.25
         Mo        10.243            3.547    674.22  77634.20
         Mo        10.189            3.547    674.22  77634.20
         Mo        10.200            3.547    674.22  77634.20
         S          3.753            3.128    251.62  12327.25
         S          3.858            3.128    251.62  12327.25
         S          3.855            3.128    251.62  12327.25
         S          3.859            3.128    251.62  12327.25
         S          3.859            3.128    251.62  12327.25
         S          3.803            3.128    251.62  12327.25
         Mo        10.237            3.547    674.22  77634.20
         Mo        10.189            3.547    674.22  77634.20
         Mo        10.200            3.547    674.22  77634.20
         S          3.753            3.128    251.62  12327.25
         S          3.858            3.128    251.62  12327.25
         S          3.852            3.128    251.62  12327.25
         S          3.859            3.128    251.62  12327.25
         S          3.861            3.128    251.62  12327.25
         S          3.816            3.128    251.62  12327.25
         Mo        10.720            3.547    674.22  77634.20
         Mo        10.189            3.547    674.22  77634.20
         Mo        10.202            3.547    674.22  77634.20
         S          3.753            3.128    251.62  12327.25
         S          3.858            3.128    251.62  12327.25
         S          3.857            3.128    251.62  12327.25
         S          3.859            3.128    251.62  12327.25
         S          3.856            3.128    251.62  12327.25
         S          5.611            3.128    251.62  12327.25
         Mo        10.205            3.547    674.22  77634.20
         Mo        10.189            3.547    674.22  77634.20
         Mo        10.203            3.547    674.21  77634.20
         S          3.753            3.128    251.62  12327.25
         S          3.859            3.128    251.62  12327.25
         S          3.867            3.128    251.62  12327.25
         S          3.859            3.128    251.62  12327.25
         S          3.855            3.128    251.62  12327.25
         S          4.666            3.128    251.62  12327.25
         Mo        10.241            3.547    674.22  77634.20
         Mo        10.189            3.547    674.22  77634.20
         Mo        10.201            3.547    674.22  77634.20
         S          3.753            3.128    251.62  12327.25
         S          3.859            3.128    251.62  12327.25
         S          3.844            3.128    251.62  12327.25
         S          3.859            3.128    251.62  12327.25
         S          3.858            3.128    251.62  12327.25
         S          3.832            3.128    251.62  12327.25
         Mo        10.201            3.547    674.22  77634.20
         Mo        10.189            3.547    674.22  77634.20
         Mo        10.200            3.547    674.22  77634.20
         S          3.753            3.128    251.62  12327.25
         S          3.859            3.128    251.62  12327.25
         S          3.851            3.128    251.62  12327.25
         S          3.859            3.128    251.62  12327.25
         S          3.863            3.128    251.62  12327.25
         S          3.810            3.128    251.62  12327.25
         Mo        10.216            3.547    674.22  77634.20
         Mo        10.189            3.547    674.22  77634.20
         Mo        10.201            3.547    674.22  77634.20
         S          3.753            3.128    251.62  12327.25
         S          3.859            3.128    251.62  12327.25
         S          3.848            3.128    251.62  12327.25
         S          3.858            3.128    251.62  12327.25
         S          3.856            3.128    251.62  12327.25
         S          4.770            3.128    251.62  12327.25
         Mo        10.232            3.547    674.22  77634.20
         Mo        10.189            3.547    674.22  77634.20
         Mo        10.201            3.547    674.22  77634.20
         S          3.753            3.128    251.62  12327.25
         S          3.859            3.128    251.62  12327.25
         S          3.864            3.128    251.62  12327.25
         S          3.859            3.128    251.62  12327.25
         S          3.861            3.128    251.62  12327.25
         S          4.703            3.128    251.62  12327.25
         Mo        10.248            3.547    674.22  77634.20
         Mo        10.189            3.547    674.22  77634.20
         Mo        10.200            3.547    674.22  77634.20
         S          3.753            3.128    251.62  12327.25
         S          3.858            3.128    251.62  12327.25
         S          3.854            3.128    251.62  12327.25
         S          3.859            3.128    251.62  12327.25
         S          3.864            3.128    251.62  12327.25
         S          3.805            3.128    251.62  12327.25
         Pd         4.186            3.168    531.75  48720.75
         Pd         4.035            3.168    531.77  48722.49
         Pd         3.622            3.168    573.62  52557.25

         Molecular C6 ( Ry / a.u.^6 ) =   8049249.45


     number of k points=     4  Gaussian smearing, width (Ry)=  0.0100
                       cart. coord. in units 2pi/alat
        k(    1) = (   0.0000000   0.0000000   0.0000000), wk =   0.5000000
        k(    2) = (   0.0000000  -0.5773499   0.0000000), wk =   0.5000000
        k(    3) = (  -0.5000000  -0.2886755   0.0000000), wk =   0.5000000
        k(    4) = (  -0.5000000  -0.8660254   0.0000000), wk =   0.5000000

     Dense  grid:  5955087 G-vectors     FFT dimensions: ( 180, 180, 432)

     Smooth grid:  2572543 G-vectors     FFT dimensions: ( 135, 135, 320)

     Estimated max dynamical RAM per process >       2.14 GB

     Estimated total dynamical RAM >      77.21 GB

     Initial potential from superposition of free atoms

     starting charge    1301.9534, renormalised to    1302.0000

     negative rho (up, down):  1.169E-03 0.000E+00
     Starting wfcs are  894 randomized atomic wfcs
     Checking if some PAW data can be deallocated... 

     total cpu time spent up to now is      106.0 secs

     Self-consistent Calculation

     iteration #  1     ecut=    77.00 Ry     beta= 0.20
     Davidson diagonalization with overlap
     ethr =  1.00E-02,  avg # of iterations =  2.0

     Threshold (ethr) on eigenvalues was too large:
     Diagonalizing with lowered threshold

     Davidson diagonalization with overlap
     ethr =  2.66E-04,  avg # of iterations = 16.2

     negative rho (up, down):  3.818E-04 0.000E+00

     total cpu time spent up to now is     1074.6 secs

     total energy              =  -25380.75353519 Ry
     estimated scf accuracy    <       4.89271274 Ry

     iteration #  2     ecut=    77.00 Ry     beta= 0.20
     Davidson diagonalization with overlap
     ethr =  3.76E-04,  avg # of iterations =  8.8

     negative rho (up, down):  1.171E-04 0.000E+00

     total cpu time spent up to now is     1323.9 secs

     total energy              =  -25380.37048077 Ry
     estimated scf accuracy    <       2.30890601 Ry

     iteration #  3     ecut=    77.00 Ry     beta= 0.20
     Davidson diagonalization with overlap
     ethr =  1.77E-04,  avg # of iterations =  9.0

     negative rho (up, down):  3.556E-05 0.000E+00

     total cpu time spent up to now is     1577.4 secs

     total energy              =  -25380.16188171 Ry
     estimated scf accuracy    <       1.19158208 Ry

     iteration #  4     ecut=    77.00 Ry     beta= 0.20
     Davidson diagonalization with overlap
     ethr =  9.15E-05,  avg # of iterations = 17.5

     negative rho (up, down):  4.090E-05 0.000E+00

     total cpu time spent up to now is     2029.8 secs

     total energy              =  -25380.67378296 Ry
     estimated scf accuracy    <       0.46755034 Ry

     iteration #  5     ecut=    77.00 Ry     beta= 0.20
     Davidson diagonalization with overlap
     ethr =  3.59E-05,  avg # of iterations = 14.2

     negative rho (up, down):  5.366E-05 0.000E+00

     total cpu time spent up to now is     2426.8 secs

     total energy              =  -25380.93013854 Ry
     estimated scf accuracy    <       0.13517668 Ry

     iteration #  6     ecut=    77.00 Ry     beta= 0.20
     Davidson diagonalization with overlap
     c_bands:  3 eigenvalues not converged
     c_bands:  2 eigenvalues not converged
     c_bands:  3 eigenvalues not converged
     ethr =  1.04E-05,  avg # of iterations = 59.5

     negative rho (up, down):  9.477E-05 0.000E+00

     total cpu time spent up to now is     3557.4 secs

     total energy              =  -25381.05171366 Ry
     estimated scf accuracy    <       0.09097280 Ry

     iteration #  7     ecut=    77.00 Ry     beta= 0.20
     Davidson diagonalization with overlap
     c_bands:  2 eigenvalues not converged
     c_bands:  4 eigenvalues not converged
     c_bands:  1 eigenvalues not converged
     ethr =  6.99E-06,  avg # of iterations = 17.8

     negative rho (up, down):  5.280E-04 0.000E+00

     total cpu time spent up to now is     3840.5 secs

     total energy              =  -25381.03541731 Ry
     estimated scf accuracy    <       0.06029936 Ry

     iteration #  8     ecut=    77.00 Ry     beta= 0.20
     Davidson diagonalization with overlap
     c_bands:  1 eigenvalues not converged
     c_bands:  5 eigenvalues not converged
     c_bands:  1 eigenvalues not converged
     ethr =  4.63E-06,  avg # of iterations = 18.8

     negative rho (up, down):  6.936E-04 0.000E+00

     total cpu time spent up to now is     4270.5 secs

     total energy              =  -25381.06183933 Ry
     estimated scf accuracy    <       0.03290045 Ry

     iteration #  9     ecut=    77.00 Ry     beta= 0.20
     Davidson diagonalization with overlap
     c_bands:  3 eigenvalues not converged
     c_bands:  5 eigenvalues not converged
     c_bands:  3 eigenvalues not converged
     c_bands:  4 eigenvalues not converged
     ethr =  2.53E-06,  avg # of iterations = 40.0

     negative rho (up, down):  6.129E-04 0.000E+00

     total cpu time spent up to now is     4826.5 secs

     total energy              =  -25381.06308574 Ry
     estimated scf accuracy    <       0.00975293 Ry

     iteration # 10     ecut=    77.00 Ry     beta= 0.20
     Davidson diagonalization with overlap
     c_bands:  1 eigenvalues not converged
     c_bands:  4 eigenvalues not converged
     c_bands:  4 eigenvalues not converged
     ethr =  7.49E-07,  avg # of iterations = 20.2

     negative rho (up, down):  6.841E-04 0.000E+00

     total cpu time spent up to now is     5469.0 secs

     total energy              =  -25381.07446816 Ry
     estimated scf accuracy    <       0.00401730 Ry

     iteration # 11     ecut=    77.00 Ry     beta= 0.20
     Davidson diagonalization with overlap
     c_bands:  1 eigenvalues not converged
     ethr =  3.09E-07,  avg # of iterations = 13.5

     negative rho (up, down):  7.756E-04 0.000E+00

     total cpu time spent up to now is     5800.7 secs

     total energy              =  -25381.07486164 Ry
     estimated scf accuracy    <       0.00163012 Ry

     iteration # 12     ecut=    77.00 Ry     beta= 0.20
     Davidson diagonalization with overlap
     ethr =  1.25E-07,  avg # of iterations = 14.8

     negative rho (up, down):  8.381E-04 0.000E+00

     total cpu time spent up to now is     6295.8 secs

     total energy              =  -25381.07614703 Ry
     estimated scf accuracy    <       0.00028555 Ry

     iteration # 13     ecut=    77.00 Ry     beta= 0.20
     Davidson diagonalization with overlap
     c_bands:  5 eigenvalues not converged
     ethr =  2.19E-08,  avg # of iterations = 17.8

     negative rho (up, down):  8.664E-04 0.000E+00

     total cpu time spent up to now is     6986.8 secs

     total energy              =  -25381.07660961 Ry
     estimated scf accuracy    <       0.00015258 Ry

     iteration # 14     ecut=    77.00 Ry     beta= 0.20
     Davidson diagonalization with overlap
     c_bands:  1 eigenvalues not converged
     ethr =  1.17E-08,  avg # of iterations = 13.2

     negative rho (up, down):  9.791E-04 0.000E+00

     total cpu time spent up to now is     7287.9 secs

     total energy              =  -25381.07657817 Ry
     estimated scf accuracy    <       0.00008670 Ry

     iteration # 15     ecut=    77.00 Ry     beta= 0.20
     Davidson diagonalization with overlap
     c_bands:  1 eigenvalues not converged
     ethr =  6.66E-09,  avg # of iterations = 16.8

     negative rho (up, down):  9.950E-04 0.000E+00

     total cpu time spent up to now is     7768.5 secs

     total energy              =  -25381.07663918 Ry
     estimated scf accuracy    <       0.00001746 Ry

     iteration # 16     ecut=    77.00 Ry     beta= 0.20
     Davidson diagonalization with overlap
     ethr =  1.34E-09,  avg # of iterations = 17.8

     negative rho (up, down):  9.882E-04 0.000E+00

     total cpu time spent up to now is     8431.1 secs

     total energy              =  -25381.07666816 Ry
     estimated scf accuracy    <       0.00001117 Ry

     iteration # 17     ecut=    77.00 Ry     beta= 0.20
     Davidson diagonalization with overlap
     c_bands:  1 eigenvalues not converged
     ethr =  8.58E-10,  avg # of iterations = 11.0

     negative rho (up, down):  9.881E-04 0.000E+00

     total cpu time spent up to now is     8693.1 secs

     total energy              =  -25381.07666699 Ry
     estimated scf accuracy    <       0.00000621 Ry

     iteration # 18     ecut=    77.00 Ry     beta= 0.20
     Davidson diagonalization with overlap
     ethr =  4.77E-10,  avg # of iterations = 14.5

     negative rho (up, down):  9.942E-04 0.000E+00

     total cpu time spent up to now is     9096.3 secs

     total energy              =  -25381.07666748 Ry
     estimated scf accuracy    <       0.00000327 Ry

     iteration # 19     ecut=    77.00 Ry     beta= 0.20
     Davidson diagonalization with overlap
     ethr =  2.51E-10,  avg # of iterations =  9.5

     negative rho (up, down):  1.001E-03 0.000E+00

     total cpu time spent up to now is     9426.0 secs

     total energy              =  -25381.07666549 Ry
     estimated scf accuracy    <       0.00000109 Ry

     iteration # 20     ecut=    77.00 Ry     beta= 0.20
     Davidson diagonalization with overlap
     ethr =  8.36E-11,  avg # of iterations = 15.2

     negative rho (up, down):  1.005E-03 0.000E+00

     total cpu time spent up to now is     9959.5 secs

     End of self-consistent calculation

          k = 0.0000 0.0000 0.0000 (321495 PWs)   bands (ev):

   -88.6574 -88.6212 -88.3839 -66.6245 -66.6034 -66.6034 -66.6034 -66.6033
   -66.6033 -66.6033 -66.5822 -66.5822 -66.5822 -66.5822 -66.5822 -66.5822
   -66.5821 -66.5821 -66.5821 -66.5583 -66.5376 -66.5375 -66.5373 -66.5371
   -66.5369 -66.5368 -66.5168 -66.5164 -66.5163 -66.5161 -66.5160 -66.5159
   -66.5158 -66.5156 -66.5153 -66.4833 -66.4701 -66.4673 -66.4560 -66.4538
   -66.4497 -66.4480 -66.4396 -66.4351 -66.4317 -66.4270 -66.4246 -66.4171
   -66.4119 -66.4088 -66.4049 -54.5093 -54.4720 -54.4374 -54.4084 -54.3983
   -54.3808 -54.2340 -54.1898 -54.1422 -40.9508 -40.9508 -40.9508 -40.8837
   -40.8835 -40.8834 -40.8760 -40.8760 -40.8760 -40.8760 -40.8760 -40.8760
   -40.8091 -40.8089 -40.8088 -40.8087 -40.8086 -40.8085 -40.8034 -40.7972
   -40.7913 -40.7847 -40.7505 -40.7504 -40.7504 -40.7504 -40.7504 -40.7504
   -40.7433 -40.7433 -40.7432 -40.7432 -40.7432 -40.7432 -40.7302 -40.7271
   -40.7190 -40.7168 -40.7156 -40.7156 -40.7156 -40.7156 -40.7156 -40.7156
   -40.7148 -40.7091 -40.7073 -40.7016 -40.7016 -40.7016 -40.7016 -40.7015
   -40.7015 -40.7015 -40.7015 -40.7015 -40.6836 -40.6835 -40.6835 -40.6832
   -40.6832 -40.6831 -40.6780 -40.6779 -40.6777 -40.6775 -40.6774 -40.6772
   -40.6554 -40.6488 -40.6487 -40.6487 -40.6485 -40.6484 -40.6483 -40.6378
   -40.6378 -40.6378 -40.6368 -40.6363 -40.6362 -40.6360 -40.6359 -40.6358
   -40.6358 -40.6356 -40.6354 -40.6315 -40.6203 -40.6140 -40.6115 -40.6085
   -40.6042 -40.6010 -40.5999 -40.5958 -40.5927 -40.5910 -40.5910 -40.5910
   -40.5910 -40.5910 -40.5910 -40.5831 -40.5798 -40.5787 -40.5777 -40.5714
   -40.5709 -40.5708 -40.5708 -40.5691 -40.5667 -40.5654 -40.5624 -40.5612
   -40.5599 -40.5591 -40.5492 -40.5479 -40.5471 -40.5462 -40.5437 -40.5437
   -40.5409 -40.5244 -40.5242 -40.5241 -40.5239 -40.5238 -40.5237 -40.4887
   -40.4789 -40.4773 -40.4768 -40.4768 -40.4373 -40.4357 -40.4291 -40.4287
   -40.4265 -40.4206 -40.3840 -40.3740 -20.0737 -20.0072 -19.8614 -19.3608
   -19.3284 -19.2008 -19.1924 -19.1916 -19.1899 -19.1804 -19.1799 -19.1452
   -19.1073 -19.0985 -19.0820 -19.0327 -19.0321 -19.0147 -18.9971 -18.9889
   -18.9654 -18.8225 -18.6738 -18.6066 -18.5212 -18.4526 -18.4420 -18.4316
   -18.4045 -18.3990 -18.3845 -18.3433 -18.3107 -18.3069 -18.2835 -18.2706
   -18.2652 -18.2001 -18.1766 -18.1623 -18.1477 -18.1445 -18.1293 -18.0906
   -18.0863 -18.0844 -18.0839 -18.0837 -18.0835 -18.0830 -18.0802 -18.0437
   -18.0436 -18.0436 -18.0363 -18.0069 -18.0042 -18.0016 -17.9973 -17.9950
   -17.9929 -17.9724 -17.9711 -17.9689 -17.9356 -17.9288 -17.9165 -17.9088
   -17.9085 -17.8913 -17.8862 -17.8840 -17.8801 -17.8750 -17.8622 -17.8614
   -17.8606 -17.8562 -17.8358 -17.8265 -17.8212 -17.8116 -17.8053 -17.7976
   -17.7925 -17.7897 -17.7853 -17.7653 -17.7601 -17.7497 -17.7359 -17.7274
   -17.7148 -17.7117 -17.7085 -17.6982 -11.9631 -11.8973 -11.7815 -11.7366
   -11.6977 -11.6959 -11.6912 -11.6153 -11.6123 -11.6059 -11.5798 -11.3641
   -11.3108 -11.1976 -11.1812 -11.1674 -11.1590 -11.1483 -11.1445 -11.1238
   -11.1154 -11.1054 -11.0748 -11.0737 -11.0677 -11.0643 -11.0614 -11.0572
   -11.0005 -10.9824 -10.9664 -10.9544 -10.9335 -10.9268 -10.9199 -10.9107
   -10.9101 -10.9060 -10.8831 -10.8761 -10.8684 -10.8599 -10.8355 -10.8197
   -10.8129 -10.7996 -10.7911 -10.7841 -10.7804 -10.7750 -10.7744 -10.7733
   -10.7725 -10.7688 -10.7638 -10.7465 -10.7453 -10.7439 -10.7375 -10.7289
   -10.7273 -10.7247 -10.7234 -10.7196 -10.6987 -10.6769 -10.6531 -10.6485
   -10.6418 -10.6148 -10.6037 -10.5780 -10.5628 -10.5525 -10.5420 -10.3944
   -10.3124 -10.1076 -10.0723 -10.0313  -9.9895  -9.9886  -9.9833  -9.9338
    -9.8365  -9.8201  -9.8167  -9.7678  -9.7480  -9.7314  -9.7242  -9.7180
    -9.7151  -9.6895  -9.6792  -9.6700  -9.6461  -9.6410  -9.6295  -9.6284
    -9.6065  -9.6032  -9.5821  -9.5775  -9.5719  -9.5625  -9.5605  -9.5551
    -9.5435  -9.5328  -9.5208  -9.5196  -9.5178  -9.5173  -9.5159  -9.5133
    -9.5067  -9.4842  -9.4734  -9.4694  -9.4159  -9.4154  -9.4050  -9.3877
    -9.3831  -9.3760  -9.3469  -9.3156  -9.3146  -9.3040  -9.2888  -9.2837
    -9.2727  -9.2659  -9.2573  -9.2486  -9.2036  -9.1801  -9.1712  -9.1627
    -9.1455  -9.1393  -9.1345  -9.1278  -9.0963  -9.0561  -9.0390  -9.0197
    -9.0137  -8.9859  -8.9666  -8.9654  -8.9624  -8.9623  -8.9620  -8.9561
    -8.9122  -8.9000  -8.8844  -8.8822  -8.8755  -8.8624  -8.8590  -8.8279
    -8.7944  -8.7729  -8.7670  -8.7516  -8.7465  -8.7420  -8.7405  -8.7356
    -8.7325  -8.7036  -8.6991  -8.6976  -8.6918  -8.6827  -8.6750  -8.6737
    -8.6691  -8.6571  -8.6505  -8.5585  -8.4907  -8.4389  -8.3735  -8.3735
    -8.3554  -8.3010  -8.3009  -8.2677  -8.2620  -8.2616  -8.2615  -8.2613
    -8.2613  -8.2606  -8.2480  -8.2306  -8.2221  -8.2100  -8.1935  -8.1872
    -8.1849  -8.1841  -8.1829  -8.1789  -8.1585  -8.1187  -8.0840  -7.9998
    -7.9583  -7.8868  -7.8736  -7.8662  -7.8391  -7.8324  -7.6599  -7.6480
    -7.6023  -7.5987  -7.5502  -7.5266  -7.5263  -7.5261  -7.5260  -7.5258
    -7.5254  -7.5061  -7.4955  -7.4808  -7.4800  -7.4797  -7.4794  -7.4794
    -7.4770  -7.4721  -7.4653  -7.4594  -7.4570  -7.4483  -7.4463  -7.4410
    -7.4336  -7.4319  -7.4305  -7.4225  -7.4083  -7.4065  -7.4043  -7.4021
    -7.3960  -7.3955  -7.3887  -7.3806  -7.3697  -7.3643  -7.3617  -7.3597
    -7.3449  -7.2923  -7.2679  -7.2615  -7.2448  -7.2447  -7.2233  -7.2182
    -7.1755  -7.1741  -7.1693  -7.1573  -7.1086  -7.0649  -7.0176  -6.9865
    -6.9720  -6.9305  -6.8979  -6.8740  -6.8528  -6.8499  -6.7883  -6.7719
    -6.7593  -6.7460  -6.7384  -6.7368  -6.7082  -6.6738  -6.6308  -6.6110
    -6.6087  -6.6035  -6.5943  -6.5795  -6.5678  -6.5623  -6.5555  -6.5364
    -6.5139  -6.4887  -6.4856  -6.4714  -6.4709  -6.4614  -6.4572  -6.4538
    -6.4457  -6.4211  -6.4177  -6.4092  -6.4050  -6.4025  -6.3784  -6.3744
    -6.3630  -6.3606  -6.3452  -6.3334  -6.2928  -6.2927  -6.2926  -6.2926
    -6.2926  -6.2926  -6.2898  -6.2762  -6.2472  -6.2182  -6.2165  -6.2145
    -6.2141  -6.2136  -6.2123  -6.1864  -6.1789  -6.1505  -6.1306  -6.0455
    -5.9365  -5.8850  -5.7755  -5.7244  -5.6487  -5.6138  -5.3928  -5.3688
    -5.3034  -5.2079  -5.0590  -3.9288  -3.8805  -3.7903  -3.7777  -3.7763
    -3.7734  -3.7510  -3.7491  -3.7476  -3.7460  -3.7425  -3.7405  -3.6966
    -3.6828  -3.5914  -3.5557  -3.5479  -3.5352  -3.5269  -3.5210  -3.5150
    -3.5110  -3.5086  -3.5030  -3.4331  -3.4331  -3.4329  -3.4175  -3.4151
    -3.4146  -3.4136  -3.4133  -3.4127  -3.3660  -3.3660  -3.3656  -3.3566
    -3.3512  -3.3406  -3.3293  -3.3264  -3.3218  -3.3175  -3.3111  -3.3084
    -3.3057  -3.3007  -3.2971  -3.2890  -3.2821  -3.2712  -3.2615  -3.2548
    -3.2305  -3.2212  -3.2020  -3.1985  -3.1881  -3.1816  -3.1629  -3.1595
    -3.1384  -3.1079  -2.9678  -2.9676  -2.9675  -2.9619  -2.9618  -2.9406
    -2.9166  -2.8958  -2.8953  -2.8950  -2.8949  -2.8947  -2.8946  -2.8944
    -2.8937  -2.8814  -2.8774  -2.8746  -2.8714  -2.8591  -2.8496  -2.8479
    -2.8358  -2.8345  -2.8307  -2.8276  -2.8228  -2.8213  -2.8172  -2.8105
    -2.8084  -2.8063  -2.7875  -2.7725  -2.7645  -2.7539  -2.7476  -2.7311
    -2.7232  -2.7080  -2.7071  -2.6836  -2.6826  -2.6824  -2.6790  -2.6720
    -2.6699  -2.6450  -2.6361  -2.6331  -2.6146  -2.5970  -2.5905  -2.5668
    -2.5615  -2.5429  -2.5313  -2.4941  -2.4812  -2.4737  -2.4592  -2.4459
    -2.4267  -2.4109  -2.4068  -2.3867  -2.3826

          k = 0.0000-0.5773 0.0000 (321564 PWs)   bands (ev):

   -88.6574 -88.6212 -88.3839 -66.6183 -66.6183 -66.6077 -66.6077 -66.5928
   -66.5928 -66.5928 -66.5928 -66.5884 -66.5884 -66.5822 -66.5822 -66.5821
   -66.5821 -66.5778 -66.5778 -66.5524 -66.5518 -66.5416 -66.5416 -66.5269
   -66.5268 -66.5264 -66.5263 -66.5225 -66.5219 -66.5167 -66.5162 -66.5159
   -66.5154 -66.5116 -66.5116 -66.4825 -66.4704 -66.4676 -66.4594 -66.4540
   -66.4480 -66.4448 -66.4383 -66.4371 -66.4319 -66.4273 -66.4246 -66.4176
   -66.4117 -66.4089 -66.4047 -54.5093 -54.4720 -54.4374 -54.4084 -54.3983
   -54.3808 -54.2340 -54.1898 -54.1422 -40.9194 -40.9194 -40.9194 -40.9194
   -40.8928 -40.8927 -40.8808 -40.8808 -40.8527 -40.8522 -40.8519 -40.8517
   -40.8304 -40.8304 -40.8304 -40.8304 -40.8258 -40.8253 -40.8136 -40.8135
   -40.7903 -40.7726 -40.7726 -40.7669 -40.7633 -40.7632 -40.7632 -40.7631
   -40.7625 -40.7625 -40.7530 -40.7522 -40.7518 -40.7518 -40.7348 -40.7345
   -40.7270 -40.7224 -40.7224 -40.7224 -40.7224 -40.7161 -40.7138 -40.7137
   -40.7072 -40.7066 -40.7015 -40.7015 -40.7015 -40.7015 -40.7015 -40.7015
   -40.6954 -40.6954 -40.6929 -40.6929 -40.6862 -40.6862 -40.6798 -40.6778
   -40.6707 -40.6707 -40.6707 -40.6707 -40.6693 -40.6619 -40.6571 -40.6571
   -40.6566 -40.6565 -40.6484 -40.6479 -40.6475 -40.6413 -40.6367 -40.6362
   -40.6362 -40.6362 -40.6362 -40.6360 -40.6358 -40.6354 -40.6344 -40.6344
   -40.6274 -40.6273 -40.6271 -40.6241 -40.6241 -40.6188 -40.6062 -40.6050
   -40.6049 -40.6040 -40.6040 -40.6036 -40.6032 -40.6010 -40.5983 -40.5965
   -40.5881 -40.5881 -40.5861 -40.5826 -40.5790 -40.5779 -40.5750 -40.5693
   -40.5692 -40.5692 -40.5691 -40.5628 -40.5620 -40.5612 -40.5576 -40.5576
   -40.5574 -40.5569 -40.5485 -40.5458 -40.5449 -40.5403 -40.5383 -40.5377
   -40.5264 -40.5212 -40.5211 -40.5192 -40.5056 -40.4987 -40.4909 -40.4904
   -40.4860 -40.4789 -40.4768 -40.4730 -40.4692 -40.4533 -40.4475 -40.4400
   -40.4305 -40.4243 -40.4039 -40.3791 -19.8952 -19.8213 -19.8001 -19.7140
   -19.6392 -19.5921 -19.4442 -19.3923 -19.3673 -19.3259 -19.2161 -19.2012
   -18.8902 -18.8388 -18.7247 -18.6940 -18.6831 -18.6770 -18.6730 -18.6695
   -18.6422 -18.6091 -18.5970 -18.5583 -18.5549 -18.5407 -18.5349 -18.5067
   -18.4811 -18.4785 -18.4556 -18.4289 -18.4250 -18.4013 -18.3836 -18.3579
   -18.3428 -18.3359 -18.3301 -18.3062 -18.2431 -18.2220 -18.2106 -18.2023
   -18.1871 -18.1578 -18.1565 -18.1215 -18.0875 -18.0852 -18.0644 -18.0642
   -18.0641 -18.0639 -18.0602 -18.0568 -18.0468 -18.0255 -17.9898 -17.9875
   -17.9874 -17.9843 -17.9803 -17.9622 -17.9520 -17.9482 -17.9436 -17.9233
   -17.9087 -17.9071 -17.8899 -17.8839 -17.8773 -17.8660 -17.8624 -17.8497
   -17.8334 -17.8133 -17.8012 -17.8008 -17.8007 -17.7978 -17.7680 -17.7631
   -17.7464 -17.7410 -17.7408 -17.7288 -17.7244 -17.7233 -17.7186 -17.7137
   -17.6817 -17.6807 -17.6244 -17.6166 -11.8696 -11.7002 -11.6186 -11.5469
   -11.5378 -11.4138 -11.4122 -11.4101 -11.4085 -11.4056 -11.3881 -11.3717
   -11.3618 -11.3347 -11.3317 -11.3195 -11.3116 -11.2974 -11.2812 -11.2585
   -11.2510 -11.2470 -11.2397 -11.2301 -11.2135 -11.1937 -11.1937 -11.1794
   -11.1639 -11.1479 -11.1448 -11.0997 -11.0899 -11.0885 -11.0637 -11.0224
   -10.9451 -10.9382 -10.9366 -10.9131 -10.9008 -10.8941 -10.8850 -10.8498
   -10.8488 -10.8398 -10.8251 -10.8153 -10.8098 -10.7987 -10.7810 -10.7738
   -10.7688 -10.7682 -10.7670 -10.7645 -10.7577 -10.7565 -10.7359 -10.7057
   -10.7008 -10.6949 -10.6919 -10.6536 -10.6322 -10.5499 -10.5304 -10.4924
   -10.4356 -10.4262 -10.3733 -10.3143 -10.2784 -10.1947 -10.1804 -10.1541
   -10.0848 -10.0710 -10.0670 -10.0387 -10.0356 -10.0141  -9.9988  -9.9860
    -9.9308  -9.9125  -9.9091  -9.8835  -9.8768  -9.8733  -9.8664  -9.8626
    -9.8524  -9.8340  -9.8282  -9.8206  -9.8188  -9.8101  -9.7510  -9.7372
    -9.7181  -9.6998  -9.6748  -9.6708  -9.6680  -9.6490  -9.6476  -9.6463
    -9.6328  -9.6302  -9.5971  -9.5885  -9.5857  -9.5832  -9.5720  -9.5483
    -9.5226  -9.5192  -9.4759  -9.4676  -9.4668  -9.4533  -9.4092  -9.4073
    -9.3935  -9.3853  -9.2819  -9.2743  -9.2306  -9.2172  -9.2009  -9.1843
    -9.1481  -9.1393  -9.1141  -9.0962  -9.0866  -9.0790  -9.0729  -9.0694
    -9.0507  -9.0389  -9.0249  -9.0182  -9.0030  -8.9972  -8.9727  -8.9657
    -8.9642  -8.9578  -8.9436  -8.9215  -8.9097  -8.9062  -8.9019  -8.8994
    -8.8901  -8.8847  -8.8702  -8.8683  -8.8603  -8.8491  -8.8411  -8.8166
    -8.8097  -8.8039  -8.7970  -8.7935  -8.7916  -8.7763  -8.7759  -8.7698
    -8.7494  -8.7414  -8.7329  -8.7246  -8.7176  -8.7077  -8.6967  -8.6883
    -8.6817  -8.6583  -8.5357  -8.5238  -8.4902  -8.4486  -8.4482  -8.4451
    -8.3708  -8.3658  -8.3603  -8.2857  -8.2256  -8.2118  -8.1467  -8.1299
    -8.1299  -8.0954  -8.0884  -8.0584  -8.0573  -8.0261  -8.0017  -7.9652
    -7.9411  -7.9132  -7.8923  -7.8687  -7.8655  -7.8075  -7.7989  -7.7974
    -7.7948  -7.7833  -7.7833  -7.7825  -7.7806  -7.7758  -7.7748  -7.7528
    -7.7433  -7.7374  -7.7371  -7.7355  -7.7311  -7.7148  -7.7120  -7.7066
    -7.6956  -7.6935  -7.6812  -7.6758  -7.6718  -7.6665  -7.6607  -7.6590
    -7.6500  -7.6373  -7.6283  -7.6258  -7.6018  -7.5990  -7.5986  -7.5981
    -7.5978  -7.5744  -7.5530  -7.5332  -7.5318  -7.5246  -7.5222  -7.5082
    -7.4975  -7.4789  -7.4749  -7.4434  -7.4351  -7.4121  -7.3947  -7.3531
    -7.3393  -7.2624  -7.2117  -7.1966  -7.1697  -7.1675  -7.1589  -7.1518
    -7.0947  -7.0763  -7.0213  -7.0084  -7.0011  -6.9632  -6.9528  -6.9488
    -6.9458  -6.9318  -6.8980  -6.8866  -6.8809  -6.8398  -6.8265  -6.8213
    -6.8156  -6.8078  -6.7786  -6.7659  -6.7598  -6.7196  -6.6986  -6.6902
    -6.6758  -6.6474  -6.6310  -6.6036  -6.5950  -6.5949  -6.5948  -6.5945
    -6.5876  -6.5673  -6.5441  -6.5317  -6.5276  -6.5251  -6.5233  -6.5228
    -6.5020  -6.4996  -6.4691  -6.4032  -6.3943  -6.3876  -6.3212  -6.2642
    -6.2633  -6.2631  -6.2627  -6.2497  -6.2245  -6.2103  -6.2086  -6.1953
    -6.1838  -6.1806  -6.1781  -6.1775  -6.1735  -6.1627  -6.1285  -6.1147
    -6.0909  -6.0356  -5.9148  -5.9148  -5.8591  -5.8386  -5.8372  -5.8219
    -5.7432  -5.6994  -5.6681  -5.6316  -5.5775  -5.5488  -5.4741  -5.3925
    -5.3588  -5.2605  -5.1585  -4.0062  -3.9792  -3.9555  -3.9484  -3.8686
    -3.8400  -3.8302  -3.8300  -3.7861  -3.7834  -3.7650  -3.7645  -3.7177
    -3.6986  -3.6960  -3.6939  -3.6368  -3.6277  -3.5858  -3.5383  -3.5359
    -3.5305  -3.5298  -3.5250  -3.5161  -3.5156  -3.4873  -3.4805  -3.4724
    -3.4423  -3.4347  -3.4314  -3.4267  -3.4199  -3.4144  -3.4081  -3.3978
    -3.3959  -3.3874  -3.3580  -3.3267  -3.3151  -3.3063  -3.2874  -3.2830
    -3.2825  -3.2806  -3.2535  -3.2510  -3.2469  -3.2455  -3.2272  -3.2131
    -3.2073  -3.2060  -3.2059  -3.2006  -3.1949  -3.1843  -3.1673  -3.1579
    -3.1484  -3.1434  -3.1388  -3.1341  -3.1299  -3.1195  -3.1062  -3.0959
    -3.0731  -3.0637  -3.0585  -3.0376  -3.0235  -3.0041  -3.0009  -2.9766
    -2.9653  -2.9622  -2.9587  -2.9458  -2.9438  -2.9431  -2.9427  -2.9139
    -2.8987  -2.8944  -2.8921  -2.8880  -2.8768  -2.8622  -2.8606  -2.8465
    -2.8456  -2.8429  -2.8317  -2.8271  -2.8184  -2.8139  -2.8063  -2.7997
    -2.7959  -2.7696  -2.7435  -2.7336  -2.7313  -2.7284  -2.7100  -2.6728
    -2.6713  -2.6426  -2.6409  -2.5830  -2.5813  -2.5781  -2.5760  -2.5702
    -2.5662  -2.5007  -2.4952  -2.4513  -2.4411  -2.4337  -2.4273  -2.4206
    -2.3980  -2.3841  -2.3002  -2.2817  -2.2319

          k =-0.5000-0.2887 0.0000 (321564 PWs)   bands (ev):

   -88.6574 -88.6212 -88.3839 -66.6183 -66.6183 -66.6077 -66.6077 -66.5928
   -66.5928 -66.5928 -66.5928 -66.5884 -66.5884 -66.5822 -66.5822 -66.5822
   -66.5822 -66.5778 -66.5778 -66.5523 -66.5520 -66.5416 -66.5415 -66.5268
   -66.5267 -66.5266 -66.5265 -66.5224 -66.5221 -66.5163 -66.5162 -66.5158
   -66.5158 -66.5117 -66.5116 -66.4799 -66.4777 -66.4599 -66.4572 -66.4562
   -66.4517 -66.4463 -66.4380 -66.4341 -66.4324 -66.4280 -66.4250 -66.4162
   -66.4123 -66.4095 -66.4044 -54.5093 -54.4720 -54.4374 -54.4084 -54.3983
   -54.3808 -54.2340 -54.1898 -54.1422 -40.9194 -40.9194 -40.9194 -40.9194
   -40.8928 -40.8927 -40.8808 -40.8808 -40.8523 -40.8523 -40.8520 -40.8519
   -40.8304 -40.8304 -40.8304 -40.8304 -40.8256 -40.8254 -40.8136 -40.8135
   -40.7726 -40.7726 -40.7708 -40.7686 -40.7680 -40.7633 -40.7633 -40.7632
   -40.7632 -40.7625 -40.7625 -40.7604 -40.7518 -40.7518 -40.7477 -40.7427
   -40.7224 -40.7224 -40.7224 -40.7224 -40.7190 -40.7138 -40.7137 -40.7070
   -40.7068 -40.7015 -40.7015 -40.7015 -40.7015 -40.7015 -40.7015 -40.7014
   -40.6955 -40.6954 -40.6929 -40.6929 -40.6862 -40.6862 -40.6754 -40.6707
   -40.6707 -40.6707 -40.6707 -40.6704 -40.6643 -40.6631 -40.6569 -40.6569
   -40.6568 -40.6567 -40.6483 -40.6480 -40.6480 -40.6390 -40.6362 -40.6362
   -40.6362 -40.6362 -40.6362 -40.6361 -40.6358 -40.6358 -40.6345 -40.6344
   -40.6290 -40.6274 -40.6273 -40.6241 -40.6241 -40.6215 -40.6070 -40.6049
   -40.6049 -40.6039 -40.6038 -40.6036 -40.6035 -40.6018 -40.5997 -40.5914
   -40.5898 -40.5888 -40.5881 -40.5881 -40.5844 -40.5761 -40.5698 -40.5693
   -40.5693 -40.5692 -40.5691 -40.5633 -40.5629 -40.5585 -40.5576 -40.5576
   -40.5573 -40.5570 -40.5508 -40.5484 -40.5456 -40.5428 -40.5382 -40.5378
   -40.5212 -40.5210 -40.5204 -40.5165 -40.5148 -40.5093 -40.4908 -40.4905
   -40.4821 -40.4771 -40.4743 -40.4710 -40.4660 -40.4569 -40.4505 -40.4393
   -40.4220 -40.4166 -40.4005 -40.3908 -19.8694 -19.8280 -19.7959 -19.7523
   -19.6393 -19.6214 -19.4038 -19.3900 -19.3510 -19.3152 -19.2103 -19.1953
   -18.9557 -18.8149 -18.7270 -18.6927 -18.6822 -18.6778 -18.6733 -18.6689
   -18.6478 -18.6269 -18.5850 -18.5593 -18.5481 -18.5410 -18.5333 -18.5285
   -18.4892 -18.4857 -18.4397 -18.4294 -18.4226 -18.3954 -18.3859 -18.3656
   -18.3421 -18.3367 -18.3159 -18.2933 -18.2356 -18.2326 -18.2092 -18.1819
   -18.1752 -18.1642 -18.1291 -18.1134 -18.0979 -18.0904 -18.0806 -18.0643
   -18.0641 -18.0640 -18.0640 -18.0448 -18.0321 -18.0167 -17.9989 -17.9914
   -17.9874 -17.9844 -17.9769 -17.9758 -17.9740 -17.9451 -17.9319 -17.9267
   -17.9175 -17.9127 -17.8873 -17.8841 -17.8785 -17.8739 -17.8702 -17.8625
   -17.8225 -17.8179 -17.8147 -17.8042 -17.8008 -17.8007 -17.7603 -17.7571
   -17.7448 -17.7408 -17.7407 -17.7288 -17.7246 -17.7243 -17.7136 -17.7001
   -17.6810 -17.6802 -17.6233 -17.6166 -11.7589 -11.6834 -11.6464 -11.5716
   -11.5523 -11.5350 -11.4227 -11.4151 -11.4090 -11.4079 -11.4011 -11.3874
   -11.3795 -11.3602 -11.3405 -11.3153 -11.3087 -11.3067 -11.3003 -11.2760
   -11.2464 -11.2448 -11.2268 -11.2223 -11.1976 -11.1937 -11.1936 -11.1599
   -11.1479 -11.1473 -11.0973 -11.0967 -11.0941 -11.0900 -11.0418 -10.9935
   -10.9705 -10.9463 -10.9385 -10.9220 -10.9055 -10.8717 -10.8617 -10.8522
   -10.8460 -10.8412 -10.8331 -10.8191 -10.8050 -10.7916 -10.7796 -10.7750
   -10.7687 -10.7668 -10.7659 -10.7644 -10.7555 -10.7512 -10.7342 -10.7272
   -10.6995 -10.6976 -10.6933 -10.6894 -10.5536 -10.5516 -10.5210 -10.4373
   -10.4273 -10.4118 -10.3637 -10.3273 -10.2638 -10.2574 -10.2010 -10.1684
   -10.0837 -10.0755 -10.0534 -10.0488 -10.0431 -10.0235  -9.9754  -9.9612
    -9.9484  -9.9225  -9.8954  -9.8872  -9.8773  -9.8719  -9.8621  -9.8595
    -9.8559  -9.8335  -9.8311  -9.8170  -9.8118  -9.7583  -9.7193  -9.7089
    -9.7018  -9.6947  -9.6907  -9.6712  -9.6602  -9.6524  -9.6485  -9.6365
    -9.6307  -9.6074  -9.6031  -9.5999  -9.5808  -9.5685  -9.5531  -9.5485
    -9.5360  -9.4876  -9.4810  -9.4742  -9.4671  -9.4624  -9.4536  -9.4095
    -9.4065  -9.4009  -9.3421  -9.3141  -9.3039  -9.2759  -9.2307  -9.1694
    -9.1541  -9.1464  -9.1195  -9.1128  -9.1035  -9.0889  -9.0830  -9.0674
    -9.0489  -9.0370  -9.0313  -9.0025  -8.9868  -8.9790  -8.9683  -8.9618
    -8.9564  -8.9466  -8.9386  -8.9293  -8.9128  -8.9042  -8.8971  -8.8913
    -8.8776  -8.8740  -8.8697  -8.8680  -8.8512  -8.8401  -8.8211  -8.8042
    -8.7943  -8.7942  -8.7901  -8.7868  -8.7815  -8.7765  -8.7750  -8.7707
    -8.7619  -8.7568  -8.7514  -8.7454  -8.7070  -8.7041  -8.7000  -8.6861
    -8.6730  -8.6501  -8.5681  -8.5216  -8.4671  -8.4486  -8.4483  -8.4091
    -8.3855  -8.3665  -8.3439  -8.3299  -8.2678  -8.2120  -8.1517  -8.1299
    -8.1299  -8.0954  -8.0809  -8.0583  -8.0578  -8.0502  -8.0125  -7.9638
    -7.9335  -7.8805  -7.8705  -7.8634  -7.8238  -7.8098  -7.8040  -7.7950
    -7.7925  -7.7868  -7.7833  -7.7832  -7.7825  -7.7723  -7.7680  -7.7412
    -7.7399  -7.7373  -7.7356  -7.7309  -7.7186  -7.7132  -7.7098  -7.7030
    -7.6916  -7.6872  -7.6815  -7.6780  -7.6766  -7.6612  -7.6584  -7.6528
    -7.6490  -7.6343  -7.6227  -7.6209  -7.6056  -7.5981  -7.5981  -7.5949
    -7.5788  -7.5743  -7.5671  -7.5467  -7.5400  -7.5323  -7.5212  -7.5188
    -7.5046  -7.4776  -7.4642  -7.4541  -7.4434  -7.4063  -7.4006  -7.3479
    -7.2572  -7.2249  -7.2152  -7.1711  -7.1693  -7.1597  -7.1485  -7.1332
    -7.1021  -7.0697  -7.0601  -7.0177  -6.9959  -6.9833  -6.9717  -6.9561
    -6.9489  -6.9449  -6.9327  -6.9156  -6.9030  -6.8807  -6.8518  -6.8422
    -6.8386  -6.8366  -6.8197  -6.7797  -6.7660  -6.7294  -6.6950  -6.6710
    -6.6600  -6.6243  -6.6175  -6.6096  -6.5957  -6.5950  -6.5949  -6.5948
    -6.5922  -6.5628  -6.5394  -6.5319  -6.5268  -6.5251  -6.5235  -6.5194
    -6.5006  -6.4765  -6.4419  -6.4235  -6.3927  -6.3901  -6.3428  -6.3153
    -6.2636  -6.2632  -6.2629  -6.2626  -6.2141  -6.2020  -6.1964  -6.1849
    -6.1827  -6.1799  -6.1765  -6.1732  -6.1643  -6.1444  -6.1306  -6.1045
    -6.0154  -5.9265  -5.9148  -5.9147  -5.8506  -5.8387  -5.8292  -5.8215
    -5.7775  -5.7223  -5.6705  -5.5800  -5.5757  -5.5118  -5.4709  -5.4597
    -5.4114  -5.2712  -5.1851  -4.0154  -3.9703  -3.9574  -3.9542  -3.8985
    -3.8367  -3.8303  -3.8301  -3.7815  -3.7685  -3.7655  -3.7651  -3.7297
    -3.7166  -3.7052  -3.6897  -3.6602  -3.6395  -3.5448  -3.5422  -3.5353
    -3.5330  -3.5281  -3.5199  -3.5159  -3.5156  -3.5014  -3.4866  -3.4584
    -3.4486  -3.4370  -3.4347  -3.4164  -3.4137  -3.4085  -3.4074  -3.3974
    -3.3964  -3.3518  -3.3305  -3.3196  -3.3137  -3.2988  -3.2936  -3.2840
    -3.2831  -3.2716  -3.2582  -3.2502  -3.2438  -3.2373  -3.2352  -3.2243
    -3.2080  -3.2065  -3.2054  -3.2053  -3.1991  -3.1778  -3.1686  -3.1665
    -3.1595  -3.1403  -3.1384  -3.1342  -3.1238  -3.1200  -3.1115  -3.0853
    -3.0757  -3.0616  -3.0451  -3.0431  -3.0193  -3.0028  -3.0018  -2.9733
    -2.9726  -2.9632  -2.9621  -2.9438  -2.9436  -2.9433  -2.9431  -2.9066
    -2.8998  -2.8943  -2.8935  -2.8780  -2.8676  -2.8593  -2.8561  -2.8536
    -2.8502  -2.8329  -2.8305  -2.8251  -2.8160  -2.8139  -2.8064  -2.7817
    -2.7738  -2.7666  -2.7655  -2.7517  -2.7365  -2.7340  -2.7286  -2.6715
    -2.6695  -2.6414  -2.6378  -2.5916  -2.5876  -2.5817  -2.5801  -2.5759
    -2.5679  -2.5027  -2.4965  -2.4547  -2.4488  -2.4413  -2.4288  -2.4233
    -2.4085  -2.3156  -2.3009  -2.2813  -2.2217

          k =-0.5000-0.8660 0.0000 (321564 PWs)   bands (ev):

   -88.6574 -88.6212 -88.3839 -66.6183 -66.6183 -66.6077 -66.6077 -66.5928
   -66.5928 -66.5928 -66.5928 -66.5884 -66.5884 -66.5822 -66.5822 -66.5822
   -66.5821 -66.5778 -66.5778 -66.5522 -66.5521 -66.5417 -66.5415 -66.5268
   -66.5267 -66.5266 -66.5265 -66.5223 -66.5222 -66.5162 -66.5160 -66.5159
   -66.5159 -66.5117 -66.5115 -66.4801 -66.4775 -66.4599 -66.4575 -66.4565
   -66.4513 -66.4454 -66.4389 -66.4350 -66.4320 -66.4276 -66.4245 -66.4166
   -66.4121 -66.4097 -66.4043 -54.5093 -54.4720 -54.4374 -54.4084 -54.3983
   -54.3808 -54.2340 -54.1898 -54.1422 -40.9194 -40.9194 -40.9194 -40.9194
   -40.8928 -40.8927 -40.8808 -40.8808 -40.8523 -40.8521 -40.8521 -40.8520
   -40.8304 -40.8304 -40.8304 -40.8304 -40.8256 -40.8254 -40.8136 -40.8135
   -40.7733 -40.7726 -40.7725 -40.7715 -40.7633 -40.7633 -40.7632 -40.7631
   -40.7625 -40.7625 -40.7623 -40.7603 -40.7518 -40.7518 -40.7470 -40.7437
   -40.7224 -40.7224 -40.7224 -40.7224 -40.7163 -40.7138 -40.7137 -40.7070
   -40.7068 -40.7039 -40.7016 -40.7015 -40.7015 -40.7015 -40.7015 -40.7015
   -40.6955 -40.6954 -40.6929 -40.6929 -40.6862 -40.6862 -40.6747 -40.6707
   -40.6707 -40.6707 -40.6707 -40.6691 -40.6661 -40.6644 -40.6570 -40.6569
   -40.6568 -40.6567 -40.6483 -40.6481 -40.6471 -40.6415 -40.6362 -40.6362
   -40.6362 -40.6362 -40.6362 -40.6359 -40.6359 -40.6359 -40.6345 -40.6344
   -40.6274 -40.6273 -40.6268 -40.6241 -40.6241 -40.6217 -40.6067 -40.6050
   -40.6049 -40.6039 -40.6038 -40.6036 -40.6035 -40.6022 -40.5999 -40.5919
   -40.5902 -40.5881 -40.5881 -40.5871 -40.5847 -40.5767 -40.5693 -40.5693
   -40.5692 -40.5691 -40.5683 -40.5647 -40.5628 -40.5576 -40.5576 -40.5572
   -40.5571 -40.5571 -40.5525 -40.5488 -40.5445 -40.5429 -40.5381 -40.5378
   -40.5212 -40.5210 -40.5187 -40.5168 -40.5150 -40.5097 -40.4908 -40.4906
   -40.4817 -40.4780 -40.4757 -40.4695 -40.4657 -40.4563 -40.4497 -40.4419
   -40.4235 -40.4146 -40.3992 -40.3919 -19.8709 -19.8271 -19.7962 -19.7505
   -19.6393 -19.6206 -19.4008 -19.3921 -19.3459 -19.3273 -19.2085 -19.2020
   -18.9119 -18.8506 -18.7261 -18.6911 -18.6815 -18.6793 -18.6734 -18.6679
   -18.6513 -18.6334 -18.5830 -18.5601 -18.5470 -18.5401 -18.5312 -18.5289
   -18.4880 -18.4875 -18.4372 -18.4294 -18.4204 -18.3943 -18.3816 -18.3672
   -18.3474 -18.3338 -18.3145 -18.2962 -18.2439 -18.2295 -18.2056 -18.1818
   -18.1760 -18.1667 -18.1289 -18.1109 -18.0944 -18.0894 -18.0841 -18.0643
   -18.0641 -18.0641 -18.0639 -18.0446 -18.0271 -18.0163 -17.9983 -17.9916
   -17.9876 -17.9837 -17.9798 -17.9752 -17.9728 -17.9462 -17.9327 -17.9243
   -17.9220 -17.9132 -17.8877 -17.8834 -17.8774 -17.8742 -17.8729 -17.8604
   -17.8209 -17.8183 -17.8129 -17.8062 -17.8008 -17.8007 -17.7615 -17.7570
   -17.7428 -17.7410 -17.7408 -17.7327 -17.7244 -17.7244 -17.7122 -17.7004
   -17.6810 -17.6800 -17.6221 -17.6170 -11.7591 -11.6870 -11.6394 -11.5742
   -11.5446 -11.5271 -11.4228 -11.4186 -11.4103 -11.4085 -11.3960 -11.3931
   -11.3771 -11.3705 -11.3549 -11.3153 -11.3071 -11.3047 -11.2999 -11.2796
   -11.2513 -11.2438 -11.2271 -11.2214 -11.1964 -11.1937 -11.1936 -11.1512
   -11.1478 -11.1457 -11.0963 -11.0949 -11.0947 -11.0913 -11.0388 -10.9978
   -10.9650 -10.9522 -10.9388 -10.9247 -10.8986 -10.8893 -10.8569 -10.8506
   -10.8468 -10.8400 -10.8321 -10.8126 -10.8049 -10.7877 -10.7754 -10.7743
   -10.7679 -10.7668 -10.7663 -10.7629 -10.7536 -10.7507 -10.7409 -10.7282
   -10.6999 -10.6960 -10.6954 -10.6898 -10.5629 -10.5412 -10.5112 -10.4485
   -10.4282 -10.4100 -10.3524 -10.3182 -10.2732 -10.2432 -10.2373 -10.1723
   -10.0838 -10.0760 -10.0573 -10.0517 -10.0464 -10.0171  -9.9789  -9.9608
    -9.9472  -9.9162  -9.8922  -9.8827  -9.8778  -9.8682  -9.8610  -9.8581
    -9.8530  -9.8327  -9.8309  -9.8173  -9.8067  -9.7580  -9.7250  -9.7069
    -9.6997  -9.6961  -9.6886  -9.6731  -9.6578  -9.6519  -9.6491  -9.6388
    -9.6300  -9.6107  -9.6029  -9.5966  -9.5803  -9.5714  -9.5529  -9.5469
    -9.5250  -9.4838  -9.4810  -9.4746  -9.4671  -9.4642  -9.4534  -9.4107
    -9.4065  -9.3990  -9.3555  -9.3282  -9.3053  -9.2770  -9.2379  -9.1575
    -9.1518  -9.1498  -9.1164  -9.1113  -9.1066  -9.0906  -9.0796  -9.0692
    -9.0508  -9.0344  -9.0274  -9.0044  -8.9842  -8.9813  -8.9687  -8.9627
    -8.9514  -8.9470  -8.9366  -8.9276  -8.9188  -8.9063  -8.8922  -8.8900
    -8.8792  -8.8741  -8.8704  -8.8687  -8.8455  -8.8381  -8.8242  -8.8054
    -8.7946  -8.7943  -8.7924  -8.7865  -8.7828  -8.7763  -8.7759  -8.7704
    -8.7643  -8.7554  -8.7478  -8.7466  -8.7086  -8.7042  -8.6996  -8.6869
    -8.6720  -8.6451  -8.5716  -8.5125  -8.4696  -8.4487  -8.4482  -8.4113
    -8.3824  -8.3666  -8.3462  -8.3388  -8.2422  -8.2153  -8.1711  -8.1299
    -8.1299  -8.1111  -8.0785  -8.0580  -8.0575  -8.0521  -8.0086  -7.9683
    -7.9042  -7.8811  -7.8709  -7.8630  -7.8345  -7.8116  -7.8040  -7.7946
    -7.7928  -7.7857  -7.7846  -7.7832  -7.7832  -7.7740  -7.7708  -7.7420
    -7.7404  -7.7376  -7.7365  -7.7232  -7.7201  -7.7151  -7.7123  -7.7095
    -7.6935  -7.6851  -7.6817  -7.6791  -7.6746  -7.6616  -7.6573  -7.6521
    -7.6474  -7.6375  -7.6250  -7.6188  -7.6002  -7.5981  -7.5980  -7.5895
    -7.5815  -7.5734  -7.5667  -7.5451  -7.5431  -7.5307  -7.5250  -7.5206
    -7.5013  -7.4825  -7.4656  -7.4585  -7.4464  -7.3996  -7.3946  -7.3434
    -7.2524  -7.2290  -7.1998  -7.1816  -7.1701  -7.1650  -7.1577  -7.1171
    -7.0890  -7.0749  -7.0592  -7.0206  -7.0044  -6.9866  -6.9807  -6.9541
    -6.9473  -6.9460  -6.9436  -6.9206  -6.9079  -6.8771  -6.8543  -6.8405
    -6.8373  -6.8178  -6.8087  -6.7745  -6.7630  -6.7241  -6.7037  -6.6690
    -6.6621  -6.6330  -6.6124  -6.6074  -6.5950  -6.5949  -6.5949  -6.5948
    -6.5880  -6.5744  -6.5357  -6.5328  -6.5267  -6.5255  -6.5206  -6.5183
    -6.5149  -6.4778  -6.4437  -6.4275  -6.4003  -6.3892  -6.3472  -6.2949
    -6.2637  -6.2631  -6.2628  -6.2624  -6.2186  -6.2007  -6.1941  -6.1870
    -6.1815  -6.1790  -6.1767  -6.1760  -6.1530  -6.1446  -6.1219  -6.1082
    -5.9989  -5.9277  -5.9148  -5.9147  -5.8485  -5.8435  -5.8285  -5.8241
    -5.8085  -5.7321  -5.6575  -5.5785  -5.5707  -5.4861  -5.4772  -5.4608
    -5.4353  -5.2683  -5.1829  -4.0070  -3.9766  -3.9557  -3.9543  -3.8972
    -3.8354  -3.8301  -3.8300  -3.7789  -3.7742  -3.7655  -3.7652  -3.7301
    -3.7129  -3.7072  -3.6916  -3.6615  -3.6344  -3.5437  -3.5398  -3.5368
    -3.5320  -3.5290  -3.5202  -3.5159  -3.5158  -3.5038  -3.4861  -3.4566
    -3.4452  -3.4377  -3.4344  -3.4202  -3.4135  -3.4083  -3.4045  -3.4009
    -3.3967  -3.3546  -3.3298  -3.3248  -3.3115  -3.2984  -3.2924  -3.2847
    -3.2832  -3.2770  -3.2576  -3.2499  -3.2461  -3.2441  -3.2289  -3.2217
    -3.2079  -3.2067  -3.2057  -3.2056  -3.1972  -3.1722  -3.1694  -3.1656
    -3.1589  -3.1428  -3.1370  -3.1316  -3.1250  -3.1170  -3.1089  -3.0891
    -3.0806  -3.0600  -3.0485  -3.0302  -3.0266  -3.0032  -3.0010  -2.9746
    -2.9741  -2.9637  -2.9616  -2.9438  -2.9436  -2.9434  -2.9430  -2.9081
    -2.8997  -2.8943  -2.8938  -2.8778  -2.8669  -2.8609  -2.8571  -2.8557
    -2.8490  -2.8345  -2.8294  -2.8272  -2.8188  -2.8131  -2.8067  -2.7828
    -2.7806  -2.7653  -2.7585  -2.7505  -2.7382  -2.7353  -2.7287  -2.6777
    -2.6656  -2.6424  -2.6350  -2.5957  -2.5882  -2.5808  -2.5794  -2.5786
    -2.5641  -2.5023  -2.4959  -2.4567  -2.4497  -2.4365  -2.4261  -2.4232
    -2.4032  -2.3233  -2.2987  -2.2408  -2.2154

     the Fermi energy is    -4.5453 ev

!    total energy              =  -25381.07666406 Ry
     total all-electron energy =   -495641.006841 Ry
     estimated scf accuracy    <       0.00000043 Ry
     smearing contrib. (-TS)   =      -0.00000000 Ry
     internal energy E=F+TS    =  -25381.07666406 Ry

     The total energy is F=E-TS. E is the sum of the following terms:
     one-electron contribution =  497337.02440391 Ry
     hartree contribution      = -248774.52575041 Ry
     xc contribution           =   -1521.08968294 Ry
     ewald contribution        = -256310.20671346 Ry
     DFT-D3 Dispersion         =      -4.05651808 Ry
     one-center paw contrib.   =  -16108.22240308 Ry

     convergence has been achieved in  20 iterations

     negative rho (up, down):  1.005E-03 0.000E+00

     Forces acting on atoms (cartesian axes, Ry/au):

     atom    1 type  1   force =     0.00046894    0.00038529    0.00065284
     atom    2 type  1   force =    -0.00000158    0.00000015    0.00190422
     atom    3 type  1   force =     0.00001427    0.00002034   -0.00002657
     atom    4 type  2   force =     0.00000055   -0.00000167   -0.00325139
     atom    5 type  2   force =    -0.00000106   -0.00000810    0.00001267
     atom    6 type  2   force =     0.00002130    0.00038503   -0.00009135
     atom    7 type  2   force =    -0.00000148    0.00000274    0.00147493
     atom    8 type  2   force =    -0.00003172   -0.00003750   -0.00003200
     atom    9 type  2   force =    -0.00005238   -0.00017559    0.00000461
     atom   10 type  1   force =    -0.00016012   -0.00025808   -0.00090759
     atom   11 type  1   force =     0.00000003    0.00000393    0.00189778
     atom   12 type  1   force =     0.00003447    0.00001835   -0.00001161
     atom   13 type  2   force =     0.00000021    0.00000207   -0.00325717
     atom   14 type  2   force =    -0.00000509   -0.00001355    0.00000530
     atom   15 type  2   force =     0.00029060    0.00050897    0.00023614
     atom   16 type  2   force =    -0.00000082    0.00000938    0.00148949
     atom   17 type  2   force =    -0.00000744    0.00001016   -0.00001133
     atom   18 type  2   force =    -0.00028067   -0.00016093    0.00073985
     atom   19 type  1   force =     0.00026640    0.00028172    0.00054056
     atom   20 type  1   force =    -0.00000427   -0.00000523    0.00190231
     atom   21 type  1   force =     0.00004305   -0.00000463    0.00000159
     atom   22 type  2   force =    -0.00000219   -0.00000127   -0.00325255
     atom   23 type  2   force =    -0.00000548   -0.00000862   -0.00001905
     atom   24 type  2   force =     0.00076667    0.00028732   -0.00067516
     atom   25 type  2   force =     0.00000410   -0.00000771    0.00147548
     atom   26 type  2   force =     0.00001155   -0.00000646   -0.00003431
     atom   27 type  2   force =    -0.00083274   -0.00057323   -0.00076342
     atom   28 type  1   force =    -0.00025697    0.00017912    0.00032778
     atom   29 type  1   force =    -0.00000081   -0.00000363    0.00190663
     atom   30 type  1   force =     0.00002187    0.00001134   -0.00000397
     atom   31 type  2   force =    -0.00000083   -0.00000393   -0.00325175
     atom   32 type  2   force =     0.00000499   -0.00000226   -0.00000864
     atom   33 type  2   force =    -0.00010136   -0.00026502    0.00008956
     atom   34 type  2   force =    -0.00000568   -0.00001043    0.00147507
     atom   35 type  2   force =     0.00000825   -0.00000879   -0.00003246
     atom   36 type  2   force =    -0.00030165   -0.00008871    0.00063959
     atom   37 type  1   force =    -0.00229065   -0.00258353   -0.00010453
     atom   38 type  1   force =     0.00000351    0.00000636    0.00190719
     atom   39 type  1   force =    -0.00000274   -0.00002916    0.00002698
     atom   40 type  2   force =     0.00000169   -0.00000142   -0.00325317
     atom   41 type  2   force =     0.00003251    0.00002681    0.00004855
     atom   42 type  2   force =     0.00028630   -0.00016766   -0.00035675
     atom   43 type  2   force =    -0.00000190    0.00000276    0.00147299
     atom   44 type  2   force =    -0.00003043   -0.00003036    0.00007009
     atom   45 type  2   force =     0.00038137    0.00024003    0.00040443
     atom   46 type  1   force =    -0.00214963   -0.00004035   -0.00207189
     atom   47 type  1   force =     0.00000396    0.00000290    0.00189820
     atom   48 type  1   force =    -0.00001023   -0.00000114   -0.00000392
     atom   49 type  2   force =    -0.00000040    0.00000297   -0.00325243
     atom   50 type  2   force =     0.00002686   -0.00002915    0.00003685
     atom   51 type  2   force =    -0.00008213    0.00078703    0.00072992
     atom   52 type  2   force =    -0.00000334    0.00001363    0.00148079
     atom   53 type  2   force =     0.00002326   -0.00000512   -0.00000571
     atom   54 type  2   force =    -0.00057262    0.00031533   -0.00036113
     atom   55 type  1   force =    -0.00018024    0.00020406    0.00008482
     atom   56 type  1   force =     0.00000084   -0.00000534    0.00189540
     atom   57 type  1   force =     0.00000449   -0.00006058   -0.00004492
     atom   58 type  2   force =     0.00000011   -0.00000094   -0.00325695
     atom   59 type  2   force =     0.00000094   -0.00003109   -0.00001088
     atom   60 type  2   force =    -0.00009274   -0.00043484    0.00000059
     atom   61 type  2   force =     0.00000071   -0.00000676    0.00148152
     atom   62 type  2   force =    -0.00002668   -0.00000708   -0.00005626
     atom   63 type  2   force =     0.00039864   -0.00024041   -0.00033269
     atom   64 type  1   force =    -0.00016595   -0.00025147    0.00011149
     atom   65 type  1   force =    -0.00000304    0.00000432    0.00189976
     atom   66 type  1   force =    -0.00004218    0.00004634   -0.00001262
     atom   67 type  2   force =    -0.00000060   -0.00000128   -0.00325199
     atom   68 type  2   force =    -0.00001604    0.00001613   -0.00000350
     atom   69 type  2   force =    -0.00018718    0.00005557   -0.00018728
     atom   70 type  2   force =     0.00000639   -0.00000877    0.00147943
     atom   71 type  2   force =     0.00001653    0.00002198   -0.00002380
     atom   72 type  2   force =    -0.00024683    0.00010402   -0.00027929
     atom   73 type  1   force =     0.00155815   -0.00244836   -0.00133125
     atom   74 type  1   force =    -0.00000466    0.00000593    0.00190293
     atom   75 type  1   force =    -0.00002268   -0.00000341    0.00012181
     atom   76 type  2   force =     0.00000053   -0.00000054   -0.00325074
     atom   77 type  2   force =    -0.00005253    0.00004660    0.00000810
     atom   78 type  2   force =     0.00046915   -0.00084446   -0.00130436
     atom   79 type  2   force =     0.00000080    0.00000060    0.00148280
     atom   80 type  2   force =     0.00004052   -0.00003220   -0.00001415
     atom   81 type  2   force =    -0.00019092    0.00042466   -0.00159564
     atom   82 type  1   force =    -0.00006998   -0.00070344   -0.02423961
     atom   83 type  1   force =     0.00000346    0.00000020    0.00190209
     atom   84 type  1   force =     0.00002002    0.00000293   -0.00000992
     atom   85 type  2   force =     0.00000127    0.00000293   -0.00325222
     atom   86 type  2   force =    -0.00000261   -0.00004459    0.00004743
     atom   87 type  2   force =     0.00108899    0.00015270    0.00261041
     atom   88 type  2   force =     0.00000161    0.00001143    0.00148733
     atom   89 type  2   force =     0.00000537    0.00002017    0.00002214
     atom   90 type  2   force =    -0.03056333   -0.01667018    0.00019401
     atom   91 type  1   force =    -0.00173376    0.00356898   -0.00186396
     atom   92 type  1   force =     0.00000451   -0.00000648    0.00189732
     atom   93 type  1   force =    -0.00004103   -0.00002055   -0.00001777
     atom   94 type  2   force =     0.00000236   -0.00000092   -0.00325712
     atom   95 type  2   force =     0.00000412   -0.00001319   -0.00000359
     atom   96 type  2   force =    -0.00091969    0.00090736   -0.00060759
     atom   97 type  2   force =    -0.00000158   -0.00000250    0.00147921
     atom   98 type  2   force =    -0.00001520    0.00002426   -0.00000680
     atom   99 type  2   force =    -0.00059307   -0.00193760   -0.00339932
     atom  100 type  1   force =     0.00006911    0.00026076    0.00053080
     atom  101 type  1   force =     0.00000395   -0.00000148    0.00189849
     atom  102 type  1   force =     0.00003815    0.00001193   -0.00006537
     atom  103 type  2   force =    -0.00000081   -0.00000539   -0.00325842
     atom  104 type  2   force =     0.00000807   -0.00002482   -0.00003504
     atom  105 type  2   force =     0.00018646    0.00038627   -0.00014912
     atom  106 type  2   force =     0.00000319   -0.00000834    0.00147690
     atom  107 type  2   force =    -0.00001035   -0.00000211   -0.00006157
     atom  108 type  2   force =     0.00020696    0.00021720   -0.00013505
     atom  109 type  1   force =    -0.00021451    0.00020800    0.00012341
     atom  110 type  1   force =     0.00000118    0.00000391    0.00190356
     atom  111 type  1   force =     0.00000202   -0.00003981   -0.00002074
     atom  112 type  2   force =    -0.00000198   -0.00000018   -0.00325818
     atom  113 type  2   force =     0.00000561   -0.00000651   -0.00001079
     atom  114 type  2   force =    -0.00035881    0.00000388    0.00008423
     atom  115 type  2   force =     0.00000116   -0.00000154    0.00148310
     atom  116 type  2   force =     0.00000948   -0.00000494   -0.00000885
     atom  117 type  2   force =    -0.00001030   -0.00012459    0.00083702
     atom  118 type  1   force =     0.00296880   -0.00014025   -0.00264148
     atom  119 type  1   force =    -0.00000801    0.00000739    0.00190318
     atom  120 type  1   force =    -0.00004819   -0.00000124   -0.00000646
     atom  121 type  2   force =    -0.00000107    0.00000346   -0.00325137
     atom  122 type  2   force =    -0.00003793   -0.00000205    0.00000566
     atom  123 type  2   force =    -0.00006209    0.00007418    0.00294057
     atom  124 type  2   force =    -0.00000029    0.00000398    0.00149596
     atom  125 type  2   force =    -0.00001151   -0.00000631    0.00003145
     atom  126 type  2   force =     0.02545160   -0.01245744    0.01068025
     atom  127 type  1   force =     0.00145182    0.00204158   -0.00253612
     atom  128 type  1   force =     0.00000009   -0.00000881    0.00190007
     atom  129 type  1   force =    -0.00001450   -0.00002038   -0.00002647
     atom  130 type  2   force =     0.00000088   -0.00000004   -0.00325533
     atom  131 type  2   force =    -0.00000697   -0.00000309    0.00000273
     atom  132 type  2   force =     0.00006827    0.00006249    0.00292674
     atom  133 type  2   force =    -0.00000222   -0.00000092    0.00147631
     atom  134 type  2   force =     0.00000939    0.00002551    0.00002442
     atom  135 type  2   force =     0.00099910    0.02541761    0.01086459
     atom  136 type  1   force =     0.00018064   -0.00046293   -0.00016668
     atom  137 type  1   force =     0.00000053   -0.00000522    0.00190450
     atom  138 type  1   force =    -0.00002628    0.00001190   -0.00000620
     atom  139 type  2   force =     0.00000093   -0.00000467   -0.00325322
     atom  140 type  2   force =     0.00000034   -0.00000279    0.00000209
     atom  141 type  2   force =    -0.00009096    0.00023037   -0.00023634
     atom  142 type  2   force =    -0.00000764   -0.00000701    0.00148135
     atom  143 type  2   force =    -0.00001951   -0.00000880    0.00003715
     atom  144 type  2   force =     0.00008054    0.00011318    0.00014798
     atom  145 type  3   force =     0.01251206   -0.00042346    0.00487309
     atom  146 type  3   force =    -0.00051084   -0.00032354   -0.00048788
     atom  147 type  3   force =    -0.00679088    0.00420035    0.00241832
     The non-local contrib.  to forces
     atom    1 type  1   force =    -0.00038720   -0.00624027    0.00015085
     atom    2 type  1   force =     0.00000220    0.00000245   -0.00195256
     atom    3 type  1   force =    -0.00001364   -0.00011015   -0.00069165
     atom    4 type  2   force =     0.00000138   -0.00000198    0.26314968
     atom    5 type  2   force =     0.00005980   -0.00014362    0.26642644
     atom    6 type  2   force =    -0.00024093   -0.00254084    0.26631445
     atom    7 type  2   force =     0.00000243   -0.00000082   -0.26455379
     atom    8 type  2   force =    -0.00005674    0.00023075   -0.26462026
     atom    9 type  2   force =    -0.00344352   -0.00336559   -0.25347791
     atom   10 type  1   force =     0.00541313   -0.00131502   -0.02624008
     atom   11 type  1   force =     0.00000645    0.00000446   -0.00195432
     atom   12 type  1   force =     0.00005971    0.00023176   -0.00090565
     atom   13 type  2   force =    -0.00000232    0.00000311    0.26315195
     atom   14 type  2   force =     0.00002208   -0.00001953    0.26629089
     atom   15 type  2   force =    -0.00106213   -0.00103133    0.26575597
     atom   16 type  2   force =    -0.00000034   -0.00000299   -0.26456795
     atom   17 type  2   force =    -0.00021598   -0.00036224   -0.26476462
     atom   18 type  2   force =     0.11519284    0.06183735   -0.18903903
     atom   19 type  1   force =     0.00124542   -0.00182734   -0.00356034
     atom   20 type  1   force =     0.00000068   -0.00000116   -0.00195702
     atom   21 type  1   force =     0.00008918    0.00003746   -0.00053378
     atom   22 type  2   force =     0.00000031    0.00000090    0.26315549
     atom   23 type  2   force =    -0.00007583    0.00009227    0.26631881
[...]
     atom   65 type  1   force =    -0.00000003   -0.00000036    0.00260521
     atom   66 type  1   force =    -0.00000338    0.00001271    0.00000132
     atom   67 type  2   force =    -0.00000001    0.00000007    0.00441049
     atom   68 type  2   force =    -0.00000068   -0.00000016   -0.00004746
     atom   69 type  2   force =    -0.00000035    0.00000910   -0.00014260
     atom   70 type  2   force =     0.00000001   -0.00000031    0.00023731
     atom   71 type  2   force =    -0.00000880    0.00002411    0.00011020
     atom   72 type  2   force =     0.00009873   -0.00024265   -0.00427997
     atom   73 type  1   force =    -0.00018624    0.00037172   -0.00209105
     atom   74 type  1   force =     0.00000007   -0.00000047    0.00260425
     atom   75 type  1   force =     0.00000014   -0.00001926   -0.00001270
     atom   76 type  2   force =     0.00000000   -0.00000010    0.00441039
     atom   77 type  2   force =    -0.00000060   -0.00000241   -0.00004540
     atom   78 type  2   force =    -0.00002158    0.00002947   -0.00004972
     atom   79 type  2   force =    -0.00000008   -0.00000095    0.00023725
     atom   80 type  2   force =     0.00000102   -0.00002048    0.00010784
     atom   81 type  2   force =    -0.00017886    0.00073727   -0.00408905
     atom   82 type  1   force =    -0.00035321   -0.00000210   -0.00210179
     atom   83 type  1   force =    -0.00000002    0.00000033    0.00260408
     atom   84 type  1   force =     0.00000400   -0.00001400   -0.00006255
     atom   85 type  2   force =    -0.00000002   -0.00000000    0.00441010
     atom   86 type  2   force =    -0.00000024   -0.00000047   -0.00005266
     atom   87 type  2   force =    -0.00003437    0.00004983    0.00050431
     atom   88 type  2   force =    -0.00000016    0.00000038    0.00023709
     atom   89 type  2   force =     0.00000146   -0.00002733    0.00010111
     atom   90 type  2   force =    -0.00027687    0.00025597   -0.00420306
     atom   91 type  1   force =    -0.00011250   -0.00063430   -0.00177624
     atom   92 type  1   force =    -0.00000000    0.00000045    0.00260505
     atom   93 type  1   force =     0.00000036    0.00002022   -0.00005895
     atom   94 type  2   force =    -0.00000000   -0.00000002    0.00441005
     atom   95 type  2   force =     0.00000016    0.00000310   -0.00005585
     atom   96 type  2   force =     0.00000134   -0.00010904    0.00032674
     atom   97 type  2   force =    -0.00000011    0.00000060    0.00023719
     atom   98 type  2   force =     0.00001058    0.00002205    0.00007961
     atom   99 type  2   force =    -0.00000003   -0.00070550   -0.00393021
     atom  100 type  1   force =    -0.00000023   -0.00009697   -0.00239346
     atom  101 type  1   force =     0.00000003   -0.00000032    0.00260520
     atom  102 type  1   force =    -0.00000062    0.00001502   -0.00000860
     atom  103 type  2   force =    -0.00000004    0.00000006    0.00441038
     atom  104 type  2   force =     0.00000017   -0.00000022   -0.00004811
     atom  105 type  2   force =    -0.00001204    0.00000407   -0.00010382
     atom  106 type  2   force =    -0.00000008   -0.00000035    0.00023738
     atom  107 type  2   force =     0.00000030    0.00003060    0.00009712
     atom  108 type  2   force =     0.00002422   -0.00053475   -0.00419142
     atom  109 type  1   force =     0.00018371    0.00037062   -0.00209014
     atom  110 type  1   force =     0.00000005   -0.00000045    0.00260437
     atom  111 type  1   force =     0.00000009   -0.00001749   -0.00001250
     atom  112 type  2   force =     0.00000001   -0.00000000    0.00441035
     atom  113 type  2   force =     0.00000094   -0.00000239   -0.00004537
     atom  114 type  2   force =    -0.00000088   -0.00001436   -0.00010387
     atom  115 type  2   force =     0.00000004   -0.00000091    0.00023713
     atom  116 type  2   force =    -0.00000159   -0.00002118    0.00010728
     atom  117 type  2   force =    -0.00000045    0.00039656   -0.00423592
     atom  118 type  1   force =    -0.00000156    0.00001434   -0.00182279
     atom  119 type  1   force =     0.00000008    0.00000035    0.00260426
     atom  120 type  1   force =     0.00000316   -0.00000951   -0.00005000
     atom  121 type  2   force =     0.00000003    0.00000001    0.00441018
     atom  122 type  2   force =     0.00000019    0.00000006   -0.00005150
     atom  123 type  2   force =    -0.00006675    0.00000684    0.00020349
     atom  124 type  2   force =     0.00000013    0.00000041    0.00023723
     atom  125 type  2   force =    -0.00000060   -0.00001507    0.00011643
     atom  126 type  2   force =    -0.00012251    0.00019465   -0.00422489
     atom  127 type  1   force =    -0.00016988   -0.00037137   -0.00208578
     atom  128 type  1   force =     0.00000001    0.00000047    0.00260512
     atom  129 type  1   force =     0.00000590    0.00001744   -0.00004649
     atom  130 type  2   force =     0.00000002    0.00000000    0.00441012
     atom  131 type  2   force =     0.00000058    0.00000343   -0.00005310
     atom  132 type  2   force =    -0.00004150   -0.00006122    0.00022921
     atom  133 type  2   force =     0.00000003    0.00000083    0.00023712
     atom  134 type  2   force =     0.00000564    0.00002342    0.00008703
     atom  135 type  2   force =    -0.00046528   -0.00048476   -0.00414824
     atom  136 type  1   force =    -0.00000628    0.00001495   -0.00238062
     atom  137 type  1   force =     0.00000003   -0.00000028    0.00260526
     atom  138 type  1   force =     0.00000090    0.00001495   -0.00000835
     atom  139 type  2   force =     0.00000005    0.00000006    0.00441038
     atom  140 type  2   force =     0.00000068    0.00000006   -0.00004737
     atom  141 type  2   force =     0.00001308    0.00000234   -0.00010330
     atom  142 type  2   force =    -0.00000002   -0.00000027    0.00023740
     atom  143 type  2   force =     0.00000858    0.00002339    0.00011148
     atom  144 type  2   force =    -0.00002432   -0.00053531   -0.00419174
     atom  145 type  3   force =     0.00000959    0.00002316   -0.00628292
     atom  146 type  3   force =     0.00018286   -0.00000676   -0.00619810
     atom  147 type  3   force =    -0.00018902   -0.00000724   -0.00621822

     Total force =     0.002461     Total SCF correction =     0.000185
     Energy error            =      1.5E-05 Ry
     Gradient error          =      7.4E-04 Ry/Bohr

     bfgs converged in  22 scf cycles and  21 bfgs steps
     (criteria: energy <  1.0E-04 Ry, force <  1.0E-03 Ry/Bohr)

     End of BFGS Geometry Optimization

     Final energy             =  -25381.0865520083 Ry

     File ./outdir/pwscf.bfgs deleted, as requested
Begin final coordinates

ATOMIC_POSITIONS (angstrom)
Mo            1.5760229237        2.6945278380        6.0644656783
Mo            1.5769197498        0.9104407117       -6.0872367793    0   0   0
Mo           -0.0001779973        1.8209614789       -0.0010329008
S             0.0000044503        0.0000077495       -7.6506323570    0   0   0
S             1.5770294336        0.9110048443       -1.5665912248
S            -0.0105874662        1.8185794981        4.4941637293
S             0.0000053241        0.0000068460       -4.5222282367    0   0   0
S             1.5763617105        0.9093610394        1.5652185538
S            -0.0020845001        1.8006895434        7.6354875814
Mo           -0.0085623656        5.4597720784        6.1354487330
Mo            0.0000011799        3.6417399547       -6.0872367793    0   0   0
Mo           -1.5768108592        4.5523965595       -0.0002888447
S            -1.5769141197        2.7313069925       -7.6506323570    0   0   0
S             0.0000206636        3.6419578210       -1.5658744292
S            -1.5626903805        4.5674769141        4.5513601027
S            -1.5769132459        2.7313060890       -4.5222282367    0   0   0
S             0.0002218667        3.6420309086        1.5672705038
S            -1.6430075441        4.5052941872        7.7122190271
Mo           -1.5853943092        8.2037062998        6.0784793542
Mo           -1.5769173901        6.3730391977       -6.0872367793    0   0   0
Mo           -3.1539054652        7.2830596652       -0.0022311371
S            -3.1538326896        5.4626062355       -7.6506323570    0   0   0
S            -1.5769075337        6.3721756617       -1.5671888668
S            -3.1544964247        7.2730764019        4.5142410346
S            -3.1538318159        5.4626053320       -4.5222282367    0   0   0
S            -1.5768872225        6.3737618327        1.5657452604
S            -3.1546428321        7.2921247923        7.6501941802
Mo            3.1533679037       -0.0076574745        6.0495974592
Mo           -3.1538359601        9.1043384407       -6.0872367793    0   0   0
Mo           -4.7309601547       10.0143463517       -0.0023320838
S            -4.7307512596        8.1939054785       -7.6506323570    0   0   0
S            -3.1538042508        9.1041333051       -1.5677548581
S            -4.7352165773       10.0030541587        4.4907615657
S            -4.7307503859        8.1939045750       -4.5222282367    0   0   0
S            -3.1540027935        9.1037060636        1.5642968176
S            -4.7264356754       10.0278221146        7.6310869045
Mo            4.7307182597        2.6948146881        6.0650324621
Mo            4.7307503218        0.9104407117       -6.0872367793    0   0   0
Mo            3.1537459295        1.8210242142       -0.0001746369
S             3.1538350223        0.0000077495       -7.6506323570    0   0   0
S             4.7306642926        0.9110394601       -1.5663718952
S             3.1546485243        1.8112103445        4.4808970791
S             3.1538358961        0.0000068460       -4.5222282367    0   0   0
S             4.7310798219        0.9093933684        1.5653292146
S             3.1530256152        1.7841368322        7.6286730542
Mo            3.1527621410        5.4589656320        6.1183169063
Mo            3.1538317519        3.6417399547       -6.0872367793    0   0   0
Mo            1.5768857105        4.5523138454       -0.0002121903
S             1.5769164523        2.7313069925       -7.6506323570    0   0   0
S             3.1538386800        3.6417676949       -1.5653560135
S             1.5684512686        4.5666144518        4.5670668867
S             1.5769173261        2.7313060890       -4.5222282367    0   0   0
S             3.1536019710        3.6426175886        1.5683428475
S             1.5966681266        4.4354159050        7.6973399920
Mo            1.5775714457        8.2179481192        6.0823674726
Mo            1.5769131819        6.3730391977       -6.0872367793    0   0   0
Mo            0.0000676759        7.2828390398       -0.0020708414
S            -0.0000021176        5.4626062355       -7.6506323570    0   0   0
S             1.5769959484        6.3721361415       -1.5670257771
S            -0.0000093574        7.2627132486        4.5485440700
S            -0.0000012439        5.4626053320       -4.5222282367    0   0   0
S             1.5767995494        6.3735229109        1.5663246608
S            -0.0016993540        7.3888181414        7.6881277040
Mo            6.3089607036       -0.0018769804        6.0587200737
Mo           -0.0000053881        9.1043384407       -6.0872367793    0   0   0
Mo           -1.5768402527       10.0143434702       -0.0021225200
S            -1.5769206876        8.1939054785       -7.6506323570    0   0   0
S             0.0002056596        9.1040536430       -1.5673051670
S            -1.5736850444       10.0034194523        4.4906651052
S            -1.5769198139        8.1939045750       -4.5222282367    0   0   0
S            -0.0000404844        9.1028998495        1.5651606559
S            -1.5826335173       10.0286615803        7.6315155619
Mo            7.8876983527        2.7233814902        6.0814829521
Mo            7.8845808939        0.9104407117       -6.0872367793    0   0   0
Mo            6.3077443138        1.8210211626       -0.0006875389
S             6.3076655943        0.0000077495       -7.6506323570    0   0   0
S             7.8846924683        0.9108657515       -1.5662716980
S             6.3166478394        1.8203300931        4.4950865865
S             6.3076664681        0.0000068460       -4.5222282367    0   0   0
S             7.8847402929        0.9097463329        1.5654918767
S             6.3093074799        1.8020374788        7.6365472350
Mo            6.3145284858        5.4595548160        6.1333707495
Mo            6.3076623239        3.6417399547       -6.0872367793    0   0   0
Mo            4.7305926765        4.5523266885        0.0000155315
S             4.7307470244        2.7313069925       -7.6506323570    0   0   0
S             6.3075234977        3.6419608218       -1.5655531424
S             4.7367788518        4.5674592917        4.5668884757
S             4.7307478981        2.7313060890       -4.5222282367    0   0   0
S             6.3073393782        3.6421748843        1.5675503755
S             4.7093858528        4.4345526409        7.6954194313
Mo            4.7291256757        8.2175990723        6.0816427690
Mo            4.7307437539        6.3730391977       -6.0872367793    0   0   0
Mo            3.1537261318        7.2828926908       -0.0017950742
S             3.1538284544        5.4626062355       -7.6506323570    0   0   0
S             4.7304798690        6.3720442804       -1.5669394794
S             3.1536202570        7.2719690049        4.5408940031
S             3.1538293281        5.4626053320       -4.5222282367    0   0   0
S             4.7306276099        6.3736320653        1.5663757331
S             3.1536612095        7.3651928978        7.6794222354
Mo            9.4609488593        0.0054330004        6.0589930873
Mo            3.1538251839        9.1043384407       -6.0872367793    0   0   0
Mo            1.5769892067       10.0143368057       -0.0016511524
S             1.5769098844        8.1939054785       -7.6506323570    0   0   0
S             3.1536288555        9.1039659543       -1.5672456333
S             1.5783886138       10.0129352910        4.4922913966
S             1.5769107581        8.1939045750       -4.5222282367    0   0   0
S             3.1537901627        9.1031265502        1.5652676062
S             1.5780708580       10.0421519934        7.6371996298
Mo           -1.5810625952        2.7231104267        6.0816540434
Mo           11.0384114659        0.9104407117       -6.0872367793    0   0   0
Mo            9.4614150601        1.8212834821       -0.0004697079
S             9.4614961663        0.0000077495       -7.6506323570    0   0   0
S            11.0379935561        0.9108584617       -1.5665200327
S             9.4609311212        1.8323723196        4.5018601275
S             9.4614970401        0.0000068460       -4.5222282367    0   0   0
S            11.0381987364        0.9096974652        1.5651732226
S             9.4608842434        1.8028787326        7.6445660144
Mo           -3.1545333603        5.4607280813        6.1000205244
Mo            9.4614928959        3.6417399547       -6.0872367793    0   0   0
Mo            7.8844132932        4.5524259941       -0.0000759147
S             7.8845775964        2.7313069925       -7.6506323570    0   0   0
S             9.4613788564        3.6420716362       -1.5654539515
S             7.8689033747        4.5677045701        4.5507037780
S             7.8845784701        2.7313060890       -4.5222282367    0   0   0
S             9.4615952236        3.6429633366        1.5680620888
S             7.9484119417        4.5052893787        7.7102237118
Mo           -4.7232526580        8.2032823474        6.0777333965
Mo            7.8845743259        6.3730391977       -6.0872367793    0   0   0
Mo            6.3074176248        7.2828110027       -0.0020621248
S             6.3076590264        5.4626062355       -7.6506323570    0   0   0
S             7.8844301115        6.3721053455       -1.5671008670
S             6.3067805962        7.2616446073        4.5473953632
S             6.3076599001        5.4626053320       -4.5222282367    0   0   0
S             7.8844339326        6.3738740313        1.5657970396
S             6.3082675325        7.3888465878        7.6855837716
Mo           -0.0027455953       -0.0029796171        6.0583313088
Mo            6.3076557559        9.1043384407       -6.0872367793    0   0   0
Mo            4.7304448162       10.0143152013       -0.0018955035
S             4.7307404564        8.1939054785       -7.6506323570    0   0   0
S             6.3072779560        9.1039264133       -1.5675068945
S             4.7279468350       10.0121842833        4.4920146403
S             4.7307413301        8.1939045750       -4.5222282367    0   0   0
S             6.3075117386        9.1030550274        1.5649250590
S             4.7283578992       10.0411513030        7.6371802923
Pd            3.1546165853        5.5002905248        9.1094941805
Pd            0.0870013160        5.4941866852        9.0459741747
Pd            6.2190511340        5.4935973471        9.0417457669
End final coordinates



     Writing all to output data dir ./outdir/pwscf.save/
 
     init_run     :    103.16s CPU    105.63s WALL (       1 calls)
     electrons    :  92289.94s CPU  93429.83s WALL (      22 calls)
     update_pot   :     89.28s CPU     89.54s WALL (      21 calls)
     forces       :   1472.79s CPU   1516.34s WALL (      22 calls)
     force_dftd3  :     10.23s CPU     10.23s WALL (      22 calls)

     Called by init_run:
     wfcinit      :     84.36s CPU     85.65s WALL (       1 calls)
     potinit      :      1.83s CPU      1.90s WALL (       1 calls)
     hinit0       :     11.57s CPU     11.59s WALL (       1 calls)

     Called by electrons:
     c_bands      :  82143.69s CPU  82684.22s WALL (     258 calls)
     sum_band     :   9308.50s CPU   9659.11s WALL (     258 calls)
     v_of_rho     :    107.57s CPU    109.18s WALL (     259 calls)
     newd         :    545.84s CPU    806.98s WALL (     259 calls)
     PAW_pot      :    153.30s CPU    153.33s WALL (     280 calls)
     mix_rho      :     24.65s CPU     24.68s WALL (     258 calls)
     energy_dftd3 :      4.53s CPU      4.54s WALL (      22 calls)

     Called by c_bands:
     init_us_2    :    427.10s CPU    427.38s WALL (    2240 calls)
     init_us_2:cp :    427.08s CPU    427.37s WALL (    2240 calls)
     cegterg      :  80789.37s CPU  81321.32s WALL (    1046 calls)

     Called by *egterg:
     cdiaghg      :   5233.31s CPU   5250.83s WALL (   12745 calls)
     h_psi        :  43204.07s CPU  43363.37s WALL (   12917 calls)
     s_psi        :   8603.46s CPU   8604.07s WALL (   12917 calls)
     g_psi        :    102.51s CPU    102.49s WALL (   11867 calls)

     Called by h_psi:
     h_psi:calbec :   8590.98s CPU   8592.65s WALL (   12917 calls)
     vloc_psi     :  25811.63s CPU  25876.47s WALL (   12917 calls)
     add_vuspsi   :   8682.94s CPU   8686.48s WALL (   12917 calls)

     General routines
     calbec       :  12265.02s CPU  12267.36s WALL (   14385 calls)
     fft          :     98.45s CPU    100.87s WALL (    3607 calls)
     ffts         :      4.65s CPU      4.71s WALL (     517 calls)
     fftw         :  20546.25s CPU  20597.03s WALL ( 5768414 calls)
     interpolate  :     10.64s CPU     10.78s WALL (     259 calls)
 
     Parallel routines
 
     PWSCF        :   1d 2h14m CPU   1d 2h34m WALL

 
   This run was terminated on:  20:45:16   4Nov2023            

=------------------------------------------------------------------------------=
   JOB DONE.
=------------------------------------------------------------------------------=
Application 11372234 resources: utime ~3401136s, stime ~43270s, Rss ~2384812, inblocks ~0, outblocks ~39184448
