
     Program PWSCF v.7.2 starts on  3Nov2023 at 16:46: 2 

     This program is part of the open-source Quantum ESPRESSO suite
     for quantum simulation of materials; please cite
         "P. Giannozzi et al., J. Phys.:Condens. Matter 21 395502 (2009);
         "P. Giannozzi et al., J. Phys.:Condens. Matter 29 465901 (2017);
         "P. Giannozzi et al., J. Chem. Phys. 152 154105 (2020);
          URL http://www.quantum-espresso.org", 
     in publications or presentations arising from this work. More details at
     http://www.quantum-espresso.org/quote

     Parallel version (MPI), running on    36 processors

     MPI processes distributed on     1 nodes
     769705 MiB available memory on the printing compute node when the environment starts
 
     Waiting for input...
     Reading input from standard input
Warning: card &CELL ignored
Warning: card / ignored

     Current dimensions of program PWSCF are:
     Max number of different atomic species (ntypx) = 10
     Max number of k-points (npk) =  40000
     Max angular momentum in pseudopotentials (lmaxx) =  4
     file Mo.pbe-spn-kjpaw_psl.1.0.0.UPF: wavefunction(s)  4S 4D renormalized
     file S.pbe-n-kjpaw_psl.1.0.0.UPF: wavefunction(s)  3S 3P renormalized
     file Au.pbe-spfn-kjpaw_psl.1.0.0.UPF: wavefunction(s)  5P 5D 4F renormalized
 
     R & G space division:  proc/nbgrp/npool/nimage =      36
     Subspace diagonalization in iterative solution of the eigenvalue problem:
     one sub-group per band group will be used
     custom distributed-memory algorithm (size of sub-group:  6*  6 procs)

 
     Parallelization info
     --------------------
     sticks:   dense  smooth     PW     G-vecs:    dense   smooth      PW
     Min         586     335     89               165416    71459    9765
     Max         587     337     90               165425    71461    9778
     Sum       21109   12085   3205              5955087  2572543  351657
 
     Using Slab Decomposition
 


     bravais-lattice index     =            0
     lattice parameter (alat)  =      23.8395  a.u.
     unit-cell volume          =   28182.8498 (a.u.)^3
     number of atoms/cell      =          145
     number of atomic types    =            3
     number of electrons       =      1281.00
     number of Kohn-Sham states=          769
     kinetic-energy cutoff     =      77.0000  Ry
     charge density cutoff     =     539.0000  Ry
     scf convergence threshold =      1.0E-06
     mixing beta               =       0.2000
     number of iterations used =            8  plain     mixing
     energy convergence thresh.=      1.0E-04
     force convergence thresh. =      1.0E-03
     Exchange-correlation= SLA  PW   PBX  PBC
                           (   1   4   3   4   0   0   0)
     nstep                     =         1000


     Effective Screening Medium Method
     =================================
     Boundary Conditions: Vacuum-Slab-Vacuum
     total charge in unit cell        =   0.0000
     grid points for fit at edges     =        4 
 

     celldm(1)=  23.839504  celldm(2)=   0.000000  celldm(3)=   0.000000
     celldm(4)=   0.000000  celldm(5)=   0.000000  celldm(6)=   0.000000

     crystal axes: (cart. coord. in units of alat)
               a(1) = (   1.000000   0.000000   0.000000 )  
               a(2) = (  -0.500001   0.866026   0.000000 )  
               a(3) = (   0.000000   0.000000   2.401941 )  

     reciprocal axes: (cart. coord. in units 2 pi/alat)
               b(1) = (  1.000000  0.577351  0.000000 )  
               b(2) = (  0.000000  1.154700  0.000000 )  
               b(3) = (  0.000000  0.000000  0.416330 )  


     PseudoPot. # 1 for Mo read from file:
     ./pseudo/Mo.pbe-spn-kjpaw_psl.1.0.0.UPF
     MD5 check sum: 317bf72632116215fd98f72de1686f13
     Pseudo is Projector augmented-wave + core cor, Zval = 14.0
     Generated using 'atomic' code by A. Dal Corso  v.7.2
     Shape of augmentation charge: PSQ
     Using radial grid of 1229 points,  6 beta functions with: 
                l(1) =   0
                l(2) =   0
                l(3) =   1
                l(4) =   1
                l(5) =   2
                l(6) =   2
     Q(r) pseudized with 0 coefficients 


     PseudoPot. # 2 for S  read from file:
     ./pseudo/S.pbe-n-kjpaw_psl.1.0.0.UPF
     MD5 check sum: 8b7b5302570d38d5e87fed6a1065abda
     Pseudo is Projector augmented-wave + core cor, Zval =  6.0
     Generated using 'atomic' code by A. Dal Corso  v.7.2
     Shape of augmentation charge: PSQ
     Using radial grid of 1151 points,  6 beta functions with: 
                l(1) =   0
                l(2) =   0
                l(3) =   1
                l(4) =   1
                l(5) =   2
                l(6) =   2
     Q(r) pseudized with 0 coefficients 


     PseudoPot. # 3 for Au read from file:
     ./pseudo/Au.pbe-spfn-kjpaw_psl.1.0.0.UPF
     MD5 check sum: c4676eff00405da86a99eb409921eac8
     Pseudo is Projector augmented-wave + core cor, Zval = 33.0
     Generated using 'atomic' code by A. Dal Corso  v.7.2
     Shape of augmentation charge: PSQ
     Using radial grid of 1279 points,  8 beta functions with: 
                l(1) =   0
                l(2) =   0
                l(3) =   1
                l(4) =   1
                l(5) =   2
                l(6) =   2
                l(7) =   3
                l(8) =   3
     Q(r) pseudized with 0 coefficients 


     atomic species   valence    mass     pseudopotential
        Mo            14.00    95.95000     Mo( 1.00)
        S              6.00    32.06000     S ( 1.00)
        Au            33.00   196.96657     Au( 1.00)

     No symmetry found



   Cartesian axes

     site n.     atom                  positions (alat units)
         1           Mo  tau(   1) = (   0.1249983   0.2165050   0.4823527  )
         2           Mo  tau(   2) = (   0.1250004   0.0721694  -0.4825273  )
         3           Mo  tau(   3) = (  -0.0000019   0.1443377  -0.0000751  )
         4           S   tau(   4) = (   0.0000004   0.0000006  -0.6064556  )
         5           S   tau(   5) = (   0.1249982   0.0721692  -0.1241671  )
         6           S   tau(   6) = (  -0.0000016   0.1443364   0.3582431  )
         7           S   tau(   7) = (   0.0000004   0.0000005  -0.3584711  )
         8           S   tau(   8) = (   0.1249982   0.0721691   0.1241550  )
         9           S   tau(   9) = (  -0.0000015   0.1443364   0.6067201  )
        10           Mo  tau(  10) = (  -0.0000021   0.4330115   0.4823527  )
        11           Mo  tau(  11) = (   0.0000001   0.2886759  -0.4825273  )
        12           Mo  tau(  12) = (  -0.1250009   0.3608432  -0.0000744  )
        13           S   tau(  13) = (  -0.1249999   0.2165071  -0.6064556  )
        14           S   tau(  14) = (  -0.0000017   0.2886753  -0.1241667  )
        15           S   tau(  15) = (  -0.1250020   0.3608427   0.3582430  )
        16           S   tau(  16) = (  -0.1249998   0.2165070  -0.3584711  )
        17           S   tau(  17) = (  -0.0000017   0.2886752   0.1241551  )
        18           S   tau(  18) = (  -0.1250020   0.3608428   0.6067200  )
        19           Mo  tau(  19) = (  -0.1250025   0.6495181   0.4823527  )
        20           Mo  tau(  20) = (  -0.1250002   0.5051824  -0.4825273  )
        21           Mo  tau(  21) = (  -0.2500019   0.5773502  -0.0000747  )
        22           S   tau(  22) = (  -0.2500002   0.4330136  -0.6064556  )
        23           S   tau(  23) = (  -0.1250019   0.5051815  -0.1241659  )
        24           S   tau(  24) = (  -0.2500023   0.5773492   0.3582430  )
        25           S   tau(  25) = (  -0.2500001   0.4330135  -0.3584711  )
        26           S   tau(  26) = (  -0.1250021   0.5051816   0.1241548  )
        27           S   tau(  27) = (  -0.2500023   0.5773492   0.6067201  )
        28           Mo  tau(  28) = (   0.2499985  -0.0000014   0.4823528  )
        29           Mo  tau(  29) = (  -0.2500004   0.7216889  -0.4825273  )
        30           Mo  tau(  30) = (  -0.3750035   0.7938587  -0.0000751  )
        31           S   tau(  31) = (  -0.3750004   0.6495201  -0.6064556  )
        32           S   tau(  32) = (  -0.2500024   0.7216883  -0.1241659  )
        33           S   tau(  33) = (  -0.3750023   0.7938557   0.3582430  )
        34           S   tau(  34) = (  -0.3750004   0.6495200  -0.3584711  )
        35           S   tau(  35) = (  -0.2500028   0.7216884   0.1241544  )
        36           S   tau(  36) = (  -0.3750023   0.7938556   0.6067199  )
        37           Mo  tau(  37) = (   0.3749981   0.2165050   0.4823525  )
        38           Mo  tau(  38) = (   0.3750004   0.0721694  -0.4825273  )
        39           Mo  tau(  39) = (   0.2499973   0.1443382  -0.0000750  )
        40           S   tau(  40) = (   0.2500004   0.0000006  -0.6064556  )
        41           S   tau(  41) = (   0.3749982   0.0721689  -0.1241664  )
        42           S   tau(  42) = (   0.2499983   0.1443364   0.3582430  )
        43           S   tau(  43) = (   0.2500004   0.0000005  -0.3584711  )
        44           S   tau(  44) = (   0.3749982   0.0721692   0.1241548  )
        45           S   tau(  45) = (   0.2499984   0.1443363   0.6067201  )
        46           Mo  tau(  46) = (   0.2499981   0.4330115   0.4823527  )
        47           Mo  tau(  47) = (   0.2500001   0.2886759  -0.4825273  )
        48           Mo  tau(  48) = (   0.1249978   0.3608446  -0.0000747  )
        49           S   tau(  49) = (   0.1250001   0.2165071  -0.6064556  )
        50           S   tau(  50) = (   0.2499977   0.2886754  -0.1241668  )
        51           S   tau(  51) = (   0.1249981   0.3608427   0.3582430  )
        52           S   tau(  52) = (   0.1250002   0.2165070  -0.3584711  )
        53           S   tau(  53) = (   0.2499978   0.2886754   0.1241550  )
        54           S   tau(  54) = (   0.1249981   0.3608427   0.6067200  )
        55           Mo  tau(  55) = (   0.1249976   0.6495181   0.4823528  )
        56           Mo  tau(  56) = (   0.1249998   0.5051824  -0.4825273  )
        57           Mo  tau(  57) = (  -0.0000011   0.5773502  -0.0000746  )
        58           S   tau(  58) = (  -0.0000002   0.4330136  -0.6064556  )
        59           S   tau(  59) = (   0.1249978   0.5051816  -0.1241667  )
        60           S   tau(  60) = (  -0.0000023   0.5773491   0.3582431  )
        61           S   tau(  61) = (  -0.0000001   0.4330135  -0.3584711  )
        62           S   tau(  62) = (   0.1249980   0.5051816   0.1241553  )
        63           S   tau(  63) = (  -0.0000022   0.5773492   0.6067201  )
        64           Mo  tau(  64) = (   0.4999983  -0.0000014   0.4823527  )
        65           Mo  tau(  65) = (  -0.0000004   0.7216889  -0.4825273  )
        66           Mo  tau(  66) = (  -0.1250019   0.7938576  -0.0000744  )
        67           S   tau(  67) = (  -0.1250004   0.6495201  -0.6064556  )
        68           S   tau(  68) = (  -0.0000024   0.7216881  -0.1241664  )
        69           S   tau(  69) = (  -0.1250026   0.7938558   0.3582428  )
        70           S   tau(  70) = (  -0.1250004   0.6495200  -0.3584711  )
        71           S   tau(  71) = (  -0.0000022   0.7216883   0.1241549  )
        72           S   tau(  72) = (  -0.1250025   0.7938557   0.6067204  )
        73           Mo  tau(  73) = (   0.6249983   0.2165053   0.4823528  )
        74           Mo  tau(  74) = (   0.6250004   0.0721694  -0.4825273  )
        75           Mo  tau(  75) = (   0.4999985   0.1443375  -0.0000751  )
        76           S   tau(  76) = (   0.5000004   0.0000006  -0.6064556  )
        77           S   tau(  77) = (   0.6249985   0.0721690  -0.1241669  )
        78           S   tau(  78) = (   0.4999982   0.1443364   0.3582430  )
        79           S   tau(  79) = (   0.5000004   0.0000005  -0.3584711  )
        80           S   tau(  80) = (   0.6249984   0.0721690   0.1241550  )
        81           S   tau(  81) = (   0.4999983   0.1443363   0.6067200  )
        82           Mo  tau(  82) = (   0.4999981   0.4330116   0.4823529  )
        83           Mo  tau(  83) = (   0.5000001   0.2886759  -0.4825273  )
        84           Mo  tau(  84) = (   0.3749964   0.3608441  -0.0000749  )
        85           S   tau(  85) = (   0.3750001   0.2165071  -0.6064556  )
        86           S   tau(  86) = (   0.4999978   0.2886755  -0.1241662  )
        87           S   tau(  87) = (   0.3749982   0.3608427   0.3582430  )
        88           S   tau(  88) = (   0.3750002   0.2165070  -0.3584711  )
        89           S   tau(  89) = (   0.4999977   0.2886754   0.1241546  )
        90           S   tau(  90) = (   0.3749981   0.3608426   0.6067200  )
        91           Mo  tau(  91) = (   0.3749980   0.6495180   0.4823527  )
        92           Mo  tau(  92) = (   0.3749998   0.5051824  -0.4825273  )
        93           Mo  tau(  93) = (   0.2499971   0.5773505  -0.0000748  )
        94           S   tau(  94) = (   0.2499998   0.4330136  -0.6064556  )
        95           S   tau(  95) = (   0.3749976   0.5051816  -0.1241666  )
        96           S   tau(  96) = (   0.2499978   0.5773492   0.3582431  )
        97           S   tau(  97) = (   0.2499999   0.4330135  -0.3584711  )
        98           S   tau(  98) = (   0.3749977   0.5051817   0.1241548  )
        99           S   tau(  99) = (   0.2499978   0.5773491   0.6067200  )
       100           Mo  tau( 100) = (   0.7499985  -0.0000012   0.4823529  )
       101           Mo  tau( 101) = (   0.2499996   0.7216889  -0.4825273  )
       102           Mo  tau( 102) = (   0.1249980   0.7938575  -0.0000752  )
       103           S   tau( 103) = (   0.1249996   0.6495201  -0.6064556  )
       104           S   tau( 104) = (   0.2499977   0.7216881  -0.1241669  )
       105           S   tau( 105) = (   0.1249975   0.7938558   0.3582429  )
       106           S   tau( 106) = (   0.1249996   0.6495200  -0.3584711  )
       107           S   tau( 107) = (   0.2499976   0.7216882   0.1241550  )
       108           S   tau( 108) = (   0.1249974   0.7938558   0.6067204  )
       109           Mo  tau( 109) = (  -0.1250017   0.2165052   0.4823527  )
       110           Mo  tau( 110) = (   0.8750004   0.0721694  -0.4825273  )
       111           Mo  tau( 111) = (   0.7499989   0.1443369  -0.0000749  )
       112           S   tau( 112) = (   0.7500004   0.0000006  -0.6064556  )
       113           S   tau( 113) = (   0.8749984   0.0721690  -0.1241671  )
       114           S   tau( 114) = (   0.7499983   0.1443364   0.3582431  )
       115           S   tau( 115) = (   0.7500004   0.0000005  -0.3584711  )
       116           S   tau( 116) = (   0.8749985   0.0721690   0.1241551  )
       117           S   tau( 117) = (   0.7499983   0.1443365   0.6067200  )
       118           Mo  tau( 118) = (  -0.2500019   0.4330117   0.4823526  )
       119           Mo  tau( 119) = (   0.7500001   0.2886759  -0.4825273  )
       120           Mo  tau( 120) = (   0.6249978   0.3608437  -0.0000747  )
       121           S   tau( 121) = (   0.6250001   0.2165071  -0.6064556  )
       122           S   tau( 122) = (   0.7499983   0.2886752  -0.1241661  )
       123           S   tau( 123) = (   0.6249980   0.3608429   0.3582430  )
       124           S   tau( 124) = (   0.6250002   0.2165070  -0.3584711  )
       125           S   tau( 125) = (   0.7499981   0.2886752   0.1241547  )
       126           S   tau( 126) = (   0.6249982   0.3608428   0.6067202  )
       127           Mo  tau( 127) = (  -0.3750021   0.6495181   0.4823527  )
       128           Mo  tau( 128) = (   0.6249998   0.5051824  -0.4825273  )
       129           Mo  tau( 129) = (   0.4999969   0.5773509  -0.0000752  )
       130           S   tau( 130) = (   0.4999998   0.4330136  -0.6064556  )
       131           S   tau( 131) = (   0.6249978   0.5051817  -0.1241660  )
       132           S   tau( 132) = (   0.4999980   0.5773491   0.3582431  )
       133           S   tau( 133) = (   0.4999999   0.4330135  -0.3584711  )
       134           S   tau( 134) = (   0.6249975   0.5051818   0.1241544  )
       135           S   tau( 135) = (   0.4999981   0.5773491   0.6067201  )
       136           Mo  tau( 136) = (  -0.0000012  -0.0000013   0.4823527  )
       137           Mo  tau( 137) = (   0.4999996   0.7216889  -0.4825273  )
       138           Mo  tau( 138) = (   0.3749969   0.7938580  -0.0000749  )
       139           S   tau( 139) = (   0.3749996   0.6495201  -0.6064556  )
       140           S   tau( 140) = (   0.4999973   0.7216884  -0.1241666  )
       141           S   tau( 141) = (   0.3749976   0.7938558   0.3582430  )
       142           S   tau( 142) = (   0.3749996   0.6495200  -0.3584711  )
       143           S   tau( 143) = (   0.4999974   0.7216884   0.1241546  )
       144           S   tau( 144) = (   0.3749976   0.7938557   0.6067202  )
       145           Au  tau( 145) = (   0.1250067   0.3608311   0.8048942  )

     --------------------------------------------
     DFT-D3 Dispersion Correction (3-body terms):
     --------------------------------------------
       Reference C6 values for interpolation: 

         atom   Coordination number   C6
         S          0.000           268.01
         S          0.995           261.99
         S          1.990           251.62
         Mo         0.000          1691.79
         Mo         1.942          1004.01
         Mo        11.056           674.22
         Au         0.000           684.71
         Au         0.985           634.31

       Values used:

         atom   Coordination number  R0_AB[au]  C6      C8
         Mo        10.196            3.547    674.22  77634.20
         Mo        10.189            3.547    674.22  77634.20
         Mo        10.201            3.547    674.22  77634.20
         S          3.753            3.128    251.62  12327.25
         S          3.858            3.128    251.62  12327.25
         S          3.857            3.128    251.62  12327.25
         S          3.859            3.128    251.62  12327.25
         S          3.858            3.128    251.62  12327.25
         S          3.758            3.128    251.62  12327.25
         Mo        10.196            3.547    674.22  77634.20
         Mo        10.189            3.547    674.22  77634.20
         Mo        10.201            3.547    674.22  77634.20
         S          3.753            3.128    251.62  12327.25
         S          3.858            3.128    251.62  12327.25
         S          3.857            3.128    251.62  12327.25
         S          3.859            3.128    251.62  12327.25
         S          3.858            3.128    251.62  12327.25
         S          3.758            3.128    251.62  12327.25
         Mo        10.187            3.547    674.22  77634.20
         Mo        10.189            3.547    674.22  77634.20
         Mo        10.201            3.547    674.22  77634.20
         S          3.753            3.128    251.62  12327.25
         S          3.858            3.128    251.62  12327.25
         S          3.857            3.128    251.62  12327.25
         S          3.859            3.128    251.62  12327.25
         S          3.858            3.128    251.62  12327.25
         S          3.749            3.128    251.62  12327.25
         Mo        10.187            3.547    674.22  77634.20
         Mo        10.189            3.547    674.22  77634.20
         Mo        10.201            3.547    674.22  77634.20
         S          3.753            3.128    251.62  12327.25
         S          3.858            3.128    251.62  12327.25
         S          3.857            3.128    251.62  12327.25
         S          3.859            3.128    251.62  12327.25
         S          3.858            3.128    251.62  12327.25
         S          3.749            3.128    251.62  12327.25
         Mo        10.188            3.547    674.22  77634.20
         Mo        10.189            3.547    674.22  77634.20
         Mo        10.201            3.547    674.22  77634.20
         S          3.753            3.128    251.62  12327.25
         S          3.858            3.128    251.62  12327.25
         S          3.857            3.128    251.62  12327.25
         S          3.859            3.128    251.62  12327.25
         S          3.858            3.128    251.62  12327.25
         S          3.758            3.128    251.62  12327.25
         Mo        10.196            3.547    674.22  77634.20
         Mo        10.189            3.547    674.22  77634.20
         Mo        10.201            3.547    674.22  77634.20
         S          3.753            3.128    251.62  12327.25
         S          3.858            3.128    251.62  12327.25
         S          3.857            3.128    251.62  12327.25
         S          3.859            3.128    251.62  12327.25
         S          3.858            3.128    251.62  12327.25
         S          4.661            3.128    251.62  12327.25
         Mo        10.188            3.547    674.22  77634.20
         Mo        10.189            3.547    674.22  77634.20
         Mo        10.201            3.547    674.22  77634.20
         S          3.753            3.128    251.62  12327.25
         S          3.858            3.128    251.62  12327.25
         S          3.857            3.128    251.62  12327.25
         S          3.859            3.128    251.62  12327.25
         S          3.858            3.128    251.62  12327.25
         S          3.758            3.128    251.62  12327.25
         Mo        10.187            3.547    674.22  77634.20
         Mo        10.189            3.547    674.22  77634.20
         Mo        10.201            3.547    674.22  77634.20
         S          3.753            3.128    251.62  12327.25
         S          3.858            3.128    251.62  12327.25
         S          3.857            3.128    251.62  12327.25
         S          3.859            3.128    251.62  12327.25
         S          3.858            3.128    251.62  12327.25
         S          3.749            3.128    251.62  12327.25
         Mo        10.187            3.547    674.22  77634.20
         Mo        10.189            3.547    674.22  77634.20
         Mo        10.201            3.547    674.22  77634.20
         S          3.753            3.128    251.62  12327.25
         S          3.858            3.128    251.62  12327.25
         S          3.857            3.128    251.62  12327.25
         S          3.859            3.128    251.62  12327.25
         S          3.858            3.128    251.62  12327.25
         S          3.749            3.128    251.62  12327.25
         Mo        10.187            3.547    674.22  77634.20
         Mo        10.189            3.547    674.22  77634.20
         Mo        10.201            3.547    674.22  77634.20
         S          3.753            3.128    251.62  12327.25
         S          3.858            3.128    251.62  12327.25
         S          3.857            3.128    251.62  12327.25
         S          3.859            3.128    251.62  12327.25
         S          3.858            3.128    251.62  12327.25
         S          3.758            3.128    251.62  12327.25
         Mo        10.187            3.547    674.22  77634.20
         Mo        10.189            3.547    674.22  77634.20
         Mo        10.201            3.547    674.22  77634.20
         S          3.753            3.128    251.62  12327.25
         S          3.858            3.128    251.62  12327.25
         S          3.857            3.128    251.62  12327.25
         S          3.859            3.128    251.62  12327.25
         S          3.858            3.128    251.62  12327.25
         S          3.758            3.128    251.62  12327.25
         Mo        10.187            3.547    674.22  77634.20
         Mo        10.189            3.547    674.22  77634.20
         Mo        10.201            3.547    674.22  77634.20
         S          3.753            3.128    251.62  12327.25
         S          3.858            3.128    251.62  12327.25
         S          3.857            3.128    251.62  12327.25
         S          3.859            3.128    251.62  12327.25
         S          3.858            3.128    251.62  12327.25
         S          3.749            3.128    251.62  12327.25
         Mo        10.188            3.547    674.22  77634.20
         Mo        10.189            3.547    674.22  77634.20
         Mo        10.201            3.547    674.22  77634.20
         S          3.753            3.128    251.62  12327.25
         S          3.858            3.128    251.62  12327.25
         S          3.857            3.128    251.62  12327.25
         S          3.859            3.128    251.62  12327.25
         S          3.858            3.128    251.62  12327.25
         S          3.749            3.128    251.62  12327.25
         Mo        10.187            3.547    674.22  77634.20
         Mo        10.189            3.547    674.22  77634.20
         Mo        10.201            3.547    674.22  77634.20
         S          3.753            3.128    251.62  12327.25
         S          3.858            3.128    251.62  12327.25
         S          3.857            3.128    251.62  12327.25
         S          3.859            3.128    251.62  12327.25
         S          3.858            3.128    251.62  12327.25
         S          3.749            3.128    251.62  12327.25
         Mo        10.187            3.547    674.22  77634.20
         Mo        10.189            3.547    674.22  77634.20
         Mo        10.201            3.547    674.22  77634.20
         S          3.753            3.128    251.62  12327.25
         S          3.858            3.128    251.62  12327.25
         S          3.857            3.128    251.62  12327.25
         S          3.859            3.128    251.62  12327.25
         S          3.858            3.128    251.62  12327.25
         S          3.749            3.128    251.62  12327.25
         Mo        10.187            3.547    674.22  77634.20
         Mo        10.189            3.547    674.22  77634.20
         Mo        10.201            3.547    674.22  77634.20
         S          3.753            3.128    251.62  12327.25
         S          3.858            3.128    251.62  12327.25
         S          3.857            3.128    251.62  12327.25
         S          3.859            3.128    251.62  12327.25
         S          3.858            3.128    251.62  12327.25
         S          3.749            3.128    251.62  12327.25
         Au         1.014            3.077    635.09  62045.54

         Molecular C6 ( Ry / a.u.^6 ) =   7797448.82


     number of k points=     4  Gaussian smearing, width (Ry)=  0.0100
                       cart. coord. in units 2pi/alat
        k(    1) = (   0.0000000   0.0000000   0.0000000), wk =   0.5000000
        k(    2) = (   0.0000000  -0.5773499   0.0000000), wk =   0.5000000
        k(    3) = (  -0.5000000  -0.2886755   0.0000000), wk =   0.5000000
        k(    4) = (  -0.5000000  -0.8660254   0.0000000), wk =   0.5000000

     Dense  grid:  5955087 G-vectors     FFT dimensions: ( 180, 180, 432)

     Smooth grid:  2572543 G-vectors     FFT dimensions: ( 135, 135, 320)

     Estimated max dynamical RAM per process >       3.05 GB

     Estimated total dynamical RAM >     109.87 GB

     Initial potential from superposition of free atoms

     starting charge    1280.9545, renormalised to    1281.0000

     negative rho (up, down):  7.046E-04 0.000E+00
     Starting wfcs are  884 randomized atomic wfcs
     Checking if some PAW data can be deallocated... 

     total cpu time spent up to now is      108.5 secs

     Self-consistent Calculation

     iteration #  1     ecut=    77.00 Ry     beta= 0.20
     Davidson diagonalization with overlap
     ethr =  1.00E-02,  avg # of iterations =  2.0

     Threshold (ethr) on eigenvalues was too large:
     Diagonalizing with lowered threshold

     Davidson diagonalization with overlap
     ethr =  1.35E-04,  avg # of iterations = 18.2

     negative rho (up, down):  2.021E-04 0.000E+00

     total cpu time spent up to now is     1363.7 secs

     total energy              =  -25622.20094887 Ry
     estimated scf accuracy    <       5.63021114 Ry

     iteration #  2     ecut=    77.00 Ry     beta= 0.20
     Davidson diagonalization with overlap
     ethr =  4.40E-04,  avg # of iterations =  2.0

     negative rho (up, down):  9.354E-05 0.000E+00

     total cpu time spent up to now is     1596.0 secs

     total energy              =  -25621.69934651 Ry
     estimated scf accuracy    <       3.41231543 Ry

     iteration #  3     ecut=    77.00 Ry     beta= 0.20
     Davidson diagonalization with overlap
     ethr =  2.66E-04,  avg # of iterations =  4.0

     negative rho (up, down):  5.451E-05 0.000E+00

     total cpu time spent up to now is     1834.3 secs

     total energy              =  -25620.40651029 Ry
     estimated scf accuracy    <      12.88972249 Ry

     iteration #  4     ecut=    77.00 Ry     beta= 0.20
     Davidson diagonalization with overlap
     ethr =  2.66E-04,  avg # of iterations =  2.0

     negative rho (up, down):  2.041E-05 0.000E+00

     total cpu time spent up to now is     2066.6 secs

     total energy              =  -25621.52010380 Ry
     estimated scf accuracy    <       1.73881500 Ry

     iteration #  5     ecut=    77.00 Ry     beta= 0.20
     Davidson diagonalization with overlap
     ethr =  1.36E-04,  avg # of iterations =  5.2

     negative rho (up, down):  3.159E-05 0.000E+00

     total cpu time spent up to now is     2426.3 secs

     total energy              =  -25622.25054400 Ry
     estimated scf accuracy    <       0.47573968 Ry

     iteration #  6     ecut=    77.00 Ry     beta= 0.20
     Davidson diagonalization with overlap
     c_bands:  4 eigenvalues not converged
     ethr =  3.71E-05,  avg # of iterations = 37.2

     negative rho (up, down):  6.472E-05 0.000E+00

     total cpu time spent up to now is     3136.8 secs

     total energy              =  -25622.34673749 Ry
     estimated scf accuracy    <       0.58494175 Ry

     iteration #  7     ecut=    77.00 Ry     beta= 0.20
     Davidson diagonalization with overlap
     ethr =  3.71E-05,  avg # of iterations =  3.5

     negative rho (up, down):  2.958E-04 0.000E+00

     total cpu time spent up to now is     3363.3 secs

     total energy              =  -25622.34385212 Ry
     estimated scf accuracy    <       0.16492488 Ry

     iteration #  8     ecut=    77.00 Ry     beta= 0.20
     Davidson diagonalization with overlap
     c_bands:  4 eigenvalues not converged
     ethr =  1.29E-05,  avg # of iterations = 14.0

     negative rho (up, down):  4.102E-04 0.000E+00

     total cpu time spent up to now is     3758.1 secs

     total energy              =  -25622.42762061 Ry
     estimated scf accuracy    <       0.08277550 Ry

     iteration #  9     ecut=    77.00 Ry     beta= 0.20
     Davidson diagonalization with overlap
     c_bands:  3 eigenvalues not converged
     c_bands:  3 eigenvalues not converged
     c_bands:  4 eigenvalues not converged
     c_bands:  1 eigenvalues not converged
     ethr =  6.46E-06,  avg # of iterations = 35.0

     negative rho (up, down):  3.273E-04 0.000E+00

     total cpu time spent up to now is     4322.1 secs

     total energy              =  -25622.41605948 Ry
     estimated scf accuracy    <       0.05941252 Ry

     iteration # 10     ecut=    77.00 Ry     beta= 0.20
     Davidson diagonalization with overlap
     c_bands:  1 eigenvalues not converged
     c_bands:  3 eigenvalues not converged
     ethr =  4.64E-06,  avg # of iterations = 14.5

     negative rho (up, down):  3.356E-04 0.000E+00

     total cpu time spent up to now is     4605.5 secs

     total energy              =  -25622.42216400 Ry
     estimated scf accuracy    <       0.00772519 Ry

     iteration # 11     ecut=    77.00 Ry     beta= 0.20
     Davidson diagonalization with overlap
     c_bands:  4 eigenvalues not converged
     c_bands:  1 eigenvalues not converged
     c_bands:  1 eigenvalues not converged
     ethr =  6.03E-07,  avg # of iterations = 20.5

     negative rho (up, down):  3.865E-04 0.000E+00

     total cpu time spent up to now is     5789.4 secs

     total energy              =  -25622.44302068 Ry
     estimated scf accuracy    <       0.03337550 Ry

     iteration # 12     ecut=    77.00 Ry     beta= 0.20
     Davidson diagonalization with overlap
     c_bands:  4 eigenvalues not converged
     ethr =  6.03E-07,  avg # of iterations =  9.0

     negative rho (up, down):  5.040E-04 0.000E+00

     total cpu time spent up to now is     6066.2 secs

     total energy              =  -25622.43629644 Ry
     estimated scf accuracy    <       0.01549430 Ry

     iteration # 13     ecut=    77.00 Ry     beta= 0.20
     Davidson diagonalization with overlap
     c_bands:  4 eigenvalues not converged
     ethr =  6.03E-07,  avg # of iterations =  9.5

     negative rho (up, down):  6.519E-04 0.000E+00

     total cpu time spent up to now is     6477.1 secs

     total energy              =  -25622.44189665 Ry
     estimated scf accuracy    <       0.00139204 Ry

     iteration # 14     ecut=    77.00 Ry     beta= 0.20
     Davidson diagonalization with overlap
     ethr =  1.09E-07,  avg # of iterations = 14.8

     negative rho (up, down):  6.251E-04 0.000E+00

     total cpu time spent up to now is     7340.4 secs

     total energy              =  -25622.44153741 Ry
     estimated scf accuracy    <       0.00826325 Ry

     iteration # 15     ecut=    77.00 Ry     beta= 0.20
     Davidson diagonalization with overlap
     ethr =  1.09E-07,  avg # of iterations =  9.0

     negative rho (up, down):  6.845E-04 0.000E+00

     total cpu time spent up to now is     7741.2 secs

     total energy              =  -25622.44241878 Ry
     estimated scf accuracy    <       0.00066348 Ry

     iteration # 16     ecut=    77.00 Ry     beta= 0.20
     Davidson diagonalization with overlap
     ethr =  5.18E-08,  avg # of iterations =  9.2

     negative rho (up, down):  7.377E-04 0.000E+00

     total cpu time spent up to now is     8209.2 secs

     total energy              =  -25622.44299930 Ry
     estimated scf accuracy    <       0.00043723 Ry

     iteration # 17     ecut=    77.00 Ry     beta= 0.20
     Davidson diagonalization with overlap
     ethr =  3.41E-08,  avg # of iterations =  2.5

     negative rho (up, down):  7.804E-04 0.000E+00

     total cpu time spent up to now is     8444.2 secs

     total energy              =  -25622.44289793 Ry
     estimated scf accuracy    <       0.00017882 Ry

     iteration # 18     ecut=    77.00 Ry     beta= 0.20
     Davidson diagonalization with overlap
     c_bands:  1 eigenvalues not converged
     ethr =  1.40E-08,  avg # of iterations = 19.0

     negative rho (up, down):  7.926E-04 0.000E+00

     total cpu time spent up to now is     8950.9 secs

     total energy              =  -25622.44301444 Ry
     estimated scf accuracy    <       0.00003114 Ry

     iteration # 19     ecut=    77.00 Ry     beta= 0.20
     Davidson diagonalization with overlap
     c_bands:  1 eigenvalues not converged
     c_bands:  5 eigenvalues not converged
     ethr =  2.43E-09,  avg # of iterations = 23.2

     negative rho (up, down):  7.942E-04 0.000E+00

     total cpu time spent up to now is     9612.0 secs

     total energy              =  -25622.44304885 Ry
     estimated scf accuracy    <       0.00002030 Ry

     iteration # 20     ecut=    77.00 Ry     beta= 0.20
     Davidson diagonalization with overlap
     ethr =  1.58E-09,  avg # of iterations = 10.0

     negative rho (up, down):  8.078E-04 0.000E+00

     total cpu time spent up to now is     9904.3 secs

     total energy              =  -25622.44304839 Ry
     estimated scf accuracy    <       0.00000236 Ry

     iteration # 21     ecut=    77.00 Ry     beta= 0.20
     Davidson diagonalization with overlap
     c_bands:  1 eigenvalues not converged
     c_bands:  3 eigenvalues not converged
     c_bands:  5 eigenvalues not converged
     ethr =  1.84E-10,  avg # of iterations = 19.5

     negative rho (up, down):  8.138E-04 0.000E+00

     total cpu time spent up to now is    10706.9 secs

     total energy              =  -25622.44305141 Ry
     estimated scf accuracy    <       0.00000269 Ry

     iteration # 22     ecut=    77.00 Ry     beta= 0.20
     Davidson diagonalization with overlap
     ethr =  1.84E-10,  avg # of iterations =  6.0

     negative rho (up, down):  8.210E-04 0.000E+00

     total cpu time spent up to now is    10957.7 secs

     End of self-consistent calculation

          k = 0.0000 0.0000 0.0000 (321495 PWs)   bands (ev):

  -108.7903 -81.5752 -81.5712 -81.5712 -81.5615 -81.5615 -81.5512 -81.5512
   -66.8791 -66.8580 -66.8580 -66.8580 -66.8580 -66.8580 -66.8579 -66.8368
   -66.8368 -66.8368 -66.8368 -66.8368 -66.8368 -66.8368 -66.8367 -66.8367
   -66.8134 -66.7927 -66.7924 -66.7924 -66.7921 -66.7921 -66.7919 -66.7715
   -66.7715 -66.7714 -66.7712 -66.7712 -66.7709 -66.7709 -66.7707 -66.7704
   -66.7530 -66.7342 -66.7332 -66.7332 -66.7295 -66.7295 -66.7288 -66.7141
   -66.7141 -66.7124 -66.7093 -66.7093 -66.7077 -66.7077 -66.7068 -66.7062
   -60.3463 -60.0779 -60.0779 -41.2055 -41.2055 -41.2055 -41.1386 -41.1386
   -41.1386 -41.1307 -41.1307 -41.1307 -41.1307 -41.1307 -41.1307 -41.0772
   -41.0772 -41.0749 -41.0640 -41.0639 -41.0638 -41.0638 -41.0637 -41.0637
   -41.0392 -41.0051 -41.0051 -41.0051 -41.0051 -41.0051 -41.0051 -41.0032
   -41.0023 -41.0023 -41.0015 -41.0001 -41.0001 -40.9978 -40.9978 -40.9978
   -40.9978 -40.9978 -40.9978 -40.9740 -40.9703 -40.9703 -40.9703 -40.9703
   -40.9702 -40.9702 -40.9561 -40.9561 -40.9561 -40.9561 -40.9561 -40.9561
   -40.9560 -40.9560 -40.9560 -40.9386 -40.9385 -40.9385 -40.9383 -40.9383
   -40.9382 -40.9330 -40.9328 -40.9328 -40.9325 -40.9325 -40.9322 -40.9146
   -40.9038 -40.9038 -40.9036 -40.9036 -40.9034 -40.9034 -40.8925 -40.8925
   -40.8925 -40.8914 -40.8914 -40.8913 -40.8911 -40.8911 -40.8908 -40.8908
   -40.8907 -40.8902 -40.8809 -40.8786 -40.8786 -40.8767 -40.8767 -40.8765
   -40.8732 -40.8732 -40.8727 -40.8690 -40.8690 -40.8679 -40.8457 -40.8457
   -40.8456 -40.8456 -40.8456 -40.8456 -40.8440 -40.8431 -40.8431 -40.8425
   -40.8398 -40.8398 -40.8361 -40.8361 -40.8322 -40.8284 -40.8284 -40.8266
   -40.8266 -40.8259 -40.8259 -40.8259 -40.8259 -40.8250 -40.7984 -40.7984
   -40.7792 -40.7792 -40.7792 -40.7791 -40.7791 -40.7789 -40.7648 -40.7632
   -40.7632 -40.7319 -40.7319 -40.7184 -40.7181 -40.7181 -40.7157 -40.7157
   -40.7153 -40.6695 -40.6695 -20.3105 -20.1883 -20.0566 -19.4502 -19.4437
   -19.4437 -19.4437 -19.4436 -19.4436 -19.3792 -19.3283 -19.3283 -19.3273
   -19.3273 -19.3271 -19.2607 -19.1976 -19.1976 -19.1947 -19.1947 -19.1943
   -19.0502 -18.8589 -18.7081 -18.6567 -18.6433 -18.6433 -18.6429 -18.6429
   -18.6428 -18.5562 -18.4868 -18.4868 -18.4853 -18.4853 -18.4851 -18.4069
   -18.3510 -18.3510 -18.3489 -18.3489 -18.3485 -18.3388 -18.3388 -18.3388
   -18.3388 -18.3387 -18.3387 -18.2985 -18.2984 -18.2984 -18.2715 -18.2611
   -18.2606 -18.2606 -18.2600 -18.2600 -18.2364 -18.2283 -18.2283 -18.2227
   -18.1727 -18.1713 -18.1713 -18.1702 -18.1702 -18.1567 -18.1541 -18.1541
   -18.1362 -18.1177 -18.1177 -18.1115 -18.1066 -18.1058 -18.1058 -18.1053
   -18.1053 -18.0726 -18.0587 -18.0587 -18.0457 -18.0318 -18.0308 -18.0308
   -18.0303 -18.0303 -18.0008 -17.9786 -17.9786 -17.9596 -17.9499 -17.9470
   -17.9470 -17.9457 -17.9456 -12.1270 -11.9551 -11.9550 -11.9550 -11.8814
   -11.8807 -11.8807 -11.7962 -11.7874 -11.7874 -11.7494 -11.4519 -11.4003
   -11.4003 -11.3995 -11.3995 -11.3995 -11.3429 -11.3272 -11.3272 -11.3264
   -11.3264 -11.3264 -11.3238 -11.2258 -11.2074 -11.2074 -11.1997 -11.1997
   -11.1994 -11.1813 -11.1151 -11.1151 -11.1045 -11.1045 -11.1044 -11.0967
   -11.0967 -11.0878 -11.0868 -11.0868 -11.0859 -11.0308 -11.0308 -11.0300
   -11.0299 -11.0299 -11.0298 -11.0028 -11.0028 -11.0025 -10.9850 -10.9850
   -10.9820 -10.9793 -10.9793 -10.9792 -10.9479 -10.9478 -10.9210 -10.9185
   -10.9185 -10.9105 -10.9086 -10.9074 -10.9074 -10.8859 -10.7965 -10.7965
   -10.7847 -10.7846 -10.7846 -10.7805 -10.7805 -10.7766 -10.3210 -10.2476
   -10.2475 -10.2411 -10.1006 -10.1006 -10.0766  -9.9733  -9.9733  -9.9699
    -9.9688  -9.9688  -9.9686  -9.9433  -9.9433  -9.8853  -9.8807  -9.8807
    -9.8730  -9.8730  -9.8727  -9.8659  -9.8207  -9.8207  -9.8172  -9.8170
    -9.8170  -9.8151  -9.7729  -9.7729  -9.7729  -9.7728  -9.7728  -9.7704
    -9.7262  -9.7262  -9.7189  -9.7181  -9.7181  -9.7129  -9.6856  -9.6856
    -9.6844  -9.6844  -9.6817  -9.6338  -9.6232  -9.6232  -9.6217  -9.6210
    -9.6210  -9.5254  -9.5051  -9.5051  -9.4954  -9.4950  -9.4950  -9.4608
    -9.3876  -9.3876  -9.3800  -9.3796  -9.3796  -9.3730  -9.3730  -9.3659
    -9.3631  -9.3631  -9.3625  -9.2190  -9.2173  -9.2173  -9.2173  -9.2093
    -9.2093  -9.1973  -9.1973  -9.1971  -9.1445  -9.1445  -9.1437  -9.0795
    -9.0795  -9.0629  -9.0482  -9.0482  -9.0388  -9.0371  -9.0371  -9.0364
    -8.9953  -8.9939  -8.9939  -8.9929  -8.9929  -8.9929  -8.9327  -8.9152
    -8.9152  -8.9135  -8.9135  -8.9135  -8.8686  -8.8686  -8.8483  -8.8480
    -8.8480  -8.8401  -8.6283  -8.6283  -8.6129  -8.5561  -8.5561  -8.5162
    -8.5161  -8.5161  -8.5161  -8.5161  -8.5161  -8.4883  -8.4883  -8.4456
    -8.4456  -8.4447  -8.4446  -8.4446  -8.4444  -8.3835  -8.3835  -8.3658
    -8.3654  -8.3654  -8.3633  -8.3284  -8.1617  -8.1617  -8.1298  -7.9237
    -7.9237  -7.8910  -7.8359  -7.7808  -7.7808  -7.7807  -7.7806  -7.7806
    -7.7806  -7.7359  -7.7359  -7.7344  -7.7344  -7.7344  -7.7341  -7.7200
    -7.7200  -7.7073  -7.7071  -7.7071  -7.7070  -7.7008  -7.7007  -7.6684
    -7.6656  -7.6656  -7.6626  -7.6623  -7.6623  -7.6598  -7.6598  -7.6464
    -7.6284  -7.6271  -7.6271  -7.6255  -7.6145  -7.6145  -7.6141  -7.6141
    -7.6139  -7.6069  -7.5763  -7.5763  -7.5548  -7.5548  -7.5548  -7.4994
    -7.4994  -7.4313  -7.4313  -7.4050  -7.3794  -7.3794  -7.3518  -7.3518
    -7.3465  -7.3465  -7.3455  -7.2271  -7.2271  -7.1455  -7.0330  -7.0310
    -7.0310  -7.0248  -7.0248  -7.0188  -7.0016  -7.0005  -7.0005  -6.9629
    -6.9629  -6.8962  -6.8925  -6.8925  -6.8537  -6.8057  -6.8050  -6.8050
    -6.8028  -6.8028  -6.7874  -6.7808  -6.7807  -6.7807  -6.7177  -6.7177
    -6.7145  -6.6951  -6.6947  -6.6947  -6.6926  -6.6926  -6.6865  -6.6247
    -6.6247  -6.6224  -6.6149  -6.6149  -6.6127  -6.6104  -6.6104  -6.5986
    -6.5474  -6.5474  -6.5474  -6.5474  -6.5474  -6.5474  -6.5346  -6.5346
    -6.5020  -6.4710  -6.4710  -6.4708  -6.4707  -6.4707  -6.4704  -6.3980
    -6.3980  -6.3959  -6.3931  -6.3931  -6.3892  -6.3275  -5.7094  -5.3590
    -4.8892  -4.0314  -4.0314  -4.0288  -4.0287  -4.0287  -4.0150  -3.9965
    -3.9965  -3.9954  -3.9954  -3.9953  -3.9872  -3.7837  -3.7836  -3.7727
    -3.7727  -3.7718  -3.7691  -3.7680  -3.7680  -3.7633  -3.7633  -3.7630
    -3.6974  -3.6879  -3.6879  -3.6878  -3.6709  -3.6708  -3.6703  -3.6702
    -3.6702  -3.6701  -3.6212  -3.6212  -3.6211  -3.5737  -3.5737  -3.5682
    -3.5681  -3.5680  -3.5675  -3.5577  -3.5577  -3.5531  -3.5530  -3.5527
    -3.5509  -3.5508  -3.5499  -3.5401  -3.4722  -3.4721  -3.4593  -3.4592
    -3.4591  -3.4583  -3.4408  -3.4408  -3.4298  -3.4297  -3.4296  -3.3616
    -3.2223  -3.2222  -3.2222  -3.2167  -3.2166  -3.1509  -3.1508  -3.1501
    -3.1500  -3.1490  -3.1485  -3.1484  -3.1482  -3.1271  -3.1270  -3.1265
    -3.1005  -3.1005  -3.0925  -3.0925  -3.0922  -3.0818  -3.0817  -3.0792
    -3.0790  -3.0777  -3.0776  -3.0768  -3.0765  -3.0726  -3.0384  -3.0383
    -3.0330  -2.9712  -2.9707  -2.9661  -2.9656  -2.9639  -2.9627  -2.9616
    -2.9584  -2.9333  -2.9301  -2.9278  -2.9263  -2.9231  -2.9193  -2.8961
    -2.8958  -2.8366  -2.8365  -2.8328  -2.8327  -2.8312  -2.8213  -2.8212
    -2.8166  -2.7491  -2.7091  -2.6606  -2.6582  -2.6570  -2.6562  -2.6558
    -2.6546

          k = 0.0000-0.5773 0.0000 (321564 PWs)   bands (ev):

  -108.7903 -81.5752 -81.5712 -81.5712 -81.5615 -81.5615 -81.5512 -81.5512
   -66.8729 -66.8729 -66.8623 -66.8623 -66.8474 -66.8474 -66.8474 -66.8474
   -66.8430 -66.8430 -66.8368 -66.8368 -66.8368 -66.8368 -66.8324 -66.8324
   -66.8074 -66.8070 -66.7967 -66.7966 -66.7817 -66.7817 -66.7817 -66.7816
   -66.7775 -66.7771 -66.7714 -66.7712 -66.7710 -66.7707 -66.7667 -66.7667
   -66.7485 -66.7450 -66.7360 -66.7353 -66.7226 -66.7217 -66.7216 -66.7202
   -66.7163 -66.7147 -66.7122 -66.7109 -66.7079 -66.7079 -66.7043 -66.7042
   -60.3463 -60.0779 -60.0779 -41.1741 -41.1741 -41.1741 -41.1741 -41.1474
   -41.1474 -41.1355 -41.1355 -41.1075 -41.1073 -41.1071 -41.1069 -41.0851
   -41.0851 -41.0851 -41.0851 -41.0807 -41.0804 -41.0687 -41.0686 -41.0484
   -41.0458 -41.0431 -41.0429 -41.0271 -41.0271 -41.0204 -41.0183 -41.0183
   -41.0183 -41.0183 -41.0171 -41.0171 -41.0171 -41.0064 -41.0064 -41.0064
   -41.0057 -40.9770 -40.9770 -40.9770 -40.9769 -40.9683 -40.9683 -40.9621
   -40.9617 -40.9571 -40.9564 -40.9561 -40.9561 -40.9561 -40.9561 -40.9561
   -40.9560 -40.9556 -40.9551 -40.9505 -40.9505 -40.9474 -40.9474 -40.9412
   -40.9412 -40.9254 -40.9254 -40.9254 -40.9254 -40.9119 -40.9119 -40.9118
   -40.9118 -40.9056 -40.9034 -40.9030 -40.8991 -40.8913 -40.8911 -40.8909
   -40.8909 -40.8909 -40.8909 -40.8909 -40.8906 -40.8895 -40.8895 -40.8889
   -40.8880 -40.8824 -40.8823 -40.8807 -40.8806 -40.8788 -40.8788 -40.8596
   -40.8596 -40.8590 -40.8589 -40.8587 -40.8585 -40.8559 -40.8537 -40.8522
   -40.8495 -40.8431 -40.8427 -40.8427 -40.8395 -40.8337 -40.8330 -40.8271
   -40.8271 -40.8267 -40.8266 -40.8243 -40.8243 -40.8243 -40.8243 -40.8203
   -40.8196 -40.8124 -40.8123 -40.8123 -40.8120 -40.7991 -40.7969 -40.7953
   -40.7952 -40.7932 -40.7929 -40.7762 -40.7762 -40.7632 -40.7628 -40.7612
   -40.7611 -40.7515 -40.7483 -40.7459 -40.7455 -40.7321 -40.7298 -40.7139
   -40.7135 -40.6851 -40.6818 -20.0747 -20.0733 -19.9611 -19.9478 -19.8369
   -19.8094 -19.6398 -19.6388 -19.5300 -19.5193 -19.4113 -19.3850 -18.9624
   -18.9364 -18.9315 -18.9310 -18.9310 -18.9310 -18.8765 -18.8285 -18.8284
   -18.8283 -18.8011 -18.7451 -18.7375 -18.7330 -18.7264 -18.7079 -18.7074
   -18.7072 -18.6836 -18.6834 -18.6155 -18.5912 -18.5894 -18.5791 -18.5693
   -18.5647 -18.5041 -18.4798 -18.4386 -18.4191 -18.4064 -18.4020 -18.4019
   -18.4018 -18.3243 -18.3191 -18.3191 -18.3190 -18.3187 -18.2959 -18.2916
   -18.2767 -18.2765 -18.2764 -18.2481 -18.2448 -18.2446 -18.2445 -18.2247
   -18.1909 -18.1857 -18.1652 -18.1650 -18.1648 -18.1627 -18.1624 -18.1618
   -18.1606 -18.1240 -18.1125 -18.1123 -18.1113 -18.1001 -18.0919 -18.0561
   -18.0555 -18.0555 -18.0447 -18.0446 -18.0438 -17.9963 -17.9962 -17.9909
   -17.9800 -17.9799 -17.9641 -17.9624 -17.9601 -17.9394 -17.9392 -17.9057
   -17.9008 -17.8588 -17.8421 -11.8783 -11.8601 -11.6671 -11.6668 -11.6662
   -11.6662 -11.6442 -11.6417 -11.6033 -11.5872 -11.5819 -11.5812 -11.5716
   -11.5313 -11.5265 -11.5014 -11.4802 -11.4761 -11.4705 -11.4692 -11.4688
   -11.4669 -11.4483 -11.4483 -11.4237 -11.4059 -11.4028 -11.4027 -11.3471
   -11.3427 -11.3426 -11.3420 -11.3288 -11.3246 -11.2264 -11.1646 -11.1644
   -11.1608 -11.1488 -11.1270 -11.1048 -11.1043 -11.0826 -11.0522 -11.0443
   -11.0400 -11.0224 -11.0221 -11.0219 -11.0218 -10.9993 -10.9944 -10.9936
   -10.9831 -10.9616 -10.9593 -10.9579 -10.9578 -10.9540 -10.9388 -10.8788
   -10.8657 -10.8478 -10.8436 -10.7717 -10.7340 -10.6822 -10.6811 -10.5632
   -10.5567 -10.4614 -10.3960 -10.3138 -10.3123 -10.3119 -10.3113 -10.3048
   -10.2176 -10.2122 -10.2103 -10.2100 -10.1266 -10.1261 -10.1259 -10.1229
   -10.1003 -10.0912 -10.0876 -10.0851 -10.0826 -10.0820 -10.0819 -10.0667
    -9.9768  -9.9748  -9.9741  -9.9606  -9.9340  -9.9317  -9.9307  -9.9159
    -9.8986  -9.8983  -9.8982  -9.8917  -9.8220  -9.8167  -9.8155  -9.8138
    -9.8129  -9.8012  -9.7970  -9.7969  -9.7964  -9.7832  -9.7711  -9.7194
    -9.7189  -9.6887  -9.6594  -9.6590  -9.6503  -9.6464  -9.6450  -9.6021
    -9.5949  -9.4999  -9.4721  -9.4307  -9.4264  -9.3637  -9.3250  -9.3237
    -9.3229  -9.3189  -9.3156  -9.3149  -9.3147  -9.2975  -9.2938  -9.2298
    -9.2008  -9.1976  -9.1931  -9.1831  -9.1782  -9.1678  -9.1477  -9.1448
    -9.1423  -9.1285  -9.1239  -9.1221  -9.1213  -9.1053  -9.1005  -9.0983
    -9.0881  -9.0873  -9.0869  -9.0634  -9.0607  -9.0477  -9.0442  -9.0309
    -9.0309  -9.0171  -9.0006  -9.0002  -8.9970  -8.9864  -8.9738  -8.9715
    -8.9676  -8.9588  -8.9577  -8.9257  -8.9127  -8.9085  -8.9051  -8.8836
    -8.8744  -8.7041  -8.7040  -8.6361  -8.6260  -8.6225  -8.5859  -8.5672
    -8.5560  -8.3847  -8.3847  -8.3468  -8.3133  -8.3129  -8.2699  -8.2522
    -8.2379  -8.2368  -8.1245  -8.1233  -8.0609  -8.0593  -8.0577  -8.0544
    -8.0400  -8.0394  -8.0380  -8.0380  -8.0336  -8.0279  -7.9922  -7.9921
    -7.9918  -7.9918  -7.9730  -7.9686  -7.9664  -7.9551  -7.9514  -7.9510
    -7.9498  -7.9353  -7.9225  -7.9191  -7.9189  -7.9160  -7.8918  -7.8917
    -7.8901  -7.8864  -7.8855  -7.8800  -7.8698  -7.8528  -7.8527  -7.8475
    -7.8334  -7.8322  -7.8266  -7.8257  -7.8252  -7.8017  -7.7885  -7.7834
    -7.7828  -7.7749  -7.7637  -7.7593  -7.7576  -7.7236  -7.7054  -7.7002
    -7.6465  -7.6300  -7.6300  -7.5608  -7.5128  -7.4342  -7.4326  -7.4297
    -7.4288  -7.3603  -7.3435  -7.3116  -7.3055  -7.2974  -7.2907  -7.2421
    -7.2299  -7.2044  -7.2028  -7.2015  -7.1365  -7.1354  -7.1295  -7.1283
    -7.1244  -7.1149  -7.1081  -7.1006  -7.0983  -7.0223  -7.0189  -7.0187
    -6.9959  -6.9899  -6.9736  -6.9664  -6.9482  -6.9058  -6.8964  -6.8520
    -6.8496  -6.8496  -6.8496  -6.8482  -6.8008  -6.7828  -6.7827  -6.7824
    -6.7823  -6.7670  -6.7360  -6.7099  -6.7084  -6.7071  -6.6929  -6.6914
    -6.6860  -6.6405  -6.5842  -6.5817  -6.5182  -6.5182  -6.5182  -6.5181
    -6.4521  -6.4512  -6.4398  -6.4396  -6.4389  -6.4387  -6.3962  -6.3830
    -6.3769  -6.3617  -6.3606  -6.3567  -6.3494  -6.3466  -6.1695  -6.1695
    -6.0946  -6.0945  -6.0205  -6.0205  -5.9398  -5.9254  -5.7535  -5.7457
    -4.8650  -4.2063  -4.2057  -4.2049  -4.1953  -4.0850  -4.0850  -4.0649
    -4.0581  -4.0205  -4.0204  -3.9575  -3.9537  -3.9500  -3.9498  -3.9471
    -3.9285  -3.8645  -3.8424  -3.7870  -3.7863  -3.7861  -3.7852  -3.7703
    -3.7702  -3.7254  -3.7221  -3.7191  -3.7094  -3.6954  -3.6948  -3.6773
    -3.6659  -3.6651  -3.6601  -3.6585  -3.6568  -3.6563  -3.6425  -3.6144
    -3.6107  -3.5532  -3.5492  -3.5483  -3.5452  -3.5385  -3.5383  -3.5108
    -3.5086  -3.5017  -3.5011  -3.4631  -3.4616  -3.4613  -3.4613  -3.4607
    -3.4512  -3.4363  -3.4338  -3.4298  -3.4234  -3.3966  -3.3954  -3.3929
    -3.3923  -3.3906  -3.3844  -3.3727  -3.3491  -3.3143  -3.3003  -3.2975
    -3.2949  -3.2941  -3.2580  -3.2574  -3.2450  -3.2198  -3.2195  -3.2082
    -3.1981  -3.1980  -3.1979  -3.1978  -3.1906  -3.1657  -3.1621  -3.1489
    -3.1488  -3.1393  -3.1365  -3.1065  -3.1063  -3.1054  -3.1048  -3.0829
    -3.0807  -3.0651  -3.0527  -3.0457  -3.0435  -3.0386  -3.0275  -3.0004
    -2.9959  -2.9956  -2.9913  -2.9889  -2.9885  -2.9134  -2.9128  -2.8744
    -2.8738  -2.8336  -2.8156  -2.8134  -2.8124  -2.8093  -2.7845  -2.7518
    -2.6855  -2.6756  -2.6745  -2.6738  -2.6728  -2.6687  -2.5245  -2.5228
    -2.4640

          k =-0.5000-0.2887 0.0000 (321564 PWs)   bands (ev):

  -108.7903 -81.5752 -81.5712 -81.5712 -81.5615 -81.5615 -81.5512 -81.5512
   -66.8729 -66.8729 -66.8623 -66.8623 -66.8474 -66.8474 -66.8474 -66.8474
   -66.8430 -66.8430 -66.8368 -66.8368 -66.8368 -66.8368 -66.8324 -66.8324
   -66.8074 -66.8070 -66.7966 -66.7966 -66.7817 -66.7817 -66.7817 -66.7816
   -66.7775 -66.7771 -66.7714 -66.7712 -66.7710 -66.7707 -66.7667 -66.7667
   -66.7485 -66.7450 -66.7360 -66.7353 -66.7225 -66.7217 -66.7216 -66.7202
   -66.7163 -66.7147 -66.7122 -66.7109 -66.7079 -66.7079 -66.7043 -66.7042
   -60.3463 -60.0779 -60.0779 -41.1741 -41.1741 -41.1741 -41.1741 -41.1474
   -41.1474 -41.1355 -41.1355 -41.1075 -41.1073 -41.1071 -41.1069 -41.0851
   -41.0851 -41.0851 -41.0851 -41.0807 -41.0804 -41.0687 -41.0686 -41.0484
   -41.0458 -41.0431 -41.0429 -41.0271 -41.0271 -41.0204 -41.0183 -41.0183
   -41.0183 -41.0183 -41.0171 -41.0171 -41.0171 -41.0064 -41.0064 -41.0064
   -41.0057 -40.9770 -40.9770 -40.9769 -40.9769 -40.9683 -40.9683 -40.9621
   -40.9618 -40.9571 -40.9564 -40.9561 -40.9561 -40.9561 -40.9561 -40.9560
   -40.9560 -40.9556 -40.9551 -40.9505 -40.9505 -40.9474 -40.9474 -40.9412
   -40.9412 -40.9254 -40.9254 -40.9254 -40.9254 -40.9119 -40.9119 -40.9118
   -40.9118 -40.9056 -40.9034 -40.9030 -40.8991 -40.8913 -40.8911 -40.8909
   -40.8909 -40.8909 -40.8909 -40.8909 -40.8906 -40.8895 -40.8895 -40.8889
   -40.8880 -40.8824 -40.8823 -40.8807 -40.8806 -40.8788 -40.8788 -40.8596
   -40.8596 -40.8590 -40.8589 -40.8587 -40.8585 -40.8559 -40.8537 -40.8522
   -40.8495 -40.8431 -40.8427 -40.8427 -40.8395 -40.8337 -40.8330 -40.8271
   -40.8271 -40.8267 -40.8266 -40.8243 -40.8243 -40.8243 -40.8243 -40.8203
   -40.8196 -40.8124 -40.8123 -40.8123 -40.8120 -40.7991 -40.7969 -40.7953
   -40.7952 -40.7932 -40.7929 -40.7762 -40.7762 -40.7632 -40.7628 -40.7612
   -40.7611 -40.7515 -40.7483 -40.7459 -40.7456 -40.7321 -40.7298 -40.7139
   -40.7135 -40.6851 -40.6818 -20.0747 -20.0733 -19.9611 -19.9478 -19.8369
   -19.8094 -19.6398 -19.6388 -19.5300 -19.5193 -19.4113 -19.3850 -18.9624
   -18.9364 -18.9315 -18.9310 -18.9310 -18.9310 -18.8765 -18.8285 -18.8284
   -18.8283 -18.8011 -18.7451 -18.7375 -18.7330 -18.7264 -18.7079 -18.7074
   -18.7072 -18.6836 -18.6834 -18.6155 -18.5912 -18.5894 -18.5791 -18.5693
   -18.5647 -18.5041 -18.4798 -18.4386 -18.4191 -18.4064 -18.4020 -18.4019
   -18.4018 -18.3243 -18.3191 -18.3191 -18.3190 -18.3187 -18.2959 -18.2915
   -18.2767 -18.2765 -18.2764 -18.2481 -18.2448 -18.2446 -18.2445 -18.2247
   -18.1909 -18.1857 -18.1652 -18.1651 -18.1648 -18.1627 -18.1624 -18.1618
   -18.1606 -18.1240 -18.1125 -18.1123 -18.1113 -18.1001 -18.0919 -18.0561
   -18.0555 -18.0555 -18.0447 -18.0446 -18.0438 -17.9963 -17.9962 -17.9909
   -17.9800 -17.9799 -17.9641 -17.9624 -17.9601 -17.9394 -17.9392 -17.9057
   -17.9008 -17.8588 -17.8421 -11.8783 -11.8601 -11.6671 -11.6668 -11.6662
   -11.6662 -11.6442 -11.6417 -11.6033 -11.5872 -11.5818 -11.5812 -11.5716
   -11.5313 -11.5265 -11.5014 -11.4802 -11.4761 -11.4705 -11.4692 -11.4688
   -11.4669 -11.4483 -11.4483 -11.4237 -11.4059 -11.4028 -11.4027 -11.3471
   -11.3427 -11.3426 -11.3420 -11.3288 -11.3246 -11.2264 -11.1646 -11.1644
   -11.1608 -11.1488 -11.1270 -11.1048 -11.1043 -11.0826 -11.0522 -11.0443
   -11.0400 -11.0224 -11.0221 -11.0219 -11.0218 -10.9993 -10.9944 -10.9936
   -10.9831 -10.9616 -10.9593 -10.9579 -10.9578 -10.9540 -10.9388 -10.8788
   -10.8657 -10.8478 -10.8436 -10.7717 -10.7340 -10.6821 -10.6811 -10.5632
   -10.5567 -10.4614 -10.3960 -10.3138 -10.3123 -10.3119 -10.3113 -10.3048
   -10.2176 -10.2122 -10.2103 -10.2100 -10.1266 -10.1261 -10.1259 -10.1229
   -10.1003 -10.0912 -10.0876 -10.0851 -10.0826 -10.0820 -10.0819 -10.0667
    -9.9768  -9.9748  -9.9741  -9.9606  -9.9340  -9.9317  -9.9307  -9.9159
    -9.8986  -9.8983  -9.8982  -9.8917  -9.8220  -9.8167  -9.8155  -9.8138
    -9.8129  -9.8012  -9.7970  -9.7969  -9.7964  -9.7832  -9.7711  -9.7194
    -9.7189  -9.6887  -9.6594  -9.6590  -9.6503  -9.6465  -9.6450  -9.6021
    -9.5949  -9.4999  -9.4721  -9.4307  -9.4264  -9.3637  -9.3250  -9.3237
    -9.3229  -9.3189  -9.3156  -9.3149  -9.3147  -9.2975  -9.2938  -9.2298
    -9.2008  -9.1976  -9.1931  -9.1831  -9.1782  -9.1678  -9.1477  -9.1448
    -9.1423  -9.1285  -9.1239  -9.1221  -9.1213  -9.1053  -9.1005  -9.0983
    -9.0881  -9.0873  -9.0869  -9.0634  -9.0607  -9.0477  -9.0442  -9.0309
    -9.0309  -9.0171  -9.0006  -9.0002  -8.9970  -8.9864  -8.9738  -8.9715
    -8.9676  -8.9588  -8.9577  -8.9257  -8.9127  -8.9085  -8.9051  -8.8837
    -8.8744  -8.7041  -8.7040  -8.6361  -8.6260  -8.6225  -8.5859  -8.5672
    -8.5560  -8.3847  -8.3847  -8.3468  -8.3133  -8.3129  -8.2699  -8.2523
    -8.2378  -8.2368  -8.1245  -8.1233  -8.0609  -8.0593  -8.0577  -8.0544
    -8.0400  -8.0394  -8.0380  -8.0380  -8.0336  -8.0279  -7.9922  -7.9921
    -7.9918  -7.9918  -7.9730  -7.9686  -7.9664  -7.9551  -7.9514  -7.9510
    -7.9498  -7.9353  -7.9225  -7.9191  -7.9189  -7.9159  -7.8918  -7.8917
    -7.8901  -7.8864  -7.8855  -7.8800  -7.8697  -7.8528  -7.8528  -7.8475
    -7.8334  -7.8322  -7.8266  -7.8257  -7.8252  -7.8017  -7.7885  -7.7834
    -7.7828  -7.7749  -7.7637  -7.7593  -7.7576  -7.7236  -7.7054  -7.7002
    -7.6465  -7.6300  -7.6300  -7.5608  -7.5129  -7.4342  -7.4326  -7.4297
    -7.4288  -7.3603  -7.3435  -7.3116  -7.3054  -7.2974  -7.2907  -7.2421
    -7.2299  -7.2044  -7.2028  -7.2015  -7.1365  -7.1354  -7.1295  -7.1283
    -7.1244  -7.1149  -7.1081  -7.1006  -7.0983  -7.0223  -7.0189  -7.0187
    -6.9959  -6.9899  -6.9736  -6.9664  -6.9482  -6.9058  -6.8964  -6.8520
    -6.8496  -6.8496  -6.8496  -6.8482  -6.8008  -6.7828  -6.7827  -6.7824
    -6.7823  -6.7670  -6.7360  -6.7099  -6.7084  -6.7071  -6.6929  -6.6914
    -6.6860  -6.6405  -6.5842  -6.5817  -6.5182  -6.5182  -6.5182  -6.5180
    -6.4521  -6.4512  -6.4398  -6.4395  -6.4389  -6.4387  -6.3962  -6.3830
    -6.3769  -6.3617  -6.3606  -6.3567  -6.3494  -6.3466  -6.1695  -6.1695
    -6.0946  -6.0945  -6.0205  -6.0205  -5.9398  -5.9254  -5.7535  -5.7457
    -4.8650  -4.2063  -4.2058  -4.2050  -4.1954  -4.0849  -4.0849  -4.0649
    -4.0580  -4.0204  -4.0204  -3.9575  -3.9537  -3.9499  -3.9498  -3.9469
    -3.9285  -3.8644  -3.8423  -3.7870  -3.7863  -3.7861  -3.7852  -3.7703
    -3.7701  -3.7253  -3.7219  -3.7189  -3.7094  -3.6953  -3.6947  -3.6773
    -3.6660  -3.6650  -3.6600  -3.6586  -3.6567  -3.6562  -3.6425  -3.6146
    -3.6107  -3.5532  -3.5492  -3.5482  -3.5451  -3.5384  -3.5381  -3.5110
    -3.5088  -3.5017  -3.5010  -3.4630  -3.4614  -3.4612  -3.4612  -3.4606
    -3.4511  -3.4362  -3.4337  -3.4298  -3.4233  -3.3965  -3.3953  -3.3930
    -3.3923  -3.3905  -3.3840  -3.3726  -3.3489  -3.3143  -3.3003  -3.2974
    -3.2947  -3.2940  -3.2587  -3.2583  -3.2448  -3.2197  -3.2194  -3.2083
    -3.1980  -3.1979  -3.1977  -3.1977  -3.1903  -3.1663  -3.1625  -3.1494
    -3.1493  -3.1393  -3.1363  -3.1063  -3.1058  -3.1051  -3.1045  -3.0828
    -3.0807  -3.0656  -3.0528  -3.0454  -3.0431  -3.0383  -3.0273  -2.9999
    -2.9958  -2.9953  -2.9911  -2.9884  -2.9868  -2.9134  -2.9125  -2.8745
    -2.8707  -2.8352  -2.8336  -2.8159  -2.8133  -2.8124  -2.8092  -2.7553
    -2.7523  -2.6835  -2.6758  -2.6744  -2.6737  -2.6722  -2.6686  -2.5172
    -2.4984

          k =-0.5000-0.8660 0.0000 (321564 PWs)   bands (ev):

  -108.7903 -81.5752 -81.5712 -81.5712 -81.5615 -81.5615 -81.5512 -81.5512
   -66.8729 -66.8729 -66.8623 -66.8623 -66.8474 -66.8474 -66.8474 -66.8474
   -66.8430 -66.8430 -66.8368 -66.8368 -66.8368 -66.8368 -66.8324 -66.8324
   -66.8074 -66.8070 -66.7966 -66.7966 -66.7817 -66.7817 -66.7817 -66.7816
   -66.7775 -66.7771 -66.7714 -66.7712 -66.7710 -66.7707 -66.7667 -66.7667
   -66.7485 -66.7450 -66.7360 -66.7353 -66.7225 -66.7217 -66.7216 -66.7202
   -66.7163 -66.7147 -66.7123 -66.7109 -66.7079 -66.7079 -66.7043 -66.7042
   -60.3463 -60.0779 -60.0779 -41.1741 -41.1741 -41.1741 -41.1741 -41.1474
   -41.1474 -41.1355 -41.1355 -41.1075 -41.1073 -41.1071 -41.1069 -41.0851
   -41.0851 -41.0851 -41.0851 -41.0807 -41.0804 -41.0687 -41.0686 -41.0484
   -41.0458 -41.0431 -41.0429 -41.0271 -41.0271 -41.0204 -41.0183 -41.0183
   -41.0183 -41.0183 -41.0171 -41.0171 -41.0171 -41.0064 -41.0064 -41.0064
   -41.0057 -40.9770 -40.9770 -40.9769 -40.9769 -40.9683 -40.9683 -40.9621
   -40.9617 -40.9571 -40.9564 -40.9561 -40.9561 -40.9561 -40.9561 -40.9561
   -40.9560 -40.9556 -40.9551 -40.9505 -40.9505 -40.9474 -40.9474 -40.9412
   -40.9412 -40.9254 -40.9254 -40.9254 -40.9254 -40.9119 -40.9119 -40.9118
   -40.9118 -40.9056 -40.9034 -40.9030 -40.8991 -40.8913 -40.8911 -40.8909
   -40.8909 -40.8909 -40.8909 -40.8909 -40.8906 -40.8895 -40.8895 -40.8889
   -40.8880 -40.8824 -40.8823 -40.8807 -40.8806 -40.8788 -40.8788 -40.8596
   -40.8596 -40.8590 -40.8589 -40.8587 -40.8585 -40.8559 -40.8537 -40.8522
   -40.8495 -40.8431 -40.8427 -40.8427 -40.8395 -40.8337 -40.8330 -40.8271
   -40.8271 -40.8267 -40.8266 -40.8243 -40.8243 -40.8243 -40.8243 -40.8203
   -40.8196 -40.8124 -40.8123 -40.8123 -40.8120 -40.7991 -40.7969 -40.7953
   -40.7952 -40.7932 -40.7929 -40.7762 -40.7762 -40.7632 -40.7628 -40.7612
   -40.7611 -40.7515 -40.7483 -40.7459 -40.7456 -40.7321 -40.7298 -40.7139
   -40.7135 -40.6851 -40.6818 -20.0747 -20.0733 -19.9611 -19.9478 -19.8369
   -19.8094 -19.6398 -19.6388 -19.5300 -19.5193 -19.4113 -19.3850 -18.9624
   -18.9364 -18.9315 -18.9311 -18.9310 -18.9310 -18.8765 -18.8285 -18.8284
   -18.8283 -18.8011 -18.7451 -18.7375 -18.7330 -18.7264 -18.7079 -18.7074
   -18.7072 -18.6836 -18.6834 -18.6155 -18.5912 -18.5894 -18.5791 -18.5693
   -18.5647 -18.5041 -18.4798 -18.4386 -18.4191 -18.4064 -18.4020 -18.4019
   -18.4018 -18.3243 -18.3191 -18.3191 -18.3190 -18.3187 -18.2959 -18.2916
   -18.2767 -18.2765 -18.2764 -18.2481 -18.2448 -18.2446 -18.2445 -18.2247
   -18.1909 -18.1857 -18.1652 -18.1651 -18.1648 -18.1627 -18.1624 -18.1618
   -18.1606 -18.1240 -18.1125 -18.1123 -18.1113 -18.1001 -18.0919 -18.0561
   -18.0555 -18.0555 -18.0447 -18.0446 -18.0438 -17.9963 -17.9962 -17.9909
   -17.9800 -17.9799 -17.9641 -17.9624 -17.9601 -17.9394 -17.9392 -17.9057
   -17.9008 -17.8588 -17.8421 -11.8783 -11.8601 -11.6671 -11.6668 -11.6662
   -11.6662 -11.6442 -11.6417 -11.6033 -11.5872 -11.5819 -11.5812 -11.5716
   -11.5313 -11.5265 -11.5014 -11.4802 -11.4761 -11.4705 -11.4692 -11.4688
   -11.4669 -11.4483 -11.4483 -11.4237 -11.4059 -11.4028 -11.4027 -11.3471
   -11.3427 -11.3426 -11.3420 -11.3288 -11.3246 -11.2264 -11.1646 -11.1644
   -11.1608 -11.1488 -11.1270 -11.1048 -11.1043 -11.0826 -11.0522 -11.0443
   -11.0400 -11.0224 -11.0221 -11.0219 -11.0218 -10.9993 -10.9944 -10.9936
   -10.9831 -10.9616 -10.9593 -10.9579 -10.9578 -10.9540 -10.9388 -10.8787
   -10.8657 -10.8478 -10.8436 -10.7717 -10.7340 -10.6821 -10.6811 -10.5632
   -10.5567 -10.4614 -10.3960 -10.3138 -10.3123 -10.3119 -10.3113 -10.3048
   -10.2176 -10.2122 -10.2103 -10.2100 -10.1266 -10.1261 -10.1258 -10.1229
   -10.1003 -10.0912 -10.0876 -10.0851 -10.0826 -10.0820 -10.0819 -10.0667
    -9.9768  -9.9749  -9.9741  -9.9606  -9.9340  -9.9317  -9.9307  -9.9159
    -9.8986  -9.8983  -9.8982  -9.8917  -9.8220  -9.8167  -9.8155  -9.8138
    -9.8129  -9.8012  -9.7970  -9.7969  -9.7964  -9.7832  -9.7711  -9.7194
    -9.7189  -9.6887  -9.6594  -9.6590  -9.6503  -9.6464  -9.6450  -9.6021
    -9.5949  -9.4999  -9.4721  -9.4307  -9.4264  -9.3637  -9.3250  -9.3237
    -9.3229  -9.3189  -9.3156  -9.3149  -9.3147  -9.2975  -9.2938  -9.2298
    -9.2008  -9.1976  -9.1931  -9.1831  -9.1782  -9.1678  -9.1477  -9.1448
    -9.1423  -9.1285  -9.1239  -9.1221  -9.1213  -9.1053  -9.1005  -9.0983
    -9.0881  -9.0873  -9.0869  -9.0634  -9.0607  -9.0477  -9.0442  -9.0309
    -9.0309  -9.0171  -9.0006  -9.0002  -8.9970  -8.9864  -8.9738  -8.9715
    -8.9676  -8.9588  -8.9577  -8.9257  -8.9127  -8.9085  -8.9051  -8.8836
    -8.8744  -8.7041  -8.7040  -8.6361  -8.6260  -8.6225  -8.5859  -8.5672
    -8.5560  -8.3847  -8.3847  -8.3468  -8.3133  -8.3129  -8.2699  -8.2522
    -8.2379  -8.2368  -8.1245  -8.1233  -8.0609  -8.0593  -8.0577  -8.0544
    -8.0400  -8.0394  -8.0380  -8.0380  -8.0336  -8.0279  -7.9922  -7.9921
    -7.9918  -7.9918  -7.9730  -7.9686  -7.9664  -7.9551  -7.9514  -7.9510
    -7.9498  -7.9353  -7.9225  -7.9191  -7.9189  -7.9160  -7.8918  -7.8917
    -7.8901  -7.8864  -7.8855  -7.8800  -7.8697  -7.8528  -7.8527  -7.8475
    -7.8334  -7.8322  -7.8266  -7.8257  -7.8252  -7.8017  -7.7885  -7.7834
    -7.7828  -7.7749  -7.7637  -7.7593  -7.7576  -7.7236  -7.7054  -7.7002
    -7.6465  -7.6300  -7.6300  -7.5608  -7.5129  -7.4342  -7.4326  -7.4297
    -7.4288  -7.3603  -7.3435  -7.3116  -7.3054  -7.2974  -7.2907  -7.2421
    -7.2299  -7.2044  -7.2028  -7.2015  -7.1365  -7.1354  -7.1295  -7.1283
    -7.1244  -7.1149  -7.1081  -7.1006  -7.0983  -7.0223  -7.0189  -7.0187
    -6.9959  -6.9899  -6.9736  -6.9664  -6.9482  -6.9058  -6.8964  -6.8520
    -6.8496  -6.8496  -6.8496  -6.8482  -6.8008  -6.7828  -6.7827  -6.7824
    -6.7823  -6.7670  -6.7360  -6.7099  -6.7084  -6.7071  -6.6929  -6.6914
    -6.6860  -6.6405  -6.5842  -6.5817  -6.5182  -6.5182  -6.5182  -6.5181
    -6.4521  -6.4512  -6.4398  -6.4395  -6.4389  -6.4387  -6.3962  -6.3830
    -6.3769  -6.3617  -6.3606  -6.3567  -6.3494  -6.3466  -6.1695  -6.1695
    -6.0946  -6.0945  -6.0205  -6.0205  -5.9398  -5.9254  -5.7535  -5.7457
    -4.8650  -4.2063  -4.2058  -4.2050  -4.1952  -4.0849  -4.0849  -4.0650
    -4.0581  -4.0204  -4.0204  -3.9575  -3.9537  -3.9499  -3.9499  -3.9468
    -3.9286  -3.8646  -3.8425  -3.7871  -3.7863  -3.7861  -3.7852  -3.7701
    -3.7700  -3.7254  -3.7220  -3.7191  -3.7094  -3.6950  -3.6944  -3.6774
    -3.6660  -3.6651  -3.6602  -3.6587  -3.6568  -3.6563  -3.6426  -3.6143
    -3.6107  -3.5532  -3.5492  -3.5482  -3.5451  -3.5386  -3.5383  -3.5110
    -3.5087  -3.5017  -3.5010  -3.4632  -3.4615  -3.4613  -3.4613  -3.4607
    -3.4513  -3.4363  -3.4339  -3.4299  -3.4235  -3.3967  -3.3953  -3.3931
    -3.3924  -3.3907  -3.3843  -3.3724  -3.3491  -3.3142  -3.3003  -3.2976
    -3.2949  -3.2942  -3.2580  -3.2575  -3.2450  -3.2198  -3.2195  -3.2081
    -3.1981  -3.1981  -3.1980  -3.1980  -3.1907  -3.1659  -3.1622  -3.1495
    -3.1494  -3.1394  -3.1364  -3.1065  -3.1063  -3.1053  -3.1048  -3.0830
    -3.0809  -3.0652  -3.0528  -3.0457  -3.0435  -3.0385  -3.0276  -3.0005
    -2.9960  -2.9957  -2.9913  -2.9887  -2.9855  -2.9141  -2.9131  -2.8733
    -2.8726  -2.8348  -2.8161  -2.8136  -2.8126  -2.8096  -2.7894  -2.7521
    -2.6865  -2.6761  -2.6747  -2.6740  -2.6726  -2.6683  -2.5334  -2.5108
    -2.4908

     the Fermi energy is    -4.8710 ev

!    total energy              =  -25622.44304901 Ry
     total all-electron energy =   -503388.903015 Ry
     estimated scf accuracy    <       0.00000036 Ry
     smearing contrib. (-TS)   =      -0.00560851 Ry
     internal energy E=F+TS    =  -25622.43744050 Ry

     The total energy is F=E-TS. E is the sum of the following terms:
     one-electron contribution =  477711.78587877 Ry
     hartree contribution      = -239017.16288445 Ry
     xc contribution           =   -1505.50524496 Ry
     ewald contribution        = -246870.07728285 Ry
     DFT-D3 Dispersion         =      -3.96921807 Ry
     one-center paw contrib.   =  -15937.50868893 Ry

     convergence has been achieved in  22 iterations

     negative rho (up, down):  8.210E-04 0.000E+00

     Forces acting on atoms (cartesian axes, Ry/au):

     atom    1 type  1   force =     0.00000749    0.00260600    0.00305547
     atom    2 type  1   force =    -0.00000537   -0.00001346    0.00190186
     atom    3 type  1   force =     0.00002755    0.00004808   -0.00003938
     atom    4 type  2   force =    -0.00000097   -0.00000195   -0.00342081
     atom    5 type  2   force =    -0.00000109   -0.00000296   -0.00008664
     atom    6 type  2   force =     0.00053041    0.00000822   -0.00059403
     atom    7 type  2   force =    -0.00000264   -0.00000292    0.00166064
     atom    8 type  2   force =    -0.00000168    0.00001496    0.00018869
     atom    9 type  2   force =    -0.00089363   -0.00087094    0.00145333
     atom   10 type  1   force =     0.00225772   -0.00130046    0.00305247
     atom   11 type  1   force =    -0.00000823   -0.00000174    0.00190960
     atom   12 type  1   force =     0.00004086    0.00000923   -0.00004787
     atom   13 type  2   force =    -0.00000329   -0.00000039   -0.00342732
     atom   14 type  2   force =     0.00000909    0.00000848   -0.00012053
     atom   15 type  2   force =     0.00026813    0.00045769   -0.00059344
     atom   16 type  2   force =    -0.00000440    0.00000039    0.00166463
     atom   17 type  2   force =     0.00003758    0.00002182    0.00017408
     atom   18 type  2   force =    -0.00120209   -0.00033608    0.00144888
     atom   19 type  1   force =    -0.00099860    0.00092605   -0.00045302
     atom   20 type  1   force =    -0.00001775   -0.00000354    0.00190880
     atom   21 type  1   force =    -0.00004284    0.00002669    0.00000806
     atom   22 type  2   force =    -0.00000237    0.00000243   -0.00341953
     atom   23 type  2   force =    -0.00000192   -0.00000032   -0.00008392
     atom   24 type  2   force =     0.00012608   -0.00007385    0.00005202
     atom   25 type  2   force =    -0.00000336    0.00000163    0.00166134
     atom   26 type  2   force =     0.00001220   -0.00000810    0.00019027
     atom   27 type  2   force =    -0.00000840    0.00000462    0.00035208
     atom   28 type  1   force =     0.00030032   -0.00132842   -0.00045837
     atom   29 type  1   force =    -0.00000574   -0.00001239    0.00191690
     atom   30 type  1   force =     0.00001285   -0.00007056    0.00001229
     atom   31 type  2   force =     0.00000151   -0.00000092   -0.00342136
     atom   32 type  2   force =    -0.00000128   -0.00000002   -0.00009785
     atom   33 type  2   force =     0.00000138    0.00014559    0.00005392
     atom   34 type  2   force =     0.00000018   -0.00000091    0.00165890
     atom   35 type  2   force =     0.00000592    0.00000403    0.00014233
     atom   36 type  2   force =     0.00000044   -0.00000787    0.00035272
     atom   37 type  1   force =    -0.00086376    0.00050157    0.00061963
     atom   38 type  1   force =     0.00000151   -0.00000957    0.00191838
     atom   39 type  1   force =    -0.00001147    0.00003935   -0.00003874
     atom   40 type  2   force =     0.00000007   -0.00000264   -0.00342435
     atom   41 type  2   force =    -0.00000341    0.00000665   -0.00010251
     atom   42 type  2   force =    -0.00052785    0.00000488   -0.00059053
     atom   43 type  2   force =     0.00000105   -0.00000362    0.00166445
     atom   44 type  2   force =    -0.00000311   -0.00000127    0.00015104
     atom   45 type  2   force =     0.00089361   -0.00087030    0.00144744
     atom   46 type  1   force =    -0.00225393   -0.00130121    0.00305537
     atom   47 type  1   force =     0.00000007    0.00000366    0.00191704
     atom   48 type  1   force =     0.00000035   -0.00000327    0.00015566
     atom   49 type  2   force =    -0.00000234   -0.00000273   -0.00343195
     atom   50 type  2   force =    -0.00001275    0.00000820   -0.00012200
     atom   51 type  2   force =    -0.00000188   -0.00000154   -0.00171206
     atom   52 type  2   force =    -0.00000005    0.00000150    0.00166933
     atom   53 type  2   force =    -0.00003790    0.00002318    0.00017029
     atom   54 type  2   force =     0.00000027   -0.00000289    0.01249373
     atom   55 type  1   force =    -0.00000092   -0.00099818    0.00062710
     atom   56 type  1   force =    -0.00000081   -0.00000457    0.00191123
     atom   57 type  1   force =     0.00001905   -0.00004064   -0.00004360
     atom   58 type  2   force =    -0.00000558    0.00000124   -0.00343386
     atom   59 type  2   force =     0.00000000   -0.00001225   -0.00012046
     atom   60 type  2   force =    -0.00026017   -0.00046018   -0.00059012
     atom   61 type  2   force =    -0.00000382    0.00000032    0.00166960
     atom   62 type  2   force =     0.00000047   -0.00004248    0.00017138
     atom   63 type  2   force =    -0.00030741    0.00121174    0.00144543
     atom   64 type  1   force =    -0.00009734   -0.00006012    0.00011453
     atom   65 type  1   force =    -0.00000844    0.00000194    0.00191909
     atom   66 type  1   force =    -0.00002505   -0.00001957    0.00004286
     atom   67 type  2   force =    -0.00000400    0.00000124   -0.00342042
     atom   68 type  2   force =     0.00000372   -0.00000748   -0.00010725
     atom   69 type  2   force =    -0.00007598   -0.00004294   -0.00006828
     atom   70 type  2   force =    -0.00000417    0.00000116    0.00166228
     atom   71 type  2   force =    -0.00000180   -0.00000121    0.00015420
     atom   72 type  2   force =     0.00024019    0.00014079    0.00038953
     atom   73 type  1   force =    -0.00000155    0.00012037    0.00011331
     atom   74 type  1   force =    -0.00000052    0.00000142    0.00191636
     atom   75 type  1   force =    -0.00000508    0.00001137    0.00005125
     atom   76 type  2   force =     0.00000112    0.00000265   -0.00342176
     atom   77 type  2   force =    -0.00000063    0.00000329   -0.00010629
     atom   78 type  2   force =    -0.00005485    0.00003506   -0.00019070
     atom   79 type  2   force =    -0.00000018    0.00000255    0.00165808
     atom   80 type  2   force =    -0.00000110   -0.00000033    0.00012612
     atom   81 type  2   force =     0.00010088   -0.00005644    0.00035912
     atom   82 type  1   force =     0.00130350    0.00040674   -0.00045497
     atom   83 type  1   force =     0.00000982    0.00000996    0.00192218
     atom   84 type  1   force =    -0.00003174    0.00000295   -0.00004752
     atom   85 type  2   force =     0.00000327   -0.00000096   -0.00342629
     atom   86 type  2   force =    -0.00000878    0.00000213   -0.00010352
     atom   87 type  2   force =    -0.00026719    0.00045517   -0.00059351
     atom   88 type  2   force =     0.00000424    0.00000034    0.00166798
     atom   89 type  2   force =    -0.00000136    0.00000362    0.00015139
     atom   90 type  2   force =     0.00120186   -0.00033662    0.00145125
     atom   91 type  1   force =     0.00100316    0.00091701   -0.00044465
     atom   92 type  1   force =     0.00001122   -0.00000365    0.00190795
     atom   93 type  1   force =    -0.00001770   -0.00004305   -0.00004111
     atom   94 type  2   force =     0.00000356    0.00000146   -0.00343467
     atom   95 type  2   force =     0.00000154    0.00000066   -0.00008198
     atom   96 type  2   force =     0.00025908   -0.00045856   -0.00058939
     atom   97 type  2   force =     0.00000324   -0.00000042    0.00167208
     atom   98 type  2   force =    -0.00001371   -0.00000644    0.00018805
     atom   99 type  2   force =     0.00030650    0.00121328    0.00144922
     atom  100 type  1   force =     0.00008718   -0.00006194    0.00011893
     atom  101 type  1   force =     0.00001006    0.00000525    0.00191852
     atom  102 type  1   force =    -0.00000592   -0.00001503    0.00005722
     atom  103 type  2   force =    -0.00000066    0.00000427   -0.00342515
     atom  104 type  2   force =    -0.00000476   -0.00000923   -0.00010555
     atom  105 type  2   force =    -0.00000066   -0.00006734   -0.00018563
     atom  106 type  2   force =    -0.00000102    0.00000422    0.00166510
     atom  107 type  2   force =     0.00000216   -0.00000163    0.00015499
     atom  108 type  2   force =     0.00000022    0.00011605    0.00035452
     atom  109 type  1   force =     0.00086322    0.00051045    0.00062653
     atom  110 type  1   force =    -0.00000385   -0.00001199    0.00191638
     atom  111 type  1   force =    -0.00000223    0.00001744    0.00004744
     atom  112 type  2   force =     0.00000065    0.00000153   -0.00342113
     atom  113 type  2   force =     0.00000326    0.00000528   -0.00010444
     atom  114 type  2   force =     0.00005457    0.00003669   -0.00018957
     atom  115 type  2   force =    -0.00000117    0.00000284    0.00165459
     atom  116 type  2   force =     0.00000342   -0.00000083    0.00015323
     atom  117 type  2   force =    -0.00010094   -0.00005527    0.00035879
     atom  118 type  1   force =    -0.00130494    0.00040942   -0.00045518
     atom  119 type  1   force =    -0.00001027    0.00000861    0.00192186
     atom  120 type  1   force =     0.00000603    0.00002097    0.00003467
     atom  121 type  2   force =     0.00000053   -0.00000096   -0.00341593
     atom  122 type  2   force =     0.00000575    0.00000168   -0.00010609
     atom  123 type  2   force =    -0.00000009    0.00008726   -0.00006801
     atom  124 type  2   force =    -0.00000099    0.00000052    0.00165531
     atom  125 type  2   force =     0.00000010    0.00000309    0.00015416
     atom  126 type  2   force =    -0.00000120   -0.00027663    0.00039245
     atom  127 type  1   force =     0.00000086   -0.00000131   -0.00012302
     atom  128 type  1   force =    -0.00000130   -0.00000557    0.00192370
     atom  129 type  1   force =     0.00005328    0.00001975    0.00001260
     atom  130 type  2   force =     0.00000294    0.00000280   -0.00341894
     atom  131 type  2   force =     0.00000049   -0.00000267   -0.00010049
     atom  132 type  2   force =    -0.00012555   -0.00007288    0.00005611
     atom  133 type  2   force =     0.00000409    0.00000114    0.00166100
     atom  134 type  2   force =    -0.00000044   -0.00000556    0.00014890
     atom  135 type  2   force =     0.00000756    0.00000656    0.00034911
     atom  136 type  1   force =    -0.00028696   -0.00133622   -0.00044888
     atom  137 type  1   force =    -0.00000200   -0.00000630    0.00192022
     atom  138 type  1   force =     0.00002928   -0.00002122    0.00003773
     atom  139 type  2   force =     0.00000509    0.00000171   -0.00342010
     atom  140 type  2   force =    -0.00000128    0.00000275   -0.00009674
     atom  141 type  2   force =     0.00007424   -0.00004475   -0.00006722
     atom  142 type  2   force =     0.00000329    0.00000272    0.00165836
     atom  143 type  2   force =    -0.00000570    0.00000305    0.00014318
     atom  144 type  2   force =    -0.00024031    0.00013791    0.00039111
     atom  145 type  3   force =    -0.00000516   -0.00000714   -0.02709782
     The non-local contrib.  to forces
     atom    1 type  1   force =     0.00000183   -0.00098470   -0.01081435
     atom    2 type  1   force =    -0.00000419    0.00000487   -0.00199011
     atom    3 type  1   force =     0.00009264    0.00013047   -0.00082934
     atom    4 type  2   force =    -0.00000237   -0.00000211    0.26317185
     atom    5 type  2   force =    -0.00000163    0.00002321    0.26639324
     atom    6 type  2   force =     0.00098021    0.00068665    0.26691978
     atom    7 type  2   force =    -0.00000675   -0.00000320   -0.26460700
     atom    8 type  2   force =    -0.00000013    0.00004025   -0.26490788
     atom    9 type  2   force =     0.00084114    0.00169171   -0.26443271
     atom   10 type  1   force =    -0.00085149    0.00049018   -0.01081245
     atom   11 type  1   force =     0.00000364    0.00000141   -0.00199037
     atom   12 type  1   force =     0.00016102    0.00002193   -0.00083463
     atom   13 type  2   force =    -0.00000131   -0.00000114    0.26317469
     atom   14 type  2   force =     0.00002193    0.00001090    0.26634879
     atom   15 type  2   force =     0.00108613    0.00050309    0.26692211
     atom   16 type  2   force =    -0.00000316   -0.00000144   -0.26461095
     atom   17 type  2   force =     0.00044603    0.00025574   -0.26514519
     atom   18 type  2   force =     0.00188480   -0.00012023   -0.26443181
     atom   19 type  1   force =    -0.00045966    0.00060640    0.00043438
     atom   20 type  1   force =     0.00000112   -0.00000100   -0.00198902
     atom   21 type  1   force =     0.00005211   -0.00002724   -0.00077950
     atom   22 type  2   force =    -0.00000188   -0.00000057    0.26317184
     atom   23 type  2   force =     0.00002005   -0.00001010    0.26639193
     atom   24 type  2   force =     0.00000314   -0.00000300    0.26675041
     atom   25 type  2   force =    -0.00000610   -0.00000450   -0.26461147
     atom   26 type  2   force =     0.00003643   -0.00001996   -0.26491084
[...]
     atom   63 type  2   force =     0.00024409   -0.00042629   -0.00405317
     atom   64 type  1   force =    -0.00000573   -0.00000328   -0.00258995
     atom   65 type  1   force =    -0.00000006   -0.00000028    0.00260258
     atom   66 type  1   force =    -0.00000068   -0.00000040   -0.00004663
     atom   67 type  2   force =    -0.00000002   -0.00000003    0.00441124
     atom   68 type  2   force =    -0.00000064   -0.00000109   -0.00004965
     atom   69 type  2   force =    -0.00000458   -0.00000265   -0.00018991
     atom   70 type  2   force =     0.00000004   -0.00000026    0.00023437
     atom   71 type  2   force =    -0.00000147   -0.00000216    0.00007899
     atom   72 type  2   force =    -0.00000411   -0.00000231   -0.00438606
     atom   73 type  1   force =     0.00000000    0.00000660   -0.00258995
     atom   74 type  1   force =    -0.00000000    0.00000000    0.00260230
     atom   75 type  1   force =    -0.00000034    0.00000020   -0.00004789
     atom   76 type  2   force =    -0.00000003   -0.00000002    0.00441120
     atom   77 type  2   force =     0.00000000   -0.00000000   -0.00004960
     atom   78 type  2   force =     0.00000415   -0.00000239   -0.00018823
     atom   79 type  2   force =    -0.00000016   -0.00000009    0.00023421
     atom   80 type  2   force =    -0.00000000    0.00000000    0.00007850
     atom   81 type  2   force =    -0.00009769    0.00005639   -0.00436044
     atom   82 type  1   force =    -0.00011931   -0.00002097   -0.00250096
     atom   83 type  1   force =    -0.00000022    0.00000019    0.00260258
     atom   84 type  1   force =    -0.00000123    0.00000039   -0.00004703
     atom   85 type  2   force =    -0.00000001    0.00000001    0.00441115
     atom   86 type  2   force =    -0.00000063    0.00000110   -0.00004965
     atom   87 type  2   force =    -0.00002862   -0.00000015   -0.00013034
     atom   88 type  2   force =    -0.00000049    0.00000028    0.00023434
     atom   89 type  2   force =    -0.00000113    0.00000234    0.00007899
     atom   90 type  2   force =    -0.00049116    0.00000161   -0.00405316
     atom   91 type  1   force =    -0.00007778   -0.00009283   -0.00250099
     atom   92 type  1   force =    -0.00000015   -0.00000009    0.00260289
     atom   93 type  1   force =    -0.00000029   -0.00000128   -0.00004703
     atom   94 type  2   force =    -0.00000005   -0.00000003    0.00441106
     atom   95 type  2   force =    -0.00000017   -0.00000011   -0.00004944
     atom   96 type  2   force =    -0.00001442   -0.00002471   -0.00013037
     atom   97 type  2   force =    -0.00000022   -0.00000013    0.00023441
     atom   98 type  2   force =    -0.00000036   -0.00000021    0.00008197
     atom   99 type  2   force =    -0.00024412   -0.00042630   -0.00405316
     atom  100 type  1   force =     0.00000572   -0.00000327   -0.00258995
     atom  101 type  1   force =     0.00000005   -0.00000028    0.00260257
     atom  102 type  1   force =    -0.00000002   -0.00000040   -0.00004789
     atom  103 type  2   force =     0.00000000   -0.00000001    0.00441115
     atom  104 type  2   force =     0.00000064   -0.00000109   -0.00004965
     atom  105 type  2   force =    -0.00000000    0.00000479   -0.00018823
     atom  106 type  2   force =    -0.00000000   -0.00000057    0.00023434
     atom  107 type  2   force =     0.00000146   -0.00000216    0.00007900
     atom  108 type  2   force =    -0.00000000   -0.00011268   -0.00436050
     atom  109 type  1   force =     0.00022828    0.00013176   -0.00232356
     atom  110 type  1   force =     0.00000027    0.00000009    0.00260257
     atom  111 type  1   force =     0.00000032    0.00000021   -0.00004789
     atom  112 type  2   force =     0.00000003   -0.00000002    0.00441119
     atom  113 type  2   force =     0.00000127   -0.00000001   -0.00004966
     atom  114 type  2   force =    -0.00000415   -0.00000239   -0.00018823
     atom  115 type  2   force =     0.00000015   -0.00000009    0.00023420
     atom  116 type  2   force =     0.00000259   -0.00000019    0.00007900
     atom  117 type  2   force =     0.00009771    0.00005640   -0.00436044
     atom  118 type  1   force =     0.00011933   -0.00002097   -0.00250095
     atom  119 type  1   force =     0.00000021    0.00000019    0.00260258
     atom  120 type  1   force =     0.00000000    0.00000079   -0.00004662
     atom  121 type  2   force =     0.00000000    0.00000003    0.00441120
     atom  122 type  2   force =     0.00000063    0.00000111   -0.00004965
     atom  123 type  2   force =    -0.00000000    0.00000530   -0.00018991
     atom  124 type  2   force =    -0.00000000    0.00000018    0.00023421
     atom  125 type  2   force =     0.00000113    0.00000235    0.00007899
     atom  126 type  2   force =     0.00000001    0.00000470   -0.00438606
     atom  127 type  1   force =     0.00000000    0.00000000   -0.00260818
     atom  128 type  1   force =    -0.00000000    0.00000008    0.00260285
     atom  129 type  1   force =     0.00000019    0.00000009   -0.00004506
     atom  130 type  2   force =    -0.00000001    0.00000004    0.00441124
     atom  131 type  2   force =     0.00000000    0.00000041   -0.00004920
     atom  132 type  2   force =     0.00000327    0.00000188   -0.00018801
     atom  133 type  2   force =    -0.00000024    0.00000010    0.00023437
     atom  134 type  2   force =     0.00000000    0.00000178    0.00007953
     atom  135 type  2   force =    -0.00009924   -0.00005731   -0.00436132
     atom  136 type  1   force =     0.00004154    0.00011389   -0.00250086
     atom  137 type  1   force =     0.00000007   -0.00000004    0.00260284
     atom  138 type  1   force =     0.00000067   -0.00000040   -0.00004663
     atom  139 type  2   force =     0.00000003   -0.00000003    0.00441124
     atom  140 type  2   force =     0.00000036   -0.00000020   -0.00004920
     atom  141 type  2   force =     0.00000458   -0.00000265   -0.00018991
     atom  142 type  2   force =    -0.00000004   -0.00000027    0.00023436
     atom  143 type  2   force =     0.00000155   -0.00000090    0.00007953
     atom  144 type  2   force =     0.00000411   -0.00000229   -0.00438605
     atom  145 type  3   force =     0.00000004    0.00000028   -0.00664090

     Total force =     0.001897     Total SCF correction =     0.000518
     SCF correction compared to forces is large: reduce conv_thr to get better values
     Energy error            =      7.8E-06 Ry
     Gradient error          =      9.4E-04 Ry/Bohr

     bfgs converged in  29 scf cycles and  27 bfgs steps
     (criteria: energy <  1.0E-04 Ry, force <  1.0E-03 Ry/Bohr)

     End of BFGS Geometry Optimization

     Final energy             =  -25622.4489445262 Ry

     File ./outdir/pwscf.bfgs deleted, as requested
Begin final coordinates

ATOMIC_POSITIONS (angstrom)
Mo            1.5768949961        2.7316775758        6.0963492892
Mo            1.5769197498        0.9104407117       -6.0872367793    0   0   0
Mo            0.0000742193        1.8210434878       -0.0005323492
S             0.0000044503        0.0000077495       -7.6506323570    0   0   0
S             1.5769118540        0.9104581613       -1.5659792230
S             0.0019241186        1.8216074907        4.5301430901
S             0.0000053241        0.0000068460       -4.5222282367    0   0   0
S             1.5769121908        0.9105166078        1.5667884939
S            -0.0021270876        1.8157356202        7.6672497867
Mo            0.0003065814        5.4623989116        6.0963512258
Mo            0.0000011799        3.6417399547       -6.0872367793    0   0   0
Mo           -1.5767345100        4.5521489954       -0.0005282107
S            -1.5769141197        2.7313069925       -7.6506323570    0   0   0
S             0.0001111293        3.6418080527       -1.5661833976
S            -1.5753161155        4.5534685772        4.5301451771
S            -1.5769132459        2.7313060890       -4.5222282367    0   0   0
S             0.0001103919        3.6418004852        1.5669573714
S            -1.5824326548        4.5528925866        7.6672500515
Mo           -1.5790217943        8.1955903236        6.0930865796
Mo           -1.5769173901        6.3730391977       -6.0872367793    0   0   0
Mo           -3.1538817390        7.2834891045       -0.0005405818
S            -3.1538326896        5.4626062355       -7.6506323570    0   0   0
S            -1.5769013066        6.3730185270       -1.5659773406
S            -3.1534950077        7.2832438481        4.5261117010
S            -3.1538318159        5.4626053320       -4.5222282367    0   0   0
S            -1.5768474166        6.3729883692        1.5667984476
S            -3.1559563805        7.2846639611        7.6617290000
Mo            3.1542458250       -0.0026569552        6.0930814553
Mo           -3.1538359601        9.1043384407       -6.0872367793    0   0   0
Mo           -4.7307578253       10.0147092640       -0.0005429453
S            -4.7307512596        8.1939054785       -7.6506323570    0   0   0
S            -3.1537273693        9.1043896136       -1.5659852309
S            -4.7307770007       10.0151753752        4.5261127527
S            -4.7307503859        8.1939045750       -4.5222282367    0   0   0
S            -3.1540267801        9.1042235254        1.5668305590
S            -4.7307774856       10.0123343026        7.6617281851
Mo            4.7294283269        2.7320367073        6.0969582452
Mo            4.7307503218        0.9104407117       -6.0872367793    0   0   0
Mo            3.1537457403        1.8210411130       -0.0005336664
S             3.1538350223        0.0000077495       -7.6506323570    0   0   0
S             4.7310442279        0.9105295707       -1.5654796431
S             3.1518629641        1.8216045683        4.5301399825
S             3.1538358961        0.0000068460       -4.5222282367    0   0   0
S             4.7302625518        0.9104499770        1.5672252909
S             3.1559178327        1.8157349525        7.6672475251
Mo            3.1534766099        5.4623983842        6.0963482072
Mo            3.1538317519        3.6417399547       -6.0872367793    0   0   0
Mo            1.5769018472        4.5521655285       -0.0003095654
S             1.5769164523        2.7313069925       -7.6506323570    0   0   0
S             3.1536948382        3.6418073977       -1.5661820796
S             1.5768945281        4.5521610768        4.5239704467
S             1.5769173261        2.7313060890       -4.5222282367    0   0   0
S             3.1537000502        3.6418011602        1.5669513699
S             1.5768928883        4.5521466493        7.6420350811
Mo            1.5768861975        8.1923937569        6.0969587992
Mo            1.5769131819        6.3730391977       -6.0872367793    0   0   0
Mo            0.0000987155        7.2833102997       -0.0005294288
S            -0.0000021176        5.4626062355       -7.6506323570    0   0   0
S             1.5769010576        6.3728879470       -1.5661800120
S            -0.0003563787        7.2813955414        4.5301421174
S            -0.0000012439        5.4626053320       -4.5222282367    0   0   0
S             1.5769033582        6.3728927673        1.5669541838
S            -0.0034113593        7.2878494774        7.6672490151
Mo            6.3074420713       -0.0001255082        6.0935483012
Mo           -0.0000053881        9.1043384407       -6.0872367793    0   0   0
Mo           -1.5769901460       10.0147306344       -0.0001192011
S            -1.5769206876        8.1939054785       -7.6506323570    0   0   0
S             0.0002151862        9.1045453397       -1.5654789244
S            -1.5765510850       10.0149822020        4.5264799163
S            -1.5769198139        8.1939045750       -4.5222282367    0   0   0
S            -0.0002433116        9.1039135572        1.5672259855
S            -1.5761509607       10.0152148720        7.6633206398
Mo            7.8845540468        2.7315137368        6.0935487549
Mo            7.8845808939        0.9104407117       -6.0872367793    0   0   0
Mo            6.3076747724        1.8208576762        0.0004562461
S             6.3076655943        0.0000077495       -7.6506323570    0   0   0
S             7.8845642575        0.9104412782       -1.5649242704
S             6.3055617042        1.8220530285        4.5288786680
S             6.3076664681        0.0000068460       -4.5222282367    0   0   0
S             7.8845646928        0.9104385301        1.5680445130
S             6.3083614818        1.8204358723        7.6633741648
Mo            6.3101536047        5.4635361331        6.0930786861
Mo            6.3076623239        3.6417399547       -6.0872367793    0   0   0
Mo            4.7305432487        4.5521478110       -0.0005314846
S             4.7307470244        2.7313069925       -7.6506323570    0   0   0
S             6.3077217370        3.6414278387       -1.5654826758
S             4.7291047560        4.5534698409        4.5301400641
S             4.7307478981        2.7313060890       -4.5222282367    0   0   0
S             6.3073985165        3.6421424700        1.5672294966
S             4.7362205993        4.5528928845        7.6672441288
Mo            4.7327973855        8.1955949533        6.0930829320
Mo            4.7307437539        6.3730391977       -6.0872367793    0   0   0
Mo            3.1537039254        7.2833086164       -0.0005314248
S             3.1538284544        5.4626062355       -7.6506323570    0   0   0
S             4.7307068804        6.3730165170       -1.5659822920
S             3.1541326630        7.2813989211        4.5301402169
S             3.1538293281        5.4626053320       -4.5222282367    0   0   0
S             4.7306542352        6.3729859573        1.5667955860
S             3.1571897063        7.2878523077        7.6672452988
Mo            9.4616682781       -0.0001238889        6.0935502424
Mo            3.1538251839        9.1043384407       -6.0872367793    0   0   0
Mo            1.5768932294       10.0147943181        0.0004543382
S             1.5769098844        8.1939054785       -7.6506323570    0   0   0
S             3.1535754016        9.1045444255       -1.5654787230
S             1.5768822011       10.0123548953        4.5288794386
S             1.5769107581        8.1939045750       -4.5222282367    0   0   0
S             3.1540373684        9.1039138994        1.5672237547
S             1.5768811723       10.0155883309        7.6633747119
Mo           -1.5756412185        2.7320369682        6.0969647576
Mo           11.0384114659        0.9104407117       -6.0872367793    0   0   0
Mo            9.4614552914        1.8208633311        0.0004566201
S             9.4614961663        0.0000077495       -7.6506323570    0   0   0
S            11.0380935593        0.9105351596       -1.5654710909
S             9.4635492774        1.8220546349        4.5288828011
S             9.4614970401        0.0000068460       -4.5222282367    0   0   0
S            11.0388733838        0.9104496698        1.5672189835
S             9.4607433941        1.8204353671        7.6633787327
Mo           -3.1563669399        5.4635346471        6.0930836609
Mo            9.4614928959        3.6417399547       -6.0872367793    0   0   0
Mo            7.8845681588        4.5522327060       -0.0001152575
S             7.8845775964        2.7313069925       -7.6506323570    0   0   0
S             9.4614133000        3.6414315450       -1.5654819082
S             7.8845571548        4.5516925846        4.5264753858
S             7.8845784701        2.7313060890       -4.5222282367    0   0   0
S             9.4617330741        3.6421435966        1.5672326111
S             7.8845532678        4.5512310959        7.6633192610
Mo           -4.7307721502        8.1938903801        6.0910351151
Mo            7.8845743259        6.3730391977       -6.0872367793    0   0   0
Mo            6.3076894686        7.2834847706       -0.0005408267
S             6.3076590264        5.4626062355       -7.6506323570    0   0   0
S             7.8845676405        6.3728980255       -1.5659784354
S             6.3072746738        7.2832467790        4.5261098469
S             6.3076599001        5.4626053320       -4.5222282367    0   0   0
S             7.8845648469        6.3732445046        1.5668296433
S             6.3097330155        7.2846654830        7.6617253266
Mo           -0.0004544568       -0.0026547781        6.0930835304
Mo            6.3076557559        9.1043384407       -6.0872367793    0   0   0
Mo            4.7307866337       10.0147291938       -0.0001193346
S             4.7307404564        8.1939054785       -7.6506323570    0   0   0
S             6.3075329413        9.1043894942       -1.5659835332
S             4.7303184304       10.0149889051        4.5264775781
S             4.7307413301        8.1939045750       -4.5222282367    0   0   0
S             6.3078299895        9.1042212519        1.5668245951
S             4.7299176152       10.0152173273        7.6633182789
Au            1.5768078669        4.5515734089        9.9702608788
End final coordinates



     Writing all to output data dir ./outdir/pwscf.save/
 
     init_run     :    105.08s CPU    108.12s WALL (       1 calls)
     electrons    : 130093.93s CPU 132069.12s WALL (      29 calls)
     update_pot   :    124.06s CPU    124.53s WALL (      28 calls)
     forces       :   2120.35s CPU   2195.34s WALL (      29 calls)
     force_dftd3  :     13.16s CPU     13.19s WALL (      29 calls)

     Called by init_run:
     wfcinit      :     84.52s CPU     85.81s WALL (       1 calls)
     potinit      :      2.01s CPU      2.09s WALL (       1 calls)
     hinit0       :     11.73s CPU     11.75s WALL (       1 calls)

     Called by electrons:
     c_bands      : 114607.76s CPU 115352.61s WALL (     364 calls)
     sum_band     :  13747.70s CPU  14412.71s WALL (     364 calls)
     v_of_rho     :    145.04s CPU    147.34s WALL (     366 calls)
     newd         :   1334.89s CPU   1932.57s WALL (     366 calls)
     PAW_pot      :    263.68s CPU    263.68s WALL (     394 calls)
     mix_rho      :     37.96s CPU     38.13s WALL (     364 calls)
     energy_dftd3 :      5.80s CPU      5.81s WALL (      29 calls)

     Called by c_bands:
     init_us_2    :    563.55s CPU    563.68s WALL (    3144 calls)
     init_us_2:cp :    563.53s CPU    563.67s WALL (    3144 calls)
     cegterg      : 112673.74s CPU 113409.18s WALL (    1471 calls)

     Called by *egterg:
     cdiaghg      :   7820.89s CPU   7845.40s WALL (   19337 calls)
     h_psi        :  59853.75s CPU  60069.88s WALL (   19561 calls)
     s_psi        :  12231.65s CPU  12232.33s WALL (   19561 calls)
     g_psi        :    130.10s CPU    130.16s WALL (   18086 calls)

     Called by h_psi:
     h_psi:calbec :  12157.49s CPU  12160.27s WALL (   19561 calls)
     vloc_psi     :  35221.58s CPU  35309.06s WALL (   19561 calls)
     add_vuspsi   :  12321.50s CPU  12325.44s WALL (   19561 calls)

     General routines
     calbec       :  17331.72s CPU  17335.63s WALL (   21593 calls)
     fft          :    133.40s CPU    136.30s WALL (    5074 calls)
     ffts         :      6.28s CPU      6.42s WALL (     730 calls)
     fftw         :  28294.34s CPU  28362.57s WALL ( 7926638 calls)
     interpolate  :     14.46s CPU     14.61s WALL (     366 calls)
 
     Parallel routines
 
     PWSCF        :   1d12h59m CPU   1d13h34m WALL

 
   This run was terminated on:   6:20:33   5Nov2023            

=------------------------------------------------------------------------------=
   JOB DONE.
=------------------------------------------------------------------------------=
Application 11372058 resources: utime ~4794233s, stime ~75239s, Rss ~2624020, inblocks ~0, outblocks ~41141368
