
     Program PWSCF v.7.3 starts on  5Apr2024 at 23:11:50 

     This program is part of the open-source Quantum ESPRESSO suite
     for quantum simulation of materials; please cite
         "P. Giannozzi et al., J. Phys.:Condens. Matter 21 395502 (2009);
         "P. Giannozzi et al., J. Phys.:Condens. Matter 29 465901 (2017);
         "P. Giannozzi et al., J. Chem. Phys. 152 154105 (2020);
          URL http://www.quantum-espresso.org", 
     in publications or presentations arising from this work. More details at
     http://www.quantum-espresso.org/quote

     Parallel version (MPI & OpenMP), running on      36 processor cores
     Number of MPI processes:                36
     Threads/MPI process:                     1

     MPI processes distributed on     1 nodes
     550536 MiB available memory on the printing compute node when the environment starts
 
     Waiting for input...
     Reading input from standard input
Warning: card &CELL ignored
Warning: card / ignored

     Current dimensions of program PWSCF are:
     Max number of different atomic species (ntypx) = 10
     Max number of k-points (npk) =  40000
     Max angular momentum in pseudopotentials (lmaxx) =  4
     file Mo.pbe-spn-kjpaw_psl.1.0.0.UPF: wavefunction(s)  4S 4D renormalized
     file S.pbe-n-kjpaw_psl.1.0.0.UPF: wavefunction(s)  3S 3P renormalized
     file Pd.pbe-spn-kjpaw_psl.1.0.0.UPF: wavefunction(s)  4S 5S 4D renormalized
     file Pt.pbe-spfn-kjpaw_psl.1.0.0.UPF: wavefunction(s)  5P 4F renormalized
 
     R & G space division:  proc/nbgrp/npool/nimage =      36
     Subspace diagonalization in iterative solution of the eigenvalue problem:
     one sub-group per band group will be used
     scalapack distributed-memory algorithm (size of sub-group:  6*  6 procs)

 
     Parallelization info
     --------------------
     sticks:   dense  smooth     PW     G-vecs:    dense   smooth      PW
     Min         585     334     89               198743    85850   11735
     Max         586     335     90               198750    85861   11748
     Sum       21073   12049   3205              7154885  3090769  422587
 
     Using Slab Decomposition
 


     bravais-lattice index     =            0
     lattice parameter (alat)  =      23.8199  a.u.
     unit-cell volume          =   33861.0370 (a.u.)^3
     number of atoms/cell      =          195
     number of atomic types    =            4
     number of electrons       =      1732.00
     number of Kohn-Sham states=         1039
     kinetic-energy cutoff     =      77.0000  Ry
     charge density cutoff     =     539.0000  Ry
     scf convergence threshold =      1.0E-06
     mixing beta               =       0.2000
     number of iterations used =            8  plain     mixing
     energy convergence thresh.=      1.0E-04
     force convergence thresh. =      1.0E-03
     Exchange-correlation= SLA  PW   PBX  PBC
                           (   1   4   3   4   0   0   0)
     nstep                     =         1000


     Effective Screening Medium Method
     =================================
     Boundary Conditions: Vacuum-Slab-Vacuum
     total charge in unit cell        =   0.0000
     grid points for fit at edges     =        4 
 

     celldm(1)=  23.819920  celldm(2)=   0.000000  celldm(3)=   0.000000
     celldm(4)=   0.000000  celldm(5)=   0.000000  celldm(6)=   0.000000

     crystal axes: (cart. coord. in units of alat)
               a(1) = (   1.000000   0.000000   0.000000 )  
               a(2) = (  -0.499999   0.866026   0.000000 )  
               a(3) = (   0.000000   0.000000   2.893000 )  

     reciprocal axes: (cart. coord. in units 2 pi/alat)
               b(1) = (  1.000000  0.577349  0.000000 )  
               b(2) = (  0.000000  1.154700  0.000000 )  
               b(3) = (  0.000000  0.000000  0.345662 )  


     PseudoPot. # 1 for Mo read from file:
     ./pseudo/Mo.pbe-spn-kjpaw_psl.1.0.0.UPF
     MD5 check sum: 317bf72632116215fd98f72de1686f13
     Pseudo is Projector augmented-wave + core cor, Zval = 14.0
     Generated using 'atomic' code by A. Dal Corso  v.7.2
     Shape of augmentation charge: PSQ
     Using radial grid of 1229 points,  6 beta functions with: 
                l(1) =   0
                l(2) =   0
                l(3) =   1
                l(4) =   1
                l(5) =   2
                l(6) =   2
     Q(r) pseudized with 0 coefficients 


     PseudoPot. # 2 for S  read from file:
     ./pseudo/S.pbe-n-kjpaw_psl.1.0.0.UPF
     MD5 check sum: 8b7b5302570d38d5e87fed6a1065abda
     Pseudo is Projector augmented-wave + core cor, Zval =  6.0
     Generated using 'atomic' code by A. Dal Corso  v.7.2
     Shape of augmentation charge: PSQ
     Using radial grid of 1151 points,  6 beta functions with: 
                l(1) =   0
                l(2) =   0
                l(3) =   1
                l(4) =   1
                l(5) =   2
                l(6) =   2
     Q(r) pseudized with 0 coefficients 


     PseudoPot. # 3 for Pd read from file:
     ./pseudo/Pd.pbe-spn-kjpaw_psl.1.0.0.UPF
     MD5 check sum: a60571a671f2502b8a6a4569d20a6edb
     Pseudo is Projector augmented-wave + core cor, Zval = 18.0
     Generated using 'atomic' code by A. Dal Corso  v.7.2
     Shape of augmentation charge: PSQ
     Using radial grid of 1235 points,  6 beta functions with: 
                l(1) =   0
                l(2) =   0
                l(3) =   1
                l(4) =   1
                l(5) =   2
                l(6) =   2
     Q(r) pseudized with 0 coefficients 


     PseudoPot. # 4 for Pt read from file:
     ./pseudo/Pt.pbe-spfn-kjpaw_psl.1.0.0.UPF
     MD5 check sum: 620096ebf4e6ebacc94de60fd67efcb5
     Pseudo is Projector augmented-wave + core cor, Zval = 32.0
     Generated using 'atomic' code by A. Dal Corso  v.7.2
     Shape of augmentation charge: PSQ
     Using radial grid of 1277 points,  8 beta functions with: 
                l(1) =   0
                l(2) =   0
                l(3) =   1
                l(4) =   1
                l(5) =   2
                l(6) =   2
                l(7) =   3
                l(8) =   3
     Q(r) pseudized with 0 coefficients 


     atomic species   valence    mass     pseudopotential
     Mo               14.00    95.95000     Mo( 1.00)
     S                 6.00    32.06000     S ( 1.00)
     Pd               18.00   106.42000     Pd( 1.00)
     Pt               32.00   195.08400     Pt( 1.00)

     No symmetry found



   Cartesian axes

     site n.     atom                  positions (alat units)
         1        Mo     tau(   1) = (   0.0000010   0.1443372  -0.7272732  )
         2        Mo     tau(   2) = (   0.1249995   0.0721706  -0.2424038  )
         3        S      tau(   3) = (   0.0000015   0.1443386  -0.3667807  )
         4        S      tau(   4) = (   0.1250010   0.0721682  -0.6030489  )
         5        S      tau(   5) = (   0.1250010   0.0721683  -0.8514963  )
         6        S      tau(   6) = (   0.0000015   0.1443389  -0.1180260  )
         7        Mo     tau(   7) = (   0.0000222   0.1444187   0.2425595  )
         8        Mo     tau(   8) = (   0.1245966   0.0727010   0.7278826  )
         9        S      tau(   9) = (   0.0000166   0.1448419   0.6020343  )
        10        S      tau(  10) = (   0.1250561   0.0722903   0.3669179  )
        11        S      tau(  11) = (   0.1250140   0.0722444   0.1181576  )
        12        S      tau(  12) = (  -0.0013476   0.1442175   0.8515296  )
        13        Mo     tau(  13) = (  -0.1249989   0.3608437  -0.7272732  )
        14        Mo     tau(  14) = (   0.0000030   0.2886752  -0.2424042  )
        15        S      tau(  15) = (  -0.1249977   0.3608450  -0.3667802  )
        16        S      tau(  16) = (   0.0000012   0.2886747  -0.6030489  )
        17        S      tau(  17) = (   0.0000012   0.2886748  -0.8514963  )
        18        S      tau(  18) = (  -0.1249977   0.3608454  -0.1180274  )
        19        Mo     tau(  19) = (  -0.1249777   0.3609089   0.2425603  )
        20        Mo     tau(  20) = (  -0.0029637   0.2882853   0.7270120  )
        21        S      tau(  21) = (  -0.1256983   0.3625185   0.6019747  )
        22        S      tau(  22) = (   0.0000591   0.2887797   0.3669668  )
        23        S      tau(  23) = (   0.0000075   0.2887346   0.1181682  )
        24        S      tau(  24) = (  -0.1270233   0.3617098   0.8514678  )
        25        Mo     tau(  25) = (  -0.2499987   0.5773502  -0.7272732  )
        26        Mo     tau(  26) = (  -0.1249977   0.5051839  -0.2424055  )
        27        S      tau(  27) = (  -0.2499981   0.5773518  -0.3667809  )
        28        S      tau(  28) = (  -0.1249986   0.5051812  -0.6030489  )
        29        S      tau(  29) = (  -0.1249986   0.5051813  -0.8514963  )
        30        S      tau(  30) = (  -0.2499979   0.5773512  -0.1180266  )
        31        Mo     tau(  31) = (  -0.2499821   0.5774144   0.2425369  )
        32        Mo     tau(  32) = (  -0.1258229   0.5064885   0.7278520  )
        33        S      tau(  33) = (  -0.2493952   0.5788088   0.6023234  )
        34        S      tau(  34) = (  -0.1249462   0.5052707   0.3669162  )
        35        S      tau(  35) = (  -0.1249880   0.5052329   0.1181602  )
        36        S      tau(  36) = (  -0.2509230   0.5788413   0.8515814  )
        37        Mo     tau(  37) = (  -0.3749985   0.7938567  -0.7272732  )
        38        Mo     tau(  38) = (  -0.2500001   0.7216874  -0.2424031  )
        39        S      tau(  39) = (  -0.3749980   0.7938584  -0.3667800  )
        40        S      tau(  40) = (  -0.2499984   0.7216877  -0.6030489  )
        41        S      tau(  41) = (  -0.2499984   0.7216878  -0.8514963  )
        42        S      tau(  42) = (  -0.3749982   0.7938585  -0.1180264  )
        43        Mo     tau(  43) = (  -0.3749910   0.7939458   0.2425394  )
        44        Mo     tau(  44) = (  -0.2499391   0.7230231   0.7269923  )
        45        S      tau(  45) = (  -0.3746478   0.7955125   0.6023635  )
        46        S      tau(  46) = (  -0.2500018   0.7217675   0.3668983  )
        47        S      tau(  47) = (  -0.2499845   0.7217593   0.1181709  )
        48        S      tau(  48) = (  -0.3753625   0.7942039   0.8516391  )
        49        Mo     tau(  49) = (   0.2500010   0.1443372  -0.7272732  )
        50        Mo     tau(  50) = (   0.3750034   0.0721723  -0.2424032  )
        51        S      tau(  51) = (   0.2500017   0.1443391  -0.3667788  )
        52        S      tau(  52) = (   0.3750010   0.0721682  -0.6030489  )
        53        S      tau(  53) = (   0.3750010   0.0721683  -0.8514963  )
        54        S      tau(  54) = (   0.2500016   0.1443391  -0.1180271  )
        55        Mo     tau(  55) = (   0.2500120   0.1444423   0.2425270  )
        56        Mo     tau(  56) = (   0.3753385   0.0727176   0.7280385  )
        57        S      tau(  57) = (   0.2501061   0.1471948   0.6059873  )
        58        S      tau(  58) = (   0.3749665   0.0722824   0.3669588  )
        59        S      tau(  59) = (   0.3750194   0.0722259   0.1181828  )
        60        S      tau(  60) = (   0.2503224   0.1381707   0.8567863  )
        61        Mo     tau(  61) = (   0.1250012   0.3608437  -0.7272732  )
        62        Mo     tau(  62) = (   0.2500029   0.2886782  -0.2424031  )
        63        S      tau(  63) = (   0.1250024   0.3608455  -0.3667794  )
        64        S      tau(  64) = (   0.2500012   0.2886747  -0.6030489  )
        65        S      tau(  65) = (   0.2500012   0.2886748  -0.8514963  )
        66        S      tau(  66) = (   0.1250021   0.3608455  -0.1180270  )
        67        Mo     tau(  67) = (   0.1250146   0.3609220   0.2425310  )
        68        Mo     tau(  68) = (   0.2504060   0.2889449   0.7322230  )
        69        S      tau(  69) = (   0.1260377   0.3627995   0.6088284  )
        70        S      tau(  70) = (   0.2499668   0.2887692   0.3669710  )
        71        S      tau(  71) = (   0.2500114   0.2887581   0.1181457  )
        72        S      tau(  72) = (   0.1159817   0.3569446   0.8558923  )
        73        Mo     tau(  73) = (   0.0000014   0.5773502  -0.7272732  )
        74        Mo     tau(  74) = (   0.1250045   0.5051840  -0.2424036  )
        75        S      tau(  75) = (   0.0000030   0.5773520  -0.3667799  )
        76        S      tau(  76) = (   0.1250014   0.5051812  -0.6030489  )
        77        S      tau(  77) = (   0.1250014   0.5051813  -0.8514963  )
        78        S      tau(  78) = (   0.0000026   0.5773517  -0.1180274  )
        79        Mo     tau(  79) = (   0.0000277   0.5774027   0.2425352  )
        80        Mo     tau(  80) = (   0.1244123   0.5073284   0.7323387  )
        81        S      tau(  81) = (   0.0015839   0.5778224   0.6060731  )
        82        S      tau(  82) = (   0.1249885   0.5052105   0.3669878  )
        83        S      tau(  83) = (   0.1250163   0.5052440   0.1181546  )
        84        S      tau(  84) = (  -0.0063306   0.5826378   0.8568465  )
        85        Mo     tau(  85) = (  -0.1249984   0.7938567  -0.7272732  )
        86        Mo     tau(  86) = (   0.0000069   0.7216896  -0.2424039  )
        87        S      tau(  87) = (  -0.1249975   0.7938582  -0.3667782  )
        88        S      tau(  88) = (   0.0000016   0.7216877  -0.6030489  )
        89        S      tau(  89) = (   0.0000016   0.7216878  -0.8514963  )
        90        S      tau(  90) = (  -0.1249973   0.7938582  -0.1180279  )
        91        Mo     tau(  91) = (  -0.1249896   0.7939312   0.2425787  )
        92        Mo     tau(  92) = (  -0.0004661   0.7235602   0.7280479  )
        93        S      tau(  93) = (  -0.1246539   0.7952907   0.6028036  )
        94        S      tau(  94) = (   0.0000057   0.7217075   0.3669682  )
        95        S      tau(  95) = (  -0.0000058   0.7217536   0.1181837  )
        96        S      tau(  96) = (  -0.1254262   0.7948489   0.8523899  )
        97        Mo     tau(  97) = (   0.5000010   0.1443372  -0.7272732  )
        98        Mo     tau(  98) = (   0.6250001   0.0721662  -0.2424040  )
        99        S      tau(  99) = (   0.5000017   0.1443386  -0.3667801  )
       100        S      tau( 100) = (   0.6250010   0.0721682  -0.6030489  )
       101        S      tau( 101) = (   0.6250010   0.0721683  -0.8514963  )
       102        S      tau( 102) = (   0.5000020   0.1443388  -0.1180261  )
       103        Mo     tau( 103) = (   0.4999896   0.1444085   0.2425760  )
       104        Mo     tau( 104) = (   0.6249106   0.0734024   0.7271439  )
       105        S      tau( 105) = (   0.4997403   0.1454705   0.6028629  )
       106        S      tau( 106) = (   0.6250025   0.0722337   0.3669107  )
       107        S      tau( 107) = (   0.6249747   0.0722025   0.1181744  )
       108        S      tau( 108) = (   0.5004717   0.1456393   0.8518204  )
       109        Mo     tau( 109) = (   0.3750012   0.3608437  -0.7272732  )
       110        Mo     tau( 110) = (   0.4999991   0.2886761  -0.2424038  )
       111        S      tau( 111) = (   0.3750012   0.3608452  -0.3667804  )
       112        S      tau( 112) = (   0.5000012   0.2886747  -0.6030489  )
       113        S      tau( 113) = (   0.5000012   0.2886748  -0.8514963  )
       114        S      tau( 114) = (   0.3750014   0.3608455  -0.1180261  )
       115        Mo     tau( 115) = (   0.3749750   0.3609148   0.2425684  )
       116        Mo     tau( 116) = (   0.5011524   0.2898551   0.7275448  )
       117        S      tau( 117) = (   0.3735446   0.3613798   0.6062215  )
       118        S      tau( 118) = (   0.4999580   0.2887676   0.3669508  )
       119        S      tau( 119) = (   0.4999841   0.2887256   0.1181818  )
       120        S      tau( 120) = (   0.3822446   0.3659056   0.8554316  )
       121        Mo     tau( 121) = (   0.2500014   0.5773502  -0.7272732  )
       122        Mo     tau( 122) = (   0.3749983   0.5051825  -0.2424043  )
       123        S      tau( 123) = (   0.2500017   0.5773519  -0.3667810  )
       124        S      tau( 124) = (   0.3750014   0.5051812  -0.6030489  )
       125        S      tau( 125) = (   0.3750014   0.5051813  -0.8514963  )
       126        S      tau( 126) = (   0.2500018   0.5773519  -0.1180256  )
       127        Mo     tau( 127) = (   0.2499849   0.5773839   0.2425825  )
       128        Mo     tau( 128) = (   0.3768766   0.5074715   0.7281761  )
       129        S      tau( 129) = (   0.2486635   0.5776965   0.6062935  )
       130        S      tau( 130) = (   0.3749671   0.5052274   0.3670086  )
       131        S      tau( 131) = (   0.3749970   0.5052445   0.1181960  )
       132        S      tau( 132) = (   0.2571816   0.5830870   0.8554758  )
       133        Mo     tau( 133) = (   0.1250016   0.7938567  -0.7272732  )
       134        Mo     tau( 134) = (   0.2499995   0.7216883  -0.2424036  )
       135        S      tau( 135) = (   0.1250024   0.7938578  -0.3667813  )
       136        S      tau( 136) = (   0.2500016   0.7216877  -0.6030489  )
       137        S      tau( 137) = (   0.2500016   0.7216878  -0.8514963  )
       138        S      tau( 138) = (   0.1250024   0.7938579  -0.1180253  )
       139        Mo     tau( 139) = (   0.1249925   0.7938982   0.2425783  )
       140        Mo     tau( 140) = (   0.2504874   0.7240318   0.7276005  )
       141        S      tau( 141) = (   0.1247502   0.7949264   0.6029133  )
       142        S      tau( 142) = (   0.2499928   0.7217086   0.3669584  )
       143        S      tau( 143) = (   0.2499817   0.7217168   0.1181890  )
       144        S      tau( 144) = (   0.1251679   0.7955203   0.8518202  )
       145        Mo     tau( 145) = (   0.7500010   0.1443372  -0.7272732  )
       146        Mo     tau( 146) = (   0.8750038   0.0721696  -0.2424038  )
       147        S      tau( 147) = (   0.7500016   0.1443382  -0.3667789  )
       148        S      tau( 148) = (   0.8750010   0.0721682  -0.6030489  )
       149        S      tau( 149) = (   0.8750010   0.0721683  -0.8514963  )
       150        S      tau( 150) = (   0.7500016   0.1443384  -0.1180279  )
       151        Mo     tau( 151) = (   0.7499969   0.1443861   0.2425090  )
       152        Mo     tau( 152) = (   0.8747528   0.0730779   0.7263799  )
       153        S      tau( 153) = (   0.7495020   0.1453181   0.6020842  )
       154        S      tau( 154) = (   0.8749912   0.0722441   0.3668818  )
       155        S      tau( 155) = (   0.8750227   0.0722127   0.1181591  )
       156        S      tau( 156) = (   0.7499182   0.1456588   0.8509527  )
       157        Mo     tau( 157) = (   0.6250012   0.3608437  -0.7272732  )
       158        Mo     tau( 158) = (   0.7500028   0.2886769  -0.2424041  )
       159        S      tau( 159) = (   0.6250015   0.3608451  -0.3667792  )
       160        S      tau( 160) = (   0.7500012   0.2886747  -0.6030489  )
       161        S      tau( 161) = (   0.7500012   0.2886748  -0.8514963  )
       162        S      tau( 162) = (   0.6250016   0.3608454  -0.1180280  )
       163        Mo     tau( 163) = (   0.6249910   0.3608952   0.2425431  )
       164        Mo     tau( 164) = (   0.7494837   0.2899696   0.7262894  )
       165        S      tau( 165) = (   0.6246231   0.3621365   0.6018551  )
       166        S      tau( 166) = (   0.7500034   0.2887135   0.3668814  )
       167        S      tau( 167) = (   0.7500079   0.2887338   0.1181595  )
       168        S      tau( 168) = (   0.6260048   0.3625460   0.8512927  )
       169        Mo     tau( 169) = (   0.5000014   0.5773502  -0.7272732  )
       170        Mo     tau( 170) = (   0.6250029   0.5051841  -0.2424047  )
       171        S      tau( 171) = (   0.5000014   0.5773518  -0.3667794  )
       172        S      tau( 172) = (   0.6250014   0.5051812  -0.6030489  )
       173        S      tau( 173) = (   0.6250014   0.5051813  -0.8514963  )
       174        S      tau( 174) = (   0.5000016   0.5773516  -0.1180277  )
       175        Mo     tau( 175) = (   0.4999891   0.5774067   0.2425764  )
       176        Mo     tau( 176) = (   0.6253058   0.5066864   0.7263366  )
       177        S      tau( 177) = (   0.5001147   0.5786992   0.6018768  )
       178        S      tau( 178) = (   0.6250219   0.5052389   0.3668960  )
       179        S      tau( 179) = (   0.6249897   0.5052360   0.1181749  )
       180        S      tau( 180) = (   0.5022411   0.5798745   0.8515808  )
       181        Mo     tau( 181) = (   0.3750016   0.7938567  -0.7272732  )
       182        Mo     tau( 182) = (   0.5000025   0.7216901  -0.2424039  )
       183        S      tau( 183) = (   0.3750019   0.7938578  -0.3667793  )
       184        S      tau( 184) = (   0.5000016   0.7216877  -0.6030489  )
       185        S      tau( 185) = (   0.5000016   0.7216878  -0.8514963  )
       186        S      tau( 186) = (   0.3750020   0.7938579  -0.1180272  )
       187        Mo     tau( 187) = (   0.3749890   0.7939067   0.2425443  )
       188        Mo     tau( 188) = (   0.5002702   0.7230996   0.7264112  )
       189        S      tau( 189) = (   0.3747820   0.7948530   0.6019718  )
       190        S      tau( 190) = (   0.5000014   0.7217825   0.3669010  )
       191        S      tau( 191) = (   0.5000049   0.7217309   0.1181759  )
       192        S      tau( 192) = (   0.3757788   0.7958654   0.8513800  )
       193        Pd     tau( 193) = (   0.1298567   0.5028633   0.9631584  )
       194        Pd     tau( 194) = (   0.2489715   0.2959876   0.9631435  )
       195        Pt     tau( 195) = (  -0.1258235   0.5064673   0.9758858  )

     --------------------------------------------
     DFT-D3 Dispersion Correction (3-body terms):
     --------------------------------------------
       Reference C6 values for interpolation: 

         atom   Coordination number   C6
         S          0.000           268.01
         S          0.995           261.99
         S          1.990           251.62
         Mo         0.000          1691.79
         Mo         1.942          1004.01
         Mo        11.056           674.22
         Pd         0.000          1217.01
         Pd         1.863           573.90
         Pd         5.710           531.75
         Pt         0.000           782.29
         Pt         1.919           692.72
         Pt         6.667           673.75

       Values used:

         atom   Coordination number  R0_AB[au]  C6      C8
         Mo        10.208            3.547    674.22  77634.20
         Mo        10.221            3.547    674.22  77634.20
         S          3.858            3.128    251.62  12327.25
         S          3.859            3.128    251.62  12327.25
         S          3.758            3.128    251.62  12327.25
         S          3.859            3.128    251.62  12327.25
         Mo        10.220            3.547    674.22  77634.20
         Mo        10.221            3.547    674.22  77634.20
         S          3.841            3.128    251.62  12327.25
         S          3.858            3.128    251.62  12327.25
         S          3.858            3.128    251.62  12327.25
         S          3.815            3.128    251.62  12327.25
         Mo        10.208            3.547    674.22  77634.20
         Mo        10.221            3.547    674.22  77634.20
         S          3.858            3.128    251.62  12327.25
         S          3.859            3.128    251.62  12327.25
         S          3.758            3.128    251.62  12327.25
         S          3.859            3.128    251.62  12327.25
         Mo        10.220            3.547    674.22  77634.20
         Mo        10.190            3.547    674.22  77634.20
         S          3.842            3.128    251.62  12327.25
         S          3.854            3.128    251.62  12327.25
         S          3.858            3.128    251.62  12327.25
         S          4.767            3.128    251.62  12327.25
         Mo        10.208            3.547    674.22  77634.20
         Mo        10.221            3.547    674.22  77634.20
         S          3.858            3.128    251.62  12327.25
         S          3.859            3.128    251.62  12327.25
         S          3.758            3.128    251.62  12327.25
         S          3.859            3.128    251.62  12327.25
         Mo        10.219            3.547    674.22  77634.20
         Mo        10.748            3.547    674.22  77634.20
         S          3.851            3.128    251.62  12327.25
         S          3.858            3.128    251.62  12327.25
         S          3.858            3.128    251.62  12327.25
         S          4.769            3.128    251.62  12327.25
         Mo        10.208            3.547    674.22  77634.20
         Mo        10.220            3.547    674.22  77634.20
         S          3.858            3.128    251.62  12327.25
         S          3.859            3.128    251.62  12327.25
         S          3.758            3.128    251.62  12327.25
         S          3.859            3.128    251.62  12327.25
         Mo        10.219            3.547    674.22  77634.20
         Mo        10.260            3.547    674.22  77634.20
         S          3.851            3.128    251.62  12327.25
         S          3.860            3.128    251.62  12327.25
         S          3.859            3.128    251.62  12327.25
         S          3.815            3.128    251.62  12327.25
         Mo        10.208            3.547    674.22  77634.20
         Mo        10.221            3.547    674.22  77634.20
         S          3.858            3.128    251.62  12327.25
         S          3.859            3.128    251.62  12327.25
         S          3.758            3.128    251.62  12327.25
         S          3.859            3.128    251.62  12327.25
         Mo        10.221            3.547    674.22  77634.20
         Mo        10.228            3.547    674.22  77634.20
         S          3.853            3.128    251.62  12327.25
         S          3.856            3.128    251.62  12327.25
         S          3.859            3.128    251.62  12327.25
         S          4.644            3.128    251.62  12327.25
         Mo        10.208            3.547    674.22  77634.20
         Mo        10.221            3.547    674.22  77634.20
         S          3.858            3.128    251.62  12327.25
         S          3.859            3.128    251.62  12327.25
         S          3.758            3.128    251.62  12327.25
         S          3.859            3.128    251.62  12327.25
         Mo        10.222            3.547    674.22  77634.20
         Mo        10.783            3.547    674.22  77634.20
         S          3.878            3.128    251.62  12327.25
         S          3.850            3.128    251.62  12327.25
         S          3.859            3.128    251.62  12327.25
         S          5.621            3.128    251.62  12327.25
         Mo        10.208            3.547    674.22  77634.20
         Mo        10.221            3.547    674.22  77634.20
         S          3.858            3.128    251.62  12327.25
         S          3.859            3.128    251.62  12327.25
         S          3.758            3.128    251.62  12327.25
         S          3.859            3.128    251.62  12327.25
         Mo        10.221            3.547    674.22  77634.20
         Mo        10.794            3.547    674.22  77634.20
         S          3.855            3.128    251.62  12327.25
         S          3.849            3.128    251.62  12327.25
         S          3.859            3.128    251.62  12327.25
         S          5.617            3.128    251.62  12327.25
         Mo        10.208            3.547    674.22  77634.20
         Mo        10.221            3.547    674.22  77634.20
         S          3.858            3.128    251.62  12327.25
         S          3.859            3.128    251.62  12327.25
         S          3.758            3.128    251.62  12327.25
         S          3.859            3.128    251.62  12327.25
         Mo        10.220            3.547    674.22  77634.20
         Mo        10.238            3.547    674.22  77634.20
         S          3.847            3.128    251.62  12327.25
         S          3.855            3.128    251.62  12327.25
         S          3.859            3.128    251.62  12327.25
         S          3.838            3.128    251.62  12327.25
         Mo        10.208            3.547    674.21  77634.20
         Mo        10.221            3.547    674.22  77634.20
         S          3.858            3.128    251.62  12327.25
         S          3.859            3.128    251.62  12327.25
         S          3.758            3.128    251.62  12327.25
         S          3.859            3.128    251.62  12327.25
         Mo        10.221            3.547    674.22  77634.20
         Mo        10.243            3.547    674.22  77634.20
         S          3.860            3.128    251.62  12327.25
         S          3.860            3.128    251.62  12327.25
         S          3.859            3.128    251.62  12327.25
         S          3.765            3.128    251.62  12327.25
         Mo        10.208            3.547    674.22  77634.20
         Mo        10.221            3.547    674.22  77634.20
         S          3.858            3.128    251.62  12327.25
         S          3.859            3.128    251.62  12327.25
         S          3.758            3.128    251.62  12327.25
         S          3.859            3.128    251.62  12327.25
         Mo        10.222            3.547    674.22  77634.20
         Mo        10.216            3.547    674.22  77634.20
         S          3.862            3.128    251.62  12327.25
         S          3.856            3.128    251.62  12327.25
         S          3.859            3.128    251.62  12327.25
         S          4.667            3.128    251.62  12327.25
         Mo        10.208            3.547    674.21  77634.20
         Mo        10.221            3.547    674.22  77634.20
         S          3.858            3.128    251.62  12327.25
         S          3.859            3.128    251.62  12327.25
         S          3.758            3.128    251.62  12327.25
         S          3.859            3.128    251.62  12327.25
         Mo        10.222            3.547    674.22  77634.20
         Mo        10.177            3.547    674.22  77634.20
         S          3.863            3.128    251.62  12327.25
         S          3.852            3.128    251.62  12327.25
         S          3.859            3.128    251.62  12327.25
         S          4.669            3.128    251.62  12327.25
         Mo        10.208            3.547    674.22  77634.20
         Mo        10.221            3.547    674.22  77634.20
         S          3.858            3.128    251.62  12327.25
         S          3.859            3.128    251.62  12327.25
         S          3.758            3.128    251.62  12327.25
         S          3.859            3.128    251.62  12327.25
         Mo        10.221            3.547    674.22  77634.20
         Mo        10.215            3.547    674.22  77634.20
         S          3.860            3.128    251.62  12327.25
         S          3.856            3.128    251.62  12327.25
         S          3.859            3.128    251.62  12327.25
         S          3.766            3.128    251.62  12327.25
         Mo        10.208            3.547    674.22  77634.20
         Mo        10.221            3.547    674.22  77634.20
         S          3.858            3.128    251.62  12327.25
         S          3.859            3.128    251.62  12327.25
         S          3.758            3.128    251.62  12327.25
         S          3.859            3.128    251.62  12327.25
         Mo        10.220            3.547    674.22  77634.20
         Mo        10.267            3.547    674.22  77634.20
         S          3.858            3.128    251.62  12327.25
         S          3.861            3.128    251.62  12327.25
         S          3.858            3.128    251.62  12327.25
         S          3.782            3.128    251.62  12327.25
         Mo        10.208            3.547    674.21  77634.20
         Mo        10.220            3.547    674.22  77634.20
         S          3.858            3.128    251.62  12327.25
         S          3.859            3.128    251.62  12327.25
         S          3.758            3.128    251.62  12327.25
         S          3.859            3.128    251.62  12327.25
         Mo        10.220            3.547    674.22  77634.20
         Mo        10.277            3.547    674.22  77634.20
         S          3.850            3.128    251.62  12327.25
         S          3.862            3.128    251.62  12327.25
         S          3.858            3.128    251.62  12327.25
         S          3.825            3.128    251.62  12327.25
         Mo        10.208            3.547    674.22  77634.20
         Mo        10.221            3.547    674.22  77634.20
         S          3.858            3.128    251.62  12327.25
         S          3.859            3.128    251.62  12327.25
         S          3.758            3.128    251.62  12327.25
         S          3.859            3.128    251.62  12327.25
         Mo        10.220            3.547    674.21  77634.20
         Mo        10.272            3.547    674.22  77634.20
         S          3.838            3.128    251.62  12327.25
         S          3.861            3.128    251.62  12327.25
         S          3.859            3.128    251.62  12327.25
         S          3.842            3.128    251.62  12327.25
         Mo        10.208            3.547    674.22  77634.20
         Mo        10.221            3.547    674.22  77634.20
         S          3.858            3.128    251.62  12327.25
         S          3.859            3.128    251.62  12327.25
         S          3.758            3.128    251.62  12327.25
         S          3.859            3.128    251.62  12327.25
         Mo        10.220            3.547    674.22  77634.20
         Mo        10.262            3.547    674.22  77634.20
         S          3.850            3.128    251.62  12327.25
         S          3.861            3.128    251.62  12327.25
         S          3.859            3.128    251.62  12327.25
         S          3.812            3.128    251.62  12327.25
         Pd         4.235            3.168    531.75  48720.73
         Pd         4.045            3.168    531.76  48722.00
         Pt         3.704            3.168    692.72  72035.25

         Molecular C6 ( Ry / a.u.^6 ) =  14152459.63


     number of k points=     4  Gaussian smearing, width (Ry)=  0.0100
                       cart. coord. in units 2pi/alat
        k(    1) = (   0.0000000   0.0000000   0.0000000), wk =   0.5000000
        k(    2) = (   0.0000000  -0.5773499   0.0000000), wk =   0.5000000
        k(    3) = (  -0.5000000  -0.2886744   0.0000000), wk =   0.5000000
        k(    4) = (  -0.5000000  -0.8660242   0.0000000), wk =   0.5000000

     Dense  grid:  7154885 G-vectors     FFT dimensions: ( 180, 180, 512)

     Smooth grid:  3090769 G-vectors     FFT dimensions: ( 135, 135, 400)

     Estimated max dynamical RAM per process >       4.32 GB

     Estimated total dynamical RAM >     155.52 GB

     Initial potential from superposition of free atoms

     starting charge    1731.9386, renormalised to    1732.0000

     negative rho (up, down):  1.014E-03 0.000E+00
     Starting wfcs are 1189 randomized atomic wfcs
     Checking if some PAW data can be deallocated... 

     total cpu time spent up to now is      181.0 secs

     Self-consistent Calculation

     iteration #  1     ecut=    77.00 Ry     beta= 0.20
     Davidson diagonalization with overlap
     ethr =  1.00E-02,  avg # of iterations =  2.0

     Threshold (ethr) on eigenvalues was too large:
     Diagonalizing with lowered threshold

     Davidson diagonalization with overlap
     ethr =  2.00E-04,  avg # of iterations = 17.0

     negative rho (up, down):  2.816E-04 0.000E+00

     total cpu time spent up to now is     2110.8 secs

     total energy              =  -34492.06531121 Ry
     estimated scf accuracy    <       6.45242806 Ry

     iteration #  2     ecut=    77.00 Ry     beta= 0.20
     Davidson diagonalization with overlap
     ethr =  3.73E-04,  avg # of iterations =  2.0

     negative rho (up, down):  4.078E-05 0.000E+00

     total cpu time spent up to now is     2525.4 secs

     total energy              =  -34491.01021574 Ry
     estimated scf accuracy    <       3.28229813 Ry

     iteration #  3     ecut=    77.00 Ry     beta= 0.20
     Davidson diagonalization with overlap
     ethr =  1.90E-04,  avg # of iterations = 12.5

     negative rho (up, down):  1.977E-05 0.000E+00

     total cpu time spent up to now is     3028.2 secs

     total energy              =  -34491.31081817 Ry
     estimated scf accuracy    <       1.09202676 Ry

     iteration #  4     ecut=    77.00 Ry     beta= 0.20
     Davidson diagonalization with overlap
     ethr =  6.31E-05,  avg # of iterations = 14.0

     negative rho (up, down):  2.271E-05 0.000E+00

     total cpu time spent up to now is     3943.6 secs

     total energy              =  -34491.87496697 Ry
     estimated scf accuracy    <       0.34034073 Ry

     iteration #  5     ecut=    77.00 Ry     beta= 0.20
     Davidson diagonalization with overlap
     c_bands:  1 eigenvalues not converged
     ethr =  1.97E-05,  avg # of iterations = 16.8

     negative rho (up, down):  4.486E-05 0.000E+00

     total cpu time spent up to now is     4886.1 secs

     total energy              =  -34492.15380823 Ry
     estimated scf accuracy    <       0.15391039 Ry

     iteration #  6     ecut=    77.00 Ry     beta= 0.20
     Davidson diagonalization with overlap
     c_bands:  1 eigenvalues not converged
     c_bands:  2 eigenvalues not converged
     ethr =  8.89E-06,  avg # of iterations = 20.0

     negative rho (up, down):  1.592E-04 0.000E+00

     total cpu time spent up to now is     5714.4 secs

     total energy              =  -34492.18397388 Ry
     estimated scf accuracy    <       0.10619113 Ry

     iteration #  7     ecut=    77.00 Ry     beta= 0.20
     Davidson diagonalization with overlap
     c_bands:  2 eigenvalues not converged
     ethr =  6.13E-06,  avg # of iterations = 12.2

     negative rho (up, down):  8.297E-04 0.000E+00

     total cpu time spent up to now is     6190.7 secs

     total energy              =  -34492.19154684 Ry
     estimated scf accuracy    <       0.04689798 Ry

     iteration #  8     ecut=    77.00 Ry     beta= 0.20
     Davidson diagonalization with overlap
     c_bands:  3 eigenvalues not converged
     c_bands:  2 eigenvalues not converged
     c_bands:  5 eigenvalues not converged
     c_bands:  1 eigenvalues not converged
     ethr =  2.71E-06,  avg # of iterations = 35.0

     negative rho (up, down):  5.989E-04 0.000E+00

     total cpu time spent up to now is     7641.5 secs

     total energy              =  -34492.21527278 Ry
     estimated scf accuracy    <       0.05951105 Ry

     iteration #  9     ecut=    77.00 Ry     beta= 0.20
     Davidson diagonalization with overlap
     c_bands:  4 eigenvalues not converged
     c_bands:  1 eigenvalues not converged
     ethr =  2.71E-06,  avg # of iterations = 12.2

     negative rho (up, down):  4.891E-04 0.000E+00

     total cpu time spent up to now is     8104.0 secs

     total energy              =  -34492.21421190 Ry
     estimated scf accuracy    <       0.00990078 Ry

     iteration # 10     ecut=    77.00 Ry     beta= 0.20
     Davidson diagonalization with overlap
     c_bands:  2 eigenvalues not converged
     c_bands:  3 eigenvalues not converged
     c_bands:  5 eigenvalues not converged
     ethr =  5.72E-07,  avg # of iterations = 46.0

     negative rho (up, down):  5.602E-04 0.000E+00

     total cpu time spent up to now is    10207.0 secs

     total energy              =  -34492.23419222 Ry
     estimated scf accuracy    <       0.01809781 Ry

     iteration # 11     ecut=    77.00 Ry     beta= 0.20
     Davidson diagonalization with overlap
     c_bands:  1 eigenvalues not converged
     ethr =  5.72E-07,  avg # of iterations = 11.2

     negative rho (up, down):  7.828E-04 0.000E+00

     total cpu time spent up to now is    10730.1 secs

     total energy              =  -34492.22805609 Ry
     estimated scf accuracy    <       0.01095422 Ry

     iteration # 12     ecut=    77.00 Ry     beta= 0.20
     Davidson diagonalization with overlap
     ethr =  5.72E-07,  avg # of iterations =  5.2

     negative rho (up, down):  8.144E-04 0.000E+00

     total cpu time spent up to now is    11324.9 secs

     total energy              =  -34492.23071884 Ry
     estimated scf accuracy    <       0.00050261 Ry

     iteration # 13     ecut=    77.00 Ry     beta= 0.20
     Davidson diagonalization with overlap
     c_bands:  2 eigenvalues not converged
     c_bands:  4 eigenvalues not converged
     ethr =  2.90E-08,  avg # of iterations = 21.0

     negative rho (up, down):  8.032E-04 0.000E+00

     total cpu time spent up to now is    13573.7 secs

     total energy              =  -34492.23310435 Ry
     estimated scf accuracy    <       0.00099446 Ry

     iteration # 14     ecut=    77.00 Ry     beta= 0.20
     Davidson diagonalization with overlap
     ethr =  2.90E-08,  avg # of iterations =  1.0

     negative rho (up, down):  8.262E-04 0.000E+00

     total cpu time spent up to now is    13948.6 secs

     total energy              =  -34492.23270810 Ry
     estimated scf accuracy    <       0.00071978 Ry

     iteration # 15     ecut=    77.00 Ry     beta= 0.20
     Davidson diagonalization with overlap
     ethr =  2.90E-08,  avg # of iterations =  7.5

     negative rho (up, down):  9.034E-04 0.000E+00

     total cpu time spent up to now is    14587.5 secs

     total energy              =  -34492.23287688 Ry
     estimated scf accuracy    <       0.00005162 Ry

     iteration # 16     ecut=    77.00 Ry     beta= 0.20
     Davidson diagonalization with overlap
     c_bands:  1 eigenvalues not converged
     c_bands:  4 eigenvalues not converged
     ethr =  2.98E-09,  avg # of iterations = 19.8

     negative rho (up, down):  9.143E-04 0.000E+00

     total cpu time spent up to now is    15914.6 secs

     total energy              =  -34492.23295979 Ry
     estimated scf accuracy    <       0.00002280 Ry

     iteration # 17     ecut=    77.00 Ry     beta= 0.20
     Davidson diagonalization with overlap
     c_bands:  1 eigenvalues not converged
     ethr =  1.32E-09,  avg # of iterations = 15.8

     negative rho (up, down):  9.179E-04 0.000E+00

     total cpu time spent up to now is    16690.9 secs

     total energy              =  -34492.23297390 Ry
     estimated scf accuracy    <       0.00000975 Ry

     iteration # 18     ecut=    77.00 Ry     beta= 0.20
     Davidson diagonalization with overlap
     c_bands:  1 eigenvalues not converged
     ethr =  5.63E-10,  avg # of iterations = 16.2

     negative rho (up, down):  9.204E-04 0.000E+00

     total cpu time spent up to now is    17571.4 secs

     total energy              =  -34492.23297031 Ry
     estimated scf accuracy    <       0.00002423 Ry

     iteration # 19     ecut=    77.00 Ry     beta= 0.20
     Davidson diagonalization with overlap
     c_bands:  2 eigenvalues not converged
     ethr =  5.63E-10,  avg # of iterations =  7.8

     negative rho (up, down):  9.236E-04 0.000E+00

     total cpu time spent up to now is    18009.3 secs

     total energy              =  -34492.23296272 Ry
     estimated scf accuracy    <       0.00000860 Ry

     iteration # 20     ecut=    77.00 Ry     beta= 0.20
     Davidson diagonalization with overlap
     c_bands:  2 eigenvalues not converged
     ethr =  4.97E-10,  avg # of iterations = 10.0

     negative rho (up, down):  9.253E-04 0.000E+00

     total cpu time spent up to now is    18860.8 secs

     total energy              =  -34492.23296867 Ry
     estimated scf accuracy    <       0.00000461 Ry

     iteration # 21     ecut=    77.00 Ry     beta= 0.20
     Davidson diagonalization with overlap
     ethr =  2.66E-10,  avg # of iterations =  2.0

     negative rho (up, down):  9.270E-04 0.000E+00

     total cpu time spent up to now is    19274.9 secs

     total energy              =  -34492.23296742 Ry
     estimated scf accuracy    <       0.00000101 Ry

     iteration # 22     ecut=    77.00 Ry     beta= 0.20
     Davidson diagonalization with overlap
     c_bands:  2 eigenvalues not converged
     ethr =  5.80E-11,  avg # of iterations = 19.2

     negative rho (up, down):  9.280E-04 0.000E+00

     total cpu time spent up to now is    20450.9 secs

     End of self-consistent calculation

          k = 0.0000 0.0000 0.0000 (386245 PWs)   bands (ev):

  -102.2017 -88.8746 -88.8006 -70.5413 -70.5404 -70.5184 -70.5139 -70.5004
   -70.4871 -70.4755 -66.6107 -66.6106 -66.6094 -66.6023 -66.5898 -66.5895
   -66.5895 -66.5894 -66.5894 -66.5894 -66.5894 -66.5894 -66.5894 -66.5894
   -66.5893 -66.5892 -66.5890 -66.5881 -66.5881 -66.5881 -66.5881 -66.5881
   -66.5881 -66.5830 -66.5775 -66.5718 -66.5682 -66.5681 -66.5681 -66.5680
   -66.5680 -66.5680 -66.5680 -66.5680 -66.5680 -66.5680 -66.5680 -66.5680
   -66.5680 -66.5680 -66.5679 -66.5679 -66.5677 -66.5674 -66.5669 -66.5667
   -66.5667 -66.5667 -66.5667 -66.5667 -66.5667 -66.5667 -66.5667 -66.5667
   -66.5652 -66.5598 -66.5579 -66.5519 -66.5475 -66.5451 -66.5419 -66.5373
   -66.5203 -66.5124 -56.4925 -56.4217 -56.3743 -54.6957 -54.6671 -54.6560
   -54.6363 -54.5797 -54.5479 -40.9381 -40.9381 -40.9381 -40.9381 -40.9379
   -40.9379 -40.9375 -40.9375 -40.9375 -40.9216 -40.9181 -40.9145 -40.8628
   -40.8628 -40.8628 -40.8628 -40.8628 -40.8628 -40.8628 -40.8627 -40.8627
   -40.8626 -40.8625 -40.8624 -40.8621 -40.8621 -40.8621 -40.8621 -40.8621
   -40.8621 -40.8501 -40.8447 -40.8380 -40.8345 -40.8317 -40.8289 -40.7798
   -40.7703 -40.7702 -40.7697 -40.7554 -40.7395 -40.7365 -40.7365 -40.7365
   -40.7365 -40.7365 -40.7365 -40.7364 -40.7364 -40.7364 -40.7363 -40.7362
   -40.7361 -40.7357 -40.7357 -40.7357 -40.7357 -40.7356 -40.7356 -40.7337
   -40.7296 -40.7288 -40.7287 -40.7286 -40.7286 -40.7286 -40.7286 -40.7286
   -40.7286 -40.7286 -40.7285 -40.7284 -40.7282 -40.7279 -40.7279 -40.7279
   -40.7279 -40.7279 -40.7279 -40.7239 -40.7226 -40.7204 -40.7197 -40.7163
   -40.7109 -40.7073 -40.7030 -40.7015 -40.7014 -40.7014 -40.7014 -40.7014
   -40.7014 -40.7014 -40.7014 -40.7013 -40.7012 -40.7012 -40.7011 -40.7006
   -40.7006 -40.7006 -40.7006 -40.7006 -40.7006 -40.6970 -40.6954 -40.6896
   -40.6875 -40.6869 -40.6868 -40.6867 -40.6867 -40.6867 -40.6867 -40.6866
   -40.6866 -40.6866 -40.6866 -40.6866 -40.6866 -40.6866 -40.6866 -40.6866
   -40.6865 -40.6864 -40.6863 -40.6860 -40.6859 -40.6859 -40.6859 -40.6859
   -40.6859 -40.6859 -40.6859 -40.6859 -40.6859 -40.6849 -40.6818 -40.6816
   -40.6783 -40.6767 -40.6748 -40.6706 -40.6699 -40.6634 -40.6601 -40.6231
   -40.6231 -40.6231 -40.6231 -40.6229 -40.6229 -40.6222 -40.6222 -40.6222
   -40.6042 -40.5999 -40.5960 -40.5760 -40.5760 -40.5760 -40.5760 -40.5760
   -40.5760 -40.5760 -40.5760 -40.5759 -40.5757 -40.5757 -40.5756 -40.5750
   -40.5750 -40.5750 -40.5750 -40.5750 -40.5750 -40.5572 -40.5526 -40.5500
   -40.5474 -40.5429 -40.5381 -40.5284 -40.5284 -40.5282 -40.5282 -40.5273
   -40.5273 -40.5005 -40.4920 -20.1986 -20.0870 -19.9844 -19.8762 -19.5323
   -19.4880 -19.3086 -19.2584 -19.2470 -19.2371 -19.2234 -19.2228 -19.2175
   -19.2074 -19.1990 -19.1818 -19.1362 -19.1347 -19.1268 -19.1191 -19.1137
   -19.0998 -19.0318 -19.0306 -19.0266 -19.0238 -19.0223 -19.0173 -18.9077
   -18.7936 -18.7488 -18.6651 -18.6045 -18.5511 -18.5231 -18.5087 -18.4957
   -18.4805 -18.4475 -18.4365 -18.4096 -18.4049 -18.3993 -18.3955 -18.3565
   -18.3388 -18.2838 -18.2786 -18.2709 -18.2691 -18.2564 -18.2357 -18.1946
   -18.1910 -18.1717 -18.1711 -18.1688 -18.1609 -18.1525 -18.1497 -18.1145
   -18.1080 -18.1070 -18.1059 -18.1057 -18.1047 -18.0959 -18.0778 -18.0744
   -18.0707 -18.0699 -18.0643 -18.0634 -18.0622 -18.0618 -18.0561 -18.0420
   -18.0364 -18.0346 -18.0331 -18.0247 -18.0207 -18.0186 -18.0063 -18.0028
   -17.9972 -17.9929 -17.9917 -17.9875 -17.9782 -17.9760 -17.9743 -17.9461
   -17.9381 -17.9321 -17.9304 -17.9237 -17.9110 -17.9069 -17.9051 -17.9031
   -17.8849 -17.8801 -17.8795 -17.8697 -17.8666 -17.8626 -17.8567 -17.8554
   -17.8519 -17.8452 -17.8442 -17.8436 -17.8280 -17.8272 -17.8270 -17.8177
   -17.8157 -17.8143 -17.8099 -17.8085 -17.8067 -17.7840 -17.7836 -17.7833
   -17.7819 -17.7811 -17.7805 -12.1225 -12.0560 -11.9863 -11.9314 -11.8106
   -11.7848 -11.7835 -11.7731 -11.6738 -11.6661 -11.6577 -11.5734 -11.5457
   -11.5438 -11.5271 -11.4932 -11.3732 -11.3138 -11.3039 -11.2758 -11.2422
   -11.2285 -11.2231 -11.2216 -11.2029 -11.1812 -11.1553 -11.1343 -11.1287
   -11.1182 -11.1152 -11.1135 -11.1118 -11.1069 -11.0994 -11.0770 -11.0649
   -11.0590 -11.0535 -11.0493 -11.0396 -11.0383 -11.0322 -11.0269 -11.0156
   -11.0109 -10.9830 -10.9626 -10.9480 -10.9452 -10.9364 -10.9298 -10.9290
   -10.9123 -10.8937 -10.8866 -10.8802 -10.8758 -10.8737 -10.8658 -10.8637
   -10.8458 -10.8397 -10.8359 -10.8297 -10.8272 -10.8249 -10.8168 -10.8156
   -10.8153 -10.8122 -10.8114 -10.8051 -10.7987 -10.7947 -10.7919 -10.7678
   -10.7672 -10.7658 -10.7641 -10.7636 -10.7592 -10.7566 -10.7544 -10.7460
   -10.7245 -10.7243 -10.7236 -10.7236 -10.7228 -10.7206 -10.6601 -10.6538
   -10.6471 -10.6122 -10.6075 -10.5945 -10.5771 -10.5756 -10.5706 -10.5286
   -10.4951 -10.3479 -10.2788 -10.2256 -10.1611 -10.1230 -10.0970 -10.0323
    -9.9635  -9.9261  -9.8928  -9.8679  -9.8332  -9.8104  -9.8047  -9.7961
    -9.7877  -9.7786  -9.7683  -9.7632  -9.7592  -9.7584  -9.7545  -9.7509
    -9.7488  -9.7414  -9.7395  -9.7359  -9.7350  -9.7288  -9.7212  -9.7015
    -9.6909  -9.6702  -9.6617  -9.6292  -9.6201  -9.6174  -9.6149  -9.6122
    -9.6092  -9.6052  -9.6048  -9.6030  -9.6016  -9.5999  -9.5986  -9.5723
    -9.5616  -9.5404  -9.5290  -9.5283  -9.5281  -9.5280  -9.5278  -9.5274
    -9.5250  -9.5198  -9.5138  -9.4984  -9.4939  -9.4892  -9.4796  -9.4660
    -9.4416  -9.4048  -9.3749  -9.3594  -9.3581  -9.3547  -9.3471  -9.3420
    -9.3350  -9.3288  -9.3217  -9.3171  -9.3064  -9.2965  -9.2788  -9.2445
    -9.2346  -9.2304  -9.2279  -9.2188  -9.2065  -9.1842  -9.1751  -9.1705
    -9.1695  -9.1685  -9.1669  -9.1637  -9.1396  -9.1374  -9.1178  -9.0994
    -9.0934  -9.0806  -9.0421  -9.0380  -8.9998  -8.9934  -8.9684  -8.9666
    -8.9659  -8.9518  -8.9421  -8.9347  -8.9342  -8.9211  -8.9039  -8.9038
    -8.9031  -8.9005  -8.8930  -8.8869  -8.8848  -8.8770  -8.8718  -8.8088
    -8.8083  -8.8079  -8.8077  -8.8072  -8.8069  -8.7602  -8.7484  -8.7461
    -8.7347  -8.7314  -8.7270  -8.6911  -8.6676  -8.6604  -8.6569  -8.6529
    -8.6482  -8.6429  -8.6036  -8.5881  -8.5820  -8.5793  -8.5784  -8.5763
    -8.5748  -8.5513  -8.5094  -8.4849  -8.3773  -8.3677  -8.3529  -8.3529
    -8.3479  -8.3476  -8.3428  -8.3413  -8.3399  -8.3280  -8.2941  -8.2764
    -8.2626  -8.2621  -8.2621  -8.2618  -8.2608  -8.2591  -8.2382  -8.2357
    -8.2354  -8.2349  -8.2337  -8.2324  -8.2157  -8.2078  -8.2073  -8.2071
    -8.2066  -8.2061  -8.2021  -8.1602  -8.0759  -8.0446  -7.9812  -7.8981
    -7.8451  -7.8423  -7.8419  -7.7830  -7.7708  -7.7519  -7.7455  -7.7095
    -7.6915  -7.6720  -7.6549  -7.6352  -7.6330  -7.6253  -7.6142  -7.6094
    -7.5971  -7.5904  -7.5888  -7.5797  -7.5688  -7.5602  -7.5589  -7.5370
    -7.5330  -7.5210  -7.5208  -7.5205  -7.5198  -7.5195  -7.5157  -7.4986
    -7.4943  -7.4940  -7.4930  -7.4924  -7.4892  -7.4861  -7.4711  -7.4701
    -7.4687  -7.4684  -7.4679  -7.4676  -7.4665  -7.4611  -7.4586  -7.4450
    -7.4302  -7.4210  -7.4140  -7.4065  -7.4000  -7.3963  -7.3754  -7.3569
    -7.3496  -7.3403  -7.3324  -7.3200  -7.3103  -7.2991  -7.2974  -7.2912
    -7.2845  -7.2822  -7.2778  -7.2757  -7.2705  -7.2368  -7.2367  -7.2265
    -7.2181  -7.2178  -7.2000  -7.1999  -7.1869  -7.1575  -7.1415  -7.1270
    -7.1122  -7.1008  -7.0838  -7.0661  -7.0244  -6.9760  -6.9313  -6.9081
    -6.8697  -6.8615  -6.8548  -6.8412  -6.8153  -6.7759  -6.7666  -6.7658
    -6.7638  -6.7399  -6.7027  -6.6950  -6.6845  -6.6837  -6.6824  -6.6473
    -6.6346  -6.6202  -6.6153  -6.6086  -6.6080  -6.6057  -6.5786  -6.5680
    -6.5608  -6.5576  -6.5461  -6.5415  -6.5344  -6.5206  -6.5099  -6.5035
    -6.5003  -6.4992  -6.4982  -6.4958  -6.4933  -6.4931  -6.4854  -6.4840
    -6.4838  -6.4835  -6.4834  -6.4833  -6.4826  -6.4702  -6.4570  -6.4348
    -6.4283  -6.4217  -6.4153  -6.3973  -6.3959  -6.3947  -6.3701  -6.3437
    -6.3346  -6.3219  -6.3185  -6.3167  -6.3162  -6.3151  -6.3100  -6.2926
    -6.2804  -6.2762  -6.2758  -6.2755  -6.2713  -6.2617  -6.2482  -6.2405
    -6.2391  -6.2391  -6.2378  -6.2357  -6.2348  -6.1807  -6.0944  -5.9891
    -5.9496  -5.7847  -5.7072  -5.6597  -5.5385  -5.4946  -5.3742  -5.3086
    -5.2859  -5.1367  -4.3361  -3.9826  -3.8689  -3.8386  -3.8367  -3.8341
    -3.8250  -3.8164  -3.8150  -3.8114  -3.8093  -3.8067  -3.7906  -3.7741
    -3.7336  -3.6932  -3.6891  -3.6756  -3.6733  -3.6703  -3.6669  -3.6605
    -3.6590  -3.6560  -3.5718  -3.5464  -3.5271  -3.5059  -3.4935  -3.4924
    -3.4857  -3.4778  -3.4665  -3.4616  -3.4575  -3.4571  -3.4558  -3.4517
    -3.4475  -3.4389  -3.4363  -3.4328  -3.4281  -3.4279  -3.4278  -3.4155
    -3.4139  -3.4126  -3.4090  -3.4029  -3.3958  -3.3943  -3.3941  -3.3907
    -3.3887  -3.3865  -3.3826  -3.3762  -3.3726  -3.3714  -3.3450  -3.3386
    -3.3355  -3.3348  -3.3312  -3.3297  -3.3279  -3.3225  -3.3163  -3.3123
    -3.2993  -3.2910  -3.2853  -3.2735  -3.2695  -3.2685  -3.2648  -3.2560
    -3.2465  -3.2153  -3.2056  -3.1950  -3.1891  -3.1843  -3.0778  -3.0680
    -3.0551  -3.0477  -3.0460  -3.0437  -3.0380  -3.0330  -3.0312  -3.0292
    -3.0208  -2.9848  -2.9833  -2.9663  -2.9647  -2.9616  -2.9586  -2.9581
    -2.9551  -2.9549  -2.9513  -2.9485  -2.9481  -2.9435  -2.9400  -2.9385
    -2.9376  -2.9270  -2.9225  -2.9205  -2.9190  -2.9176  -2.9143  -2.9125
    -2.9116  -2.9112  -2.9096  -2.9062  -2.8928  -2.8811  -2.8722  -2.8701
    -2.8682  -2.8579  -2.8524  -2.8455  -2.8191  -2.7929  -2.7918  -2.7905
    -2.7902  -2.7884  -2.7879  -2.7877  -2.7873  -2.7870  -2.7770  -2.7728
    -2.7694  -2.7564  -2.7387  -2.7263  -2.7221  -2.7107  -2.7064  -2.7045
    -2.6524  -2.6490  -2.6237  -2.6220  -2.6189  -2.6118  -2.6089  -2.6075
    -2.6039  -2.6018  -2.5939  -2.5656  -2.5466  -2.5342  -2.5323  -2.5207
    -2.4507  -2.4232  -2.4085  -2.4012  -2.3960  -2.3956  -2.3904

          k = 0.0000-0.5773 0.0000 (386352 PWs)   bands (ev):

  -102.2017 -88.8746 -88.8006 -70.5413 -70.5404 -70.5184 -70.5139 -70.5004
   -70.4871 -70.4755 -66.6045 -66.6045 -66.6045 -66.6043 -66.6032 -66.6032
   -66.6014 -66.5938 -66.5938 -66.5938 -66.5937 -66.5925 -66.5925 -66.5902
   -66.5842 -66.5797 -66.5788 -66.5787 -66.5787 -66.5787 -66.5787 -66.5787
   -66.5786 -66.5784 -66.5774 -66.5774 -66.5774 -66.5774 -66.5743 -66.5743
   -66.5743 -66.5741 -66.5730 -66.5730 -66.5704 -66.5680 -66.5680 -66.5680
   -66.5680 -66.5680 -66.5680 -66.5680 -66.5676 -66.5667 -66.5667 -66.5667
   -66.5667 -66.5655 -66.5636 -66.5636 -66.5635 -66.5634 -66.5632 -66.5622
   -66.5622 -66.5608 -66.5574 -66.5521 -66.5482 -66.5463 -66.5415 -66.5372
   -66.5202 -66.5124 -56.4925 -56.4217 -56.3743 -54.6957 -54.6671 -54.6560
   -54.6364 -54.5797 -54.5480 -40.9065 -40.9065 -40.9065 -40.9065 -40.9065
   -40.9064 -40.9064 -40.9061 -40.9059 -40.9059 -40.9058 -40.9058 -40.9048
   -40.8941 -40.8797 -40.8797 -40.8796 -40.8794 -40.8790 -40.8790 -40.8716
   -40.8691 -40.8676 -40.8676 -40.8675 -40.8674 -40.8670 -40.8670 -40.8651
   -40.8578 -40.8444 -40.8327 -40.8169 -40.8169 -40.8169 -40.8169 -40.8168
   -40.8168 -40.8168 -40.8167 -40.8162 -40.8162 -40.8162 -40.8162 -40.7990
   -40.7942 -40.7902 -40.7832 -40.7746 -40.7616 -40.7582 -40.7581 -40.7581
   -40.7579 -40.7575 -40.7575 -40.7487 -40.7487 -40.7486 -40.7485 -40.7478
   -40.7478 -40.7436 -40.7387 -40.7373 -40.7373 -40.7372 -40.7372 -40.7366
   -40.7366 -40.7268 -40.7221 -40.7190 -40.7154 -40.7077 -40.7077 -40.7076
   -40.7076 -40.7076 -40.7076 -40.7075 -40.7074 -40.7070 -40.7070 -40.7070
   -40.7070 -40.7057 -40.7028 -40.6997 -40.6990 -40.6989 -40.6989 -40.6987
   -40.6982 -40.6982 -40.6946 -40.6914 -40.6872 -40.6872 -40.6871 -40.6870
   -40.6867 -40.6867 -40.6866 -40.6866 -40.6866 -40.6866 -40.6866 -40.6863
   -40.6863 -40.6862 -40.6861 -40.6859 -40.6859 -40.6859 -40.6859 -40.6838
   -40.6781 -40.6779 -40.6779 -40.6779 -40.6778 -40.6772 -40.6772 -40.6723
   -40.6696 -40.6655 -40.6592 -40.6562 -40.6562 -40.6562 -40.6562 -40.6562
   -40.6562 -40.6561 -40.6558 -40.6553 -40.6553 -40.6553 -40.6553 -40.6424
   -40.6385 -40.6281 -40.6215 -40.6215 -40.6215 -40.6215 -40.6214 -40.6214
   -40.6213 -40.6213 -40.6205 -40.6205 -40.6205 -40.6205 -40.6197 -40.6093
   -40.6093 -40.6093 -40.6091 -40.6084 -40.6084 -40.6023 -40.5944 -40.5941
   -40.5930 -40.5903 -40.5900 -40.5900 -40.5900 -40.5898 -40.5891 -40.5891
   -40.5730 -40.5730 -40.5729 -40.5728 -40.5721 -40.5721 -40.5689 -40.5675
   -40.5619 -40.5443 -40.5424 -40.5424 -40.5423 -40.5421 -40.5414 -40.5414
   -40.5411 -40.5220 -40.4981 -20.0641 -19.8847 -19.8540 -19.8306 -19.7552
   -19.7360 -19.6453 -19.6381 -19.5214 -19.5027 -19.4152 -19.4136 -19.3220
   -19.3201 -19.2177 -19.2171 -19.0962 -18.9596 -18.8422 -18.8043 -18.7801
   -18.7659 -18.7096 -18.7093 -18.7054 -18.7042 -18.6877 -18.6666 -18.6401
   -18.6373 -18.6331 -18.6308 -18.6071 -18.5700 -18.5683 -18.5427 -18.5408
   -18.5368 -18.5344 -18.5279 -18.5042 -18.4804 -18.4699 -18.4631 -18.4555
   -18.4282 -18.4150 -18.3979 -18.3962 -18.3893 -18.3790 -18.3690 -18.3392
   -18.3165 -18.3144 -18.3055 -18.2674 -18.2537 -18.2345 -18.2251 -18.2047
   -18.1982 -18.1712 -18.1608 -18.1586 -18.1340 -18.1143 -18.1052 -18.0890
   -18.0867 -18.0847 -18.0842 -18.0733 -18.0622 -18.0611 -18.0587 -18.0550
   -18.0536 -18.0495 -18.0458 -18.0370 -18.0354 -18.0283 -18.0172 -17.9980
   -17.9959 -17.9909 -17.9898 -17.9861 -17.9855 -17.9843 -17.9766 -17.9735
   -17.9679 -17.9389 -17.9346 -17.9257 -17.9226 -17.9162 -17.9081 -17.8916
   -17.8788 -17.8738 -17.8623 -17.8613 -17.8394 -17.8320 -17.8300 -17.8255
   -17.8236 -17.8053 -17.8049 -17.8042 -17.8038 -17.8031 -17.8023 -17.7897
   -17.7889 -17.7700 -17.7679 -17.7465 -17.7443 -17.7280 -17.7250 -17.7131
   -17.7115 -17.7051 -17.7049 -12.0440 -11.9052 -11.8207 -11.7096 -11.6840
   -11.5876 -11.5418 -11.5220 -11.5157 -11.5006 -11.4848 -11.4812 -11.4685
   -11.4631 -11.4521 -11.4436 -11.4004 -11.3884 -11.3763 -11.3669 -11.3562
   -11.3336 -11.3208 -11.3171 -11.3044 -11.2829 -11.2753 -11.2601 -11.2562
   -11.2504 -11.2468 -11.2432 -11.2391 -11.2301 -11.1965 -11.1916 -11.1869
   -11.1802 -11.1673 -11.1627 -11.1545 -11.1511 -11.1438 -11.1325 -11.1301
   -11.1199 -11.1096 -11.0892 -11.0676 -11.0601 -11.0502 -11.0161 -10.9942
   -10.9672 -10.9529 -10.9392 -10.9301 -10.9214 -10.9033 -10.8907 -10.8843
   -10.8692 -10.8489 -10.8391 -10.8245 -10.8235 -10.8197 -10.8163 -10.7979
   -10.7971 -10.7958 -10.7952 -10.7931 -10.7908 -10.7889 -10.7823 -10.7783
   -10.7777 -10.7714 -10.7690 -10.7672 -10.7654 -10.7511 -10.7293 -10.7286
   -10.7284 -10.7275 -10.6125 -10.5863 -10.5333 -10.5241 -10.5115 -10.5042
   -10.4732 -10.4331 -10.4010 -10.3869 -10.3373 -10.2964 -10.2362 -10.2156
   -10.1941 -10.1616 -10.1359 -10.1122 -10.1037 -10.0995 -10.0940 -10.0700
   -10.0466 -10.0372 -10.0309 -10.0193 -10.0181 -10.0137 -10.0075 -10.0019
    -9.9993  -9.9679  -9.9434  -9.9234  -9.9159  -9.9056  -9.9002  -9.8903
    -9.8790  -9.8766  -9.8759  -9.8465  -9.8398  -9.8234  -9.8172  -9.7913
    -9.7762  -9.7682  -9.7619  -9.7580  -9.7349  -9.7241  -9.7094  -9.6949
    -9.6878  -9.6617  -9.6500  -9.6409  -9.6210  -9.6068  -9.6037  -9.5921
    -9.5754  -9.5563  -9.5509  -9.5424  -9.5359  -9.5277  -9.5150  -9.4821
    -9.4757  -9.4748  -9.4683  -9.4612  -9.4576  -9.4512  -9.4463  -9.4447
    -9.4410  -9.4204  -9.4146  -9.3738  -9.3646  -9.3590  -9.3386  -9.3185
    -9.3016  -9.2613  -9.2156  -9.2115  -9.2084  -9.1985  -9.1957  -9.1871
    -9.1698  -9.1594  -9.1419  -9.1332  -9.1220  -9.1137  -9.1054  -9.0945
    -9.0662  -9.0613  -9.0485  -9.0443  -9.0342  -9.0283  -9.0202  -9.0063
    -9.0004  -8.9783  -8.9580  -8.9489  -8.9428  -8.9406  -8.9347  -8.9249
    -8.9130  -8.8986  -8.8896  -8.8776  -8.8760  -8.8747  -8.8728  -8.8696
    -8.8680  -8.8605  -8.8548  -8.8538  -8.8524  -8.8445  -8.8410  -8.8373
    -8.8256  -8.8252  -8.8246  -8.8182  -8.8036  -8.7810  -8.7793  -8.7774
    -8.7757  -8.7729  -8.7700  -8.7490  -8.7471  -8.7285  -8.7208  -8.7184
    -8.7165  -8.7132  -8.7095  -8.7011  -8.6612  -8.6442  -8.6406  -8.6210
    -8.6089  -8.5439  -8.4924  -8.4902  -8.4669  -8.4411  -8.4187  -8.4037
    -8.3826  -8.3420  -8.3376  -8.3176  -8.2866  -8.2640  -8.2181  -8.1505
    -8.1273  -8.1129  -8.1128  -8.1043  -8.1036  -8.0965  -8.0924  -8.0910
    -8.0559  -8.0423  -8.0163  -7.9635  -7.9545  -7.9440  -7.9383  -7.9058
    -7.8645  -7.8499  -7.8321  -7.8262  -7.8212  -7.8154  -7.8136  -7.8050
    -7.7964  -7.7951  -7.7893  -7.7867  -7.7813  -7.7798  -7.7758  -7.7706
    -7.7670  -7.7667  -7.7564  -7.7551  -7.7529  -7.7516  -7.7513  -7.7500
    -7.7471  -7.7451  -7.7433  -7.7420  -7.7323  -7.7294  -7.7172  -7.7159
    -7.7147  -7.7105  -7.6844  -7.6824  -7.6821  -7.6812  -7.6745  -7.6544
    -7.6525  -7.6518  -7.6500  -7.6467  -7.6420  -7.6328  -7.6236  -7.6110
    -7.6023  -7.5936  -7.5932  -7.5920  -7.5861  -7.5718  -7.5705  -7.5682
    -7.5570  -7.5496  -7.5493  -7.5463  -7.5367  -7.5322  -7.5208  -7.5136
    -7.4505  -7.4470  -7.4460  -7.4420  -7.4291  -7.4034  -7.3798  -7.3419
    -7.2504  -7.1931  -7.1703  -7.1612  -7.1585  -7.1523  -7.1508  -7.1392
    -7.1183  -7.1040  -7.0936  -7.0828  -7.0729  -7.0657  -7.0553  -7.0463
    -7.0176  -7.0128  -7.0061  -6.9953  -6.9805  -6.9661  -6.9612  -6.9512
    -6.9187  -6.9013  -6.9005  -6.8930  -6.8732  -6.8639  -6.8471  -6.8455
    -6.8418  -6.8334  -6.8180  -6.7972  -6.7655  -6.7590  -6.7433  -6.7379
    -6.7025  -6.6758  -6.6564  -6.6490  -6.6379  -6.6213  -6.6125  -6.6015
    -6.5947  -6.5911  -6.5901  -6.5886  -6.5863  -6.5745  -6.5729  -6.5724
    -6.5716  -6.5671  -6.5642  -6.5642  -6.5640  -6.5633  -6.5366  -6.5249
    -6.5153  -6.4677  -6.4109  -6.4067  -6.3657  -6.3292  -6.3134  -6.3076
    -6.3030  -6.3003  -6.2982  -6.2897  -6.2705  -6.2626  -6.2619  -6.2579
    -6.2576  -6.2551  -6.2511  -6.2407  -6.2358  -6.2162  -6.2130  -6.2024
    -6.1903  -6.1873  -6.1831  -6.1777  -6.0716  -6.0382  -5.9765  -5.9746
    -5.9626  -5.9149  -5.9052  -5.8505  -5.8492  -5.8351  -5.8109  -5.7783
    -5.7565  -5.7078  -5.6706  -5.6163  -5.5883  -5.5755  -5.4547  -5.4292
    -5.3497  -5.2969  -4.3178  -4.1083  -4.0772  -4.0742  -4.0460  -4.0020
    -3.9226  -3.9063  -3.9057  -3.8997  -3.8486  -3.8312  -3.8248  -3.8208
    -3.8148  -3.8073  -3.7980  -3.7916  -3.7834  -3.7816  -3.7511  -3.7077
    -3.6859  -3.6736  -3.6240  -3.6219  -3.6026  -3.5877  -3.5855  -3.5824
    -3.5638  -3.5364  -3.5344  -3.5308  -3.5155  -3.5046  -3.5030  -3.4999
    -3.4948  -3.4849  -3.4733  -3.4687  -3.4635  -3.4609  -3.4552  -3.4497
    -3.4407  -3.4375  -3.4298  -3.4254  -3.4171  -3.4095  -3.4029  -3.4000
    -3.3792  -3.3545  -3.3450  -3.3369  -3.3344  -3.3306  -3.3286  -3.3220
    -3.3203  -3.3116  -3.2922  -3.2751  -3.2679  -3.2655  -3.2645  -3.2619
    -3.2611  -3.2576  -3.2571  -3.2398  -3.2297  -3.2251  -3.2201  -3.2178
    -3.2113  -3.2060  -3.1972  -3.1952  -3.1914  -3.1833  -3.1750  -3.1703
    -3.1660  -3.1639  -3.1534  -3.1470  -3.1458  -3.1453  -3.1444  -3.1331
    -3.0941  -3.0869  -3.0743  -3.0702  -3.0581  -3.0525  -3.0484  -3.0430
    -3.0134  -3.0098  -3.0076  -3.0054  -3.0043  -3.0037  -2.9996  -2.9939
    -2.9933  -2.9915  -2.9882  -2.9812  -2.9743  -2.9728  -2.9713  -2.9657
    -2.9642  -2.9623  -2.9598  -2.9516  -2.9497  -2.9433  -2.9328  -2.9308
    -2.9281  -2.9238  -2.9173  -2.9133  -2.9087  -2.8946  -2.8885  -2.8796
    -2.8742  -2.8674  -2.8600  -2.8544  -2.8522  -2.8307  -2.7866  -2.7820
    -2.7744  -2.7698  -2.7527  -2.7225  -2.7133  -2.7006  -2.6470  -2.6044
    -2.5960  -2.5815  -2.5747  -2.5567  -2.5483  -2.5329  -2.5268  -2.5235
    -2.5171  -2.5105  -2.5096  -2.5076  -2.4948  -2.4059  -2.3887  -2.3831
    -2.3781  -2.3744  -2.3691  -2.3628  -2.3549  -2.3254  -2.3251

          k =-0.5000-0.2887 0.0000 (386352 PWs)   bands (ev):

  -102.2017 -88.8746 -88.8006 -70.5413 -70.5404 -70.5184 -70.5139 -70.5004
   -70.4871 -70.4755 -66.6045 -66.6045 -66.6045 -66.6043 -66.6032 -66.6032
   -66.6007 -66.5938 -66.5938 -66.5938 -66.5937 -66.5929 -66.5925 -66.5925
   -66.5830 -66.5788 -66.5788 -66.5787 -66.5787 -66.5787 -66.5787 -66.5785
   -66.5785 -66.5774 -66.5774 -66.5774 -66.5774 -66.5767 -66.5743 -66.5743
   -66.5743 -66.5741 -66.5730 -66.5730 -66.5720 -66.5682 -66.5680 -66.5680
   -66.5680 -66.5680 -66.5680 -66.5679 -66.5676 -66.5667 -66.5667 -66.5667
   -66.5667 -66.5655 -66.5636 -66.5636 -66.5635 -66.5635 -66.5635 -66.5622
   -66.5622 -66.5620 -66.5571 -66.5524 -66.5475 -66.5458 -66.5406 -66.5382
   -66.5203 -66.5124 -56.4925 -56.4217 -56.3743 -54.6957 -54.6671 -54.6560
   -54.6364 -54.5797 -54.5480 -40.9065 -40.9065 -40.9065 -40.9065 -40.9065
   -40.9064 -40.9063 -40.9061 -40.9059 -40.9059 -40.9058 -40.9058 -40.8967
   -40.8953 -40.8797 -40.8797 -40.8796 -40.8794 -40.8790 -40.8790 -40.8787
   -40.8724 -40.8679 -40.8676 -40.8676 -40.8675 -40.8675 -40.8670 -40.8670
   -40.8624 -40.8401 -40.8289 -40.8170 -40.8169 -40.8169 -40.8169 -40.8168
   -40.8168 -40.8168 -40.8168 -40.8162 -40.8162 -40.8162 -40.8162 -40.7955
   -40.7913 -40.7879 -40.7851 -40.7754 -40.7582 -40.7581 -40.7581 -40.7579
   -40.7577 -40.7575 -40.7575 -40.7487 -40.7487 -40.7485 -40.7485 -40.7478
   -40.7478 -40.7475 -40.7414 -40.7373 -40.7373 -40.7372 -40.7372 -40.7366
   -40.7366 -40.7244 -40.7211 -40.7194 -40.7134 -40.7081 -40.7077 -40.7077
   -40.7077 -40.7076 -40.7076 -40.7076 -40.7074 -40.7074 -40.7070 -40.7070
   -40.7070 -40.7070 -40.7044 -40.6996 -40.6990 -40.6989 -40.6989 -40.6987
   -40.6982 -40.6982 -40.6969 -40.6906 -40.6872 -40.6872 -40.6870 -40.6870
   -40.6868 -40.6867 -40.6866 -40.6866 -40.6866 -40.6866 -40.6866 -40.6866
   -40.6863 -40.6863 -40.6861 -40.6859 -40.6859 -40.6859 -40.6859 -40.6818
   -40.6779 -40.6779 -40.6779 -40.6778 -40.6772 -40.6772 -40.6770 -40.6735
   -40.6692 -40.6662 -40.6600 -40.6564 -40.6562 -40.6562 -40.6562 -40.6562
   -40.6561 -40.6560 -40.6559 -40.6553 -40.6553 -40.6553 -40.6553 -40.6387
   -40.6355 -40.6331 -40.6273 -40.6215 -40.6215 -40.6215 -40.6215 -40.6214
   -40.6214 -40.6213 -40.6213 -40.6206 -40.6205 -40.6205 -40.6205 -40.6093
   -40.6093 -40.6093 -40.6091 -40.6084 -40.6084 -40.6014 -40.5990 -40.5940
   -40.5901 -40.5900 -40.5900 -40.5897 -40.5897 -40.5891 -40.5891 -40.5860
   -40.5730 -40.5730 -40.5729 -40.5729 -40.5721 -40.5721 -40.5720 -40.5655
   -40.5615 -40.5451 -40.5424 -40.5424 -40.5423 -40.5422 -40.5414 -40.5414
   -40.5349 -40.5195 -40.5032 -20.0654 -19.8823 -19.8540 -19.8278 -19.7551
   -19.7337 -19.6450 -19.6372 -19.5577 -19.4821 -19.4169 -19.4113 -19.3241
   -19.3182 -19.2187 -19.2163 -19.0318 -18.9940 -18.8740 -18.8298 -18.7628
   -18.7524 -18.7106 -18.7088 -18.7063 -18.7042 -18.6866 -18.6646 -18.6461
   -18.6407 -18.6291 -18.6274 -18.6143 -18.5844 -18.5624 -18.5458 -18.5407
   -18.5401 -18.5317 -18.5166 -18.5086 -18.4809 -18.4682 -18.4643 -18.4551
   -18.4346 -18.4148 -18.3992 -18.3932 -18.3909 -18.3681 -18.3456 -18.3407
   -18.3194 -18.3075 -18.3004 -18.2740 -18.2565 -18.2345 -18.2315 -18.2029
   -18.1857 -18.1770 -18.1686 -18.1494 -18.1262 -18.1205 -18.1058 -18.0977
   -18.0862 -18.0848 -18.0838 -18.0828 -18.0630 -18.0580 -18.0567 -18.0532
   -18.0529 -18.0498 -18.0449 -18.0420 -18.0343 -18.0290 -18.0157 -17.9990
   -17.9945 -17.9932 -17.9893 -17.9863 -17.9854 -17.9848 -17.9753 -17.9734
   -17.9662 -17.9431 -17.9314 -17.9287 -17.9218 -17.9193 -17.9066 -17.8856
   -17.8818 -17.8750 -17.8613 -17.8608 -17.8414 -17.8351 -17.8283 -17.8251
   -17.8220 -17.8059 -17.8047 -17.8041 -17.8039 -17.8032 -17.8017 -17.7908
   -17.7894 -17.7713 -17.7687 -17.7465 -17.7445 -17.7269 -17.7243 -17.7122
   -17.7104 -17.7050 -17.7047 -12.0237 -11.9494 -11.7747 -11.7128 -11.7020
   -11.5974 -11.5655 -11.5130 -11.5091 -11.4878 -11.4853 -11.4786 -11.4653
   -11.4596 -11.4462 -11.4381 -11.3897 -11.3851 -11.3819 -11.3741 -11.3598
   -11.3352 -11.3311 -11.3217 -11.3009 -11.2879 -11.2696 -11.2645 -11.2598
   -11.2502 -11.2460 -11.2420 -11.2400 -11.2300 -11.1935 -11.1923 -11.1846
   -11.1803 -11.1751 -11.1574 -11.1548 -11.1506 -11.1462 -11.1346 -11.1321
   -11.1152 -11.1045 -11.0943 -11.0657 -11.0617 -11.0559 -11.0023 -10.9877
   -10.9833 -10.9495 -10.9387 -10.9334 -10.9227 -10.8996 -10.8922 -10.8820
   -10.8672 -10.8664 -10.8323 -10.8254 -10.8229 -10.8172 -10.8143 -10.8001
   -10.7971 -10.7965 -10.7956 -10.7937 -10.7916 -10.7853 -10.7835 -10.7778
   -10.7773 -10.7704 -10.7696 -10.7670 -10.7659 -10.7539 -10.7295 -10.7290
   -10.7282 -10.7279 -10.6328 -10.5544 -10.5307 -10.5249 -10.5171 -10.4884
   -10.4665 -10.4475 -10.4015 -10.3788 -10.3348 -10.2826 -10.2497 -10.2118
   -10.1885 -10.1680 -10.1437 -10.1248 -10.1062 -10.1027 -10.0991 -10.0863
   -10.0556 -10.0384 -10.0258 -10.0194 -10.0168 -10.0110 -10.0087 -10.0029
    -9.9952  -9.9710  -9.9500  -9.9236  -9.9168  -9.9130  -9.9043  -9.8885
    -9.8793  -9.8757  -9.8641  -9.8483  -9.8382  -9.8227  -9.8087  -9.7847
    -9.7720  -9.7687  -9.7591  -9.7504  -9.7387  -9.7230  -9.6945  -9.6892
    -9.6849  -9.6505  -9.6485  -9.6236  -9.6173  -9.6091  -9.5983  -9.5909
    -9.5641  -9.5569  -9.5473  -9.5434  -9.5373  -9.5263  -9.5222  -9.4791
    -9.4768  -9.4750  -9.4686  -9.4629  -9.4530  -9.4475  -9.4461  -9.4434
    -9.4397  -9.4215  -9.4198  -9.3778  -9.3682  -9.3546  -9.3357  -9.3278
    -9.2899  -9.2889  -9.2405  -9.2166  -9.2092  -9.1958  -9.1924  -9.1899
    -9.1761  -9.1510  -9.1490  -9.1430  -9.1242  -9.1111  -9.1008  -9.0926
    -9.0822  -9.0584  -9.0490  -9.0461  -9.0282  -9.0266  -9.0201  -9.0055
    -9.0003  -8.9821  -8.9688  -8.9504  -8.9405  -8.9374  -8.9363  -8.9251
    -8.9138  -8.9019  -8.8823  -8.8772  -8.8767  -8.8752  -8.8718  -8.8709
    -8.8655  -8.8639  -8.8547  -8.8537  -8.8509  -8.8439  -8.8371  -8.8360
    -8.8272  -8.8255  -8.8249  -8.8157  -8.8058  -8.7797  -8.7793  -8.7782
    -8.7751  -8.7726  -8.7689  -8.7491  -8.7468  -8.7271  -8.7187  -8.7184
    -8.7152  -8.7139  -8.7129  -8.6994  -8.6763  -8.6462  -8.6396  -8.6215
    -8.6000  -8.5449  -8.4924  -8.4886  -8.4649  -8.4303  -8.4276  -8.4054
    -8.3598  -8.3420  -8.3394  -8.3034  -8.2958  -8.2339  -8.2329  -8.1990
    -8.1182  -8.1130  -8.1129  -8.1049  -8.1035  -8.0949  -8.0924  -8.0885
    -8.0529  -8.0434  -8.0344  -7.9683  -7.9554  -7.9520  -7.9216  -7.8871
    -7.8722  -7.8658  -7.8324  -7.8250  -7.8173  -7.8159  -7.8124  -7.8045
    -7.8010  -7.7949  -7.7877  -7.7867  -7.7831  -7.7787  -7.7768  -7.7736
    -7.7686  -7.7664  -7.7651  -7.7552  -7.7545  -7.7525  -7.7510  -7.7503
    -7.7499  -7.7465  -7.7436  -7.7428  -7.7370  -7.7260  -7.7208  -7.7164
    -7.7148  -7.7083  -7.6847  -7.6828  -7.6819  -7.6812  -7.6616  -7.6552
    -7.6518  -7.6515  -7.6504  -7.6459  -7.6406  -7.6313  -7.6287  -7.6026
    -7.6005  -7.5951  -7.5931  -7.5907  -7.5838  -7.5780  -7.5707  -7.5693
    -7.5627  -7.5510  -7.5492  -7.5484  -7.5411  -7.5398  -7.5316  -7.4713
    -7.4537  -7.4454  -7.4439  -7.4410  -7.4198  -7.4033  -7.3733  -7.3011
    -7.2760  -7.2306  -7.1933  -7.1548  -7.1541  -7.1519  -7.1503  -7.1077
    -7.1064  -7.1003  -7.0952  -7.0918  -7.0719  -7.0638  -7.0439  -7.0231
    -7.0134  -7.0106  -7.0070  -6.9963  -6.9799  -6.9620  -6.9584  -6.9243
    -6.9234  -6.9006  -6.8956  -6.8873  -6.8752  -6.8610  -6.8541  -6.8449
    -6.8440  -6.8298  -6.8138  -6.7933  -6.7846  -6.7630  -6.7456  -6.7402
    -6.7242  -6.6927  -6.6661  -6.6630  -6.6543  -6.6192  -6.6085  -6.6039
    -6.5951  -6.5933  -6.5907  -6.5902  -6.5869  -6.5801  -6.5730  -6.5728
    -6.5719  -6.5673  -6.5643  -6.5642  -6.5640  -6.5625  -6.5225  -6.5089
    -6.4805  -6.4603  -6.4382  -6.4078  -6.3933  -6.3402  -6.3252  -6.3071
    -6.3036  -6.3031  -6.3014  -6.2939  -6.2760  -6.2629  -6.2621  -6.2582
    -6.2575  -6.2527  -6.2442  -6.2414  -6.2374  -6.2255  -6.2155  -6.1944
    -6.1910  -6.1892  -6.1835  -6.1629  -6.1076  -5.9845  -5.9758  -5.9688
    -5.9442  -5.9211  -5.9039  -5.8879  -5.8446  -5.8359  -5.8061  -5.7811
    -5.7342  -5.6830  -5.6612  -5.6236  -5.5882  -5.5808  -5.4649  -5.4113
    -5.3821  -5.2779  -4.3505  -4.0916  -4.0889  -4.0723  -4.0509  -3.9671
    -3.9341  -3.9156  -3.9082  -3.8962  -3.8510  -3.8296  -3.8275  -3.8182
    -3.8143  -3.8038  -3.7972  -3.7938  -3.7833  -3.7828  -3.7345  -3.7199
    -3.6950  -3.6716  -3.6359  -3.6085  -3.5971  -3.5925  -3.5833  -3.5814
    -3.5486  -3.5397  -3.5346  -3.5317  -3.5291  -3.5094  -3.5021  -3.4982
    -3.4921  -3.4884  -3.4708  -3.4695  -3.4644  -3.4585  -3.4572  -3.4513
    -3.4439  -3.4329  -3.4292  -3.4244  -3.4175  -3.4108  -3.4030  -3.3928
    -3.3843  -3.3592  -3.3404  -3.3355  -3.3318  -3.3309  -3.3267  -3.3218
    -3.3196  -3.3093  -3.2903  -3.2747  -3.2665  -3.2650  -3.2635  -3.2628
    -3.2620  -3.2582  -3.2579  -3.2386  -3.2302  -3.2241  -3.2187  -3.2154
    -3.2120  -3.2101  -3.2059  -3.1950  -3.1942  -3.1834  -3.1790  -3.1723
    -3.1662  -3.1603  -3.1570  -3.1489  -3.1478  -3.1455  -3.1454  -3.1210
    -3.0886  -3.0850  -3.0783  -3.0657  -3.0590  -3.0526  -3.0497  -3.0427
    -3.0127  -3.0098  -3.0073  -3.0054  -3.0050  -3.0046  -2.9996  -2.9974
    -2.9932  -2.9926  -2.9881  -2.9785  -2.9777  -2.9752  -2.9687  -2.9660
    -2.9609  -2.9575  -2.9541  -2.9514  -2.9497  -2.9442  -2.9354  -2.9304
    -2.9293  -2.9244  -2.9191  -2.9147  -2.9099  -2.8939  -2.8879  -2.8835
    -2.8727  -2.8648  -2.8608  -2.8554  -2.8503  -2.8298  -2.7890  -2.7818
    -2.7766  -2.7705  -2.7379  -2.7259  -2.7129  -2.7013  -2.6406  -2.6075
    -2.5933  -2.5810  -2.5688  -2.5578  -2.5483  -2.5383  -2.5274  -2.5255
    -2.5160  -2.5101  -2.5091  -2.5068  -2.4863  -2.4110  -2.3910  -2.3839
    -2.3805  -2.3724  -2.3719  -2.3594  -2.3474  -2.3258  -2.3248

          k =-0.5000-0.8660 0.0000 (386352 PWs)   bands (ev):

  -102.2017 -88.8746 -88.8006 -70.5413 -70.5404 -70.5184 -70.5139 -70.5004
   -70.4871 -70.4755 -66.6045 -66.6045 -66.6044 -66.6044 -66.6032 -66.6032
   -66.6004 -66.5940 -66.5938 -66.5938 -66.5938 -66.5937 -66.5925 -66.5925
   -66.5803 -66.5788 -66.5787 -66.5787 -66.5787 -66.5787 -66.5787 -66.5786
   -66.5785 -66.5775 -66.5774 -66.5774 -66.5774 -66.5774 -66.5743 -66.5743
   -66.5742 -66.5742 -66.5742 -66.5730 -66.5730 -66.5680 -66.5680 -66.5680
   -66.5680 -66.5680 -66.5680 -66.5678 -66.5678 -66.5667 -66.5667 -66.5667
   -66.5667 -66.5661 -66.5636 -66.5636 -66.5635 -66.5634 -66.5622 -66.5622
   -66.5622 -66.5605 -66.5582 -66.5520 -66.5473 -66.5471 -66.5402 -66.5381
   -66.5202 -66.5124 -56.4925 -56.4217 -56.3743 -54.6957 -54.6671 -54.6560
   -54.6364 -54.5797 -54.5479 -40.9065 -40.9065 -40.9065 -40.9065 -40.9064
   -40.9064 -40.9063 -40.9062 -40.9059 -40.9058 -40.9058 -40.9058 -40.8909
   -40.8898 -40.8854 -40.8809 -40.8797 -40.8797 -40.8796 -40.8795 -40.8790
   -40.8790 -40.8696 -40.8676 -40.8676 -40.8675 -40.8674 -40.8670 -40.8670
   -40.8618 -40.8420 -40.8229 -40.8169 -40.8169 -40.8169 -40.8169 -40.8168
   -40.8168 -40.8167 -40.8167 -40.8162 -40.8162 -40.8162 -40.8162 -40.7929
   -40.7914 -40.7861 -40.7845 -40.7748 -40.7603 -40.7581 -40.7581 -40.7581
   -40.7580 -40.7575 -40.7575 -40.7487 -40.7487 -40.7486 -40.7485 -40.7478
   -40.7478 -40.7470 -40.7373 -40.7373 -40.7372 -40.7372 -40.7366 -40.7366
   -40.7361 -40.7271 -40.7266 -40.7191 -40.7142 -40.7077 -40.7077 -40.7077
   -40.7076 -40.7076 -40.7076 -40.7075 -40.7075 -40.7070 -40.7070 -40.7070
   -40.7070 -40.7059 -40.7031 -40.7005 -40.6989 -40.6989 -40.6989 -40.6988
   -40.6982 -40.6982 -40.6976 -40.6887 -40.6872 -40.6872 -40.6871 -40.6870
   -40.6866 -40.6866 -40.6866 -40.6866 -40.6866 -40.6866 -40.6865 -40.6865
   -40.6864 -40.6863 -40.6863 -40.6859 -40.6859 -40.6859 -40.6859 -40.6821
   -40.6785 -40.6779 -40.6779 -40.6779 -40.6778 -40.6772 -40.6772 -40.6745
   -40.6684 -40.6674 -40.6601 -40.6562 -40.6562 -40.6562 -40.6562 -40.6562
   -40.6561 -40.6560 -40.6560 -40.6553 -40.6553 -40.6553 -40.6553 -40.6397
   -40.6358 -40.6328 -40.6306 -40.6215 -40.6215 -40.6215 -40.6215 -40.6214
   -40.6214 -40.6213 -40.6213 -40.6206 -40.6205 -40.6205 -40.6205 -40.6093
   -40.6093 -40.6092 -40.6092 -40.6084 -40.6084 -40.5983 -40.5968 -40.5942
   -40.5900 -40.5900 -40.5900 -40.5898 -40.5891 -40.5891 -40.5891 -40.5848
   -40.5769 -40.5730 -40.5730 -40.5729 -40.5728 -40.5721 -40.5721 -40.5677
   -40.5626 -40.5424 -40.5424 -40.5422 -40.5422 -40.5414 -40.5414 -40.5400
   -40.5280 -40.5179 -40.5109 -20.0480 -19.9086 -19.8541 -19.8422 -19.7559
   -19.7425 -19.6460 -19.6393 -19.4971 -19.4747 -19.4135 -19.4094 -19.3203
   -19.3162 -19.2170 -19.2157 -19.1212 -19.0128 -18.8389 -18.7965 -18.7591
   -18.7350 -18.7109 -18.7098 -18.7049 -18.6988 -18.6949 -18.6745 -18.6511
   -18.6357 -18.6313 -18.6275 -18.6062 -18.5909 -18.5786 -18.5458 -18.5412
   -18.5381 -18.5325 -18.5185 -18.5056 -18.4886 -18.4784 -18.4650 -18.4568
   -18.4415 -18.3989 -18.3955 -18.3946 -18.3864 -18.3662 -18.3523 -18.3253
   -18.3214 -18.3140 -18.2984 -18.2523 -18.2431 -18.2378 -18.2348 -18.2008
   -18.1935 -18.1726 -18.1714 -18.1525 -18.1366 -18.1148 -18.1028 -18.0923
   -18.0902 -18.0842 -18.0835 -18.0803 -18.0772 -18.0620 -18.0584 -18.0533
   -18.0523 -18.0489 -18.0464 -18.0385 -18.0323 -18.0305 -18.0272 -17.9965
   -17.9948 -17.9931 -17.9909 -17.9878 -17.9861 -17.9819 -17.9810 -17.9761
   -17.9659 -17.9385 -17.9329 -17.9231 -17.9215 -17.9209 -17.9162 -17.8814
   -17.8799 -17.8727 -17.8692 -17.8583 -17.8378 -17.8312 -17.8306 -17.8263
   -17.8155 -17.8050 -17.8048 -17.8046 -17.8043 -17.8031 -17.8022 -17.7909
   -17.7891 -17.7717 -17.7683 -17.7470 -17.7441 -17.7275 -17.7235 -17.7125
   -17.7094 -17.7050 -17.7044 -12.0246 -11.8787 -11.7944 -11.7096 -11.7009
   -11.6310 -11.6044 -11.5631 -11.5372 -11.4870 -11.4828 -11.4811 -11.4775
   -11.4745 -11.4526 -11.4301 -11.3890 -11.3758 -11.3730 -11.3671 -11.3519
   -11.3350 -11.3248 -11.3103 -11.3079 -11.2729 -11.2650 -11.2604 -11.2561
   -11.2491 -11.2453 -11.2394 -11.2352 -11.2191 -11.1965 -11.1890 -11.1804
   -11.1797 -11.1639 -11.1605 -11.1565 -11.1495 -11.1329 -11.1317 -11.1289
   -11.1134 -11.1035 -11.0802 -11.0680 -11.0502 -11.0422 -11.0207 -11.0146
   -10.9608 -10.9420 -10.9375 -10.9335 -10.9211 -10.9117 -10.9096 -10.8989
   -10.8819 -10.8647 -10.8352 -10.8267 -10.8215 -10.8170 -10.8057 -10.7976
   -10.7968 -10.7965 -10.7956 -10.7951 -10.7915 -10.7864 -10.7834 -10.7785
   -10.7778 -10.7708 -10.7692 -10.7684 -10.7670 -10.7302 -10.7295 -10.7288
   -10.7285 -10.6990 -10.6296 -10.5595 -10.5501 -10.5303 -10.5143 -10.4984
   -10.4906 -10.4461 -10.4121 -10.3681 -10.3378 -10.2762 -10.2589 -10.2243
   -10.1823 -10.1511 -10.1199 -10.1176 -10.1091 -10.0978 -10.0881 -10.0750
   -10.0676 -10.0310 -10.0213 -10.0192 -10.0179 -10.0072 -10.0043  -9.9993
    -9.9915  -9.9591  -9.9567  -9.9192  -9.9143  -9.9115  -9.8952  -9.8807
    -9.8769  -9.8730  -9.8516  -9.8407  -9.8352  -9.8146  -9.8027  -9.7932
    -9.7837  -9.7694  -9.7638  -9.7535  -9.7471  -9.6991  -9.6981  -9.6786
    -9.6707  -9.6488  -9.6444  -9.6293  -9.6197  -9.6056  -9.5987  -9.5883
    -9.5845  -9.5709  -9.5594  -9.5406  -9.5322  -9.5279  -9.5213  -9.5088
    -9.4771  -9.4761  -9.4630  -9.4618  -9.4592  -9.4533  -9.4508  -9.4440
[...]
     atom  172 type  2   force =    -0.00000360   -0.00000016    0.00161543
     atom  173 type  2   force =    -0.00000368   -0.00000070   -0.00236014
     atom  174 type  2   force =    -0.00000781    0.00000444    0.00002876
     atom  175 type  1   force =    -0.00000474    0.00003668    0.00000097
     atom  176 type  1   force =    -0.00017391   -0.00007899   -0.00021842
     atom  177 type  2   force =    -0.00000563    0.00004717   -0.00010167
     atom  178 type  2   force =     0.00000469    0.00002522    0.00001328
     atom  179 type  2   force =    -0.00000105    0.00003259    0.00000463
     atom  180 type  2   force =    -0.00007493    0.00013447    0.00001980
     atom  181 type  1   force =    -0.00000204   -0.00000108    0.00068791
     atom  182 type  1   force =    -0.00001226   -0.00000542    0.00000857
     atom  183 type  2   force =    -0.00000519   -0.00000314    0.00000379
     atom  184 type  2   force =    -0.00000363   -0.00000025    0.00161554
     atom  185 type  2   force =    -0.00000385   -0.00000076   -0.00236000
     atom  186 type  2   force =    -0.00000652    0.00000444    0.00004194
     atom  187 type  1   force =     0.00000372    0.00002435    0.00003248
     atom  188 type  1   force =     0.00003385    0.00008565   -0.00001009
     atom  189 type  2   force =    -0.00005007    0.00007932    0.00016313
     atom  190 type  2   force =     0.00003522    0.00001705    0.00001497
     atom  191 type  2   force =    -0.00002675    0.00004068    0.00001612
     atom  192 type  2   force =     0.00003327   -0.00001677    0.00004394
     atom  193 type  3   force =    -0.00062185    0.00007840    0.00029259
     atom  194 type  3   force =     0.00002082   -0.00006833   -0.00005054
     atom  195 type  4   force =    -0.00037914    0.00037154    0.00059760

     Total force =     0.003089     Total SCF correction =     0.001111
     SCF correction compared to forces is large: reduce conv_thr to get better values
     Energy error            =      1.9E-05 Ry
     Gradient error          =      8.4E-04 Ry/Bohr

     bfgs converged in  22 scf cycles and  21 bfgs steps
     (criteria: energy <  1.0E-04 Ry, force <  1.0E-03 Ry/Bohr)

     End of BFGS Geometry Optimization

     Final energy             =  -34492.2601197084 Ry

     File ./outdir/pwscf.bfgs deleted, as requested
Begin final coordinates

ATOMIC_POSITIONS (angstrom)
Mo               0.0000119917        1.8193638619       -9.1672481230    0   0   0
Mo               1.5756136568        0.9097075315       -3.0554901653    0   0   0
S                0.0000188998        1.8193822938       -4.6232556019    0   0   0
S                1.5756321638        0.9096773839       -7.6014065489    0   0   0
S                1.5756326175        0.9096785128      -10.7330757790    0   0   0
S                0.0000189190        1.8193860094       -1.4877129945    0   0   0
Mo               0.0001109175        1.8213615546        3.0593106544
Mo               1.5726475120        0.9121730438        9.1701262308
S                0.0023286703        1.8144379526        7.5802174637
S                1.5765485808        0.9117411675        4.6265249606
S                1.5752919472        0.9115136646        1.4909905952
S               -0.0070592109        1.8037279323       10.7299172357
Mo              -1.5756053507        4.5484193819       -9.1672481230    0   0   0
Mo               0.0000378379        3.6387394919       -3.0554952701    0   0   0
S               -1.5755913433        4.5484363582       -4.6232494962    0   0   0
S                0.0000148214        3.6387329039       -7.6014065489    0   0   0
S                0.0000152751        3.6387340328      -10.7330757790    0   0   0
S               -1.5755906502        4.5484413613       -1.4877305502    0   0   0
Mo              -1.5755524668        4.5506616708        3.0590818790
Mo              -0.0250038114        3.6158107585        9.1609414991
S               -1.5869296044        4.5872656585        7.6279075082
S               -0.0002245164        3.6410417102        4.6276648068
S                0.0001006882        3.6406282074        1.4915957472
S               -1.5956989618        4.4238250799       10.7896286093
Mo              -3.1512226931        7.2774749019       -9.1672481230    0   0   0
Mo              -1.5755910988        6.3678216792       -3.0555115988    0   0   0
S               -3.1512162438        7.2774954350       -4.6232578178    0   0   0
S               -1.5756025210        6.3677884239       -7.6014065489    0   0   0
S               -1.5756020673        6.3677895528      -10.7330757790    0   0   0
S               -3.1512127704        7.2774877076       -1.4877200710    0   0   0
Mo              -3.1509104803        7.2792631885        3.0582121496
Mo              -1.5740326151        6.3814501514        9.2186364250
S               -3.1294510847        7.2782348902        7.6510264180
S               -1.5757235522        6.3701327064        4.6268506697
S               -1.5751254349        6.3695034951        1.4907766088
S               -3.2273437947        7.3344822675       10.8290973906
Mo              -4.7268400355       10.0065304219       -9.1672481230    0   0   0
Mo              -3.1512405618        9.0968403586       -3.0554816746    0   0   0
S               -4.7268341792       10.0065523623       -4.6232463762    0   0   0
S               -3.1512198634        9.0968439439       -7.6014065489    0   0   0
S               -3.1512194097        9.0968450728      -10.7330757790    0   0   0
S               -4.7268370797       10.0065537885       -1.4877176751    0   0   0
Mo              -4.7266545593       10.0083164740        3.0588121483
Mo              -3.1511598563        9.1181405627        9.1866581347
S               -4.7171212068       10.0128697179        7.6003428696
S               -3.1511375791        9.0980229714        4.6265409247
S               -3.1511337301        9.0987761887        1.4908119922
S               -4.7371513271       10.0209289763       10.7451180267
Mo               3.1512517547        1.8193638619       -9.1672481230    0   0   0
Mo               4.7269020221        0.9097289540       -3.0554823951    0   0   0
S                3.1512612351        1.8193882564       -4.6232320683    0   0   0
S                4.7268719268        0.9096773839       -7.6014065489    0   0   0
S                4.7268723805        0.9096785128      -10.7330757790    0   0   0
S                3.1512592485        1.8193890201       -1.4877261251    0   0   0
Mo               3.1511330769        1.8217453738        3.0582237971
Mo               4.7284004954        0.9241152560        9.1717530829
S                3.1504128459        1.8547156516        7.6290909783
S                4.7263416261        0.9124873845        4.6262942755
S                4.7266536180        0.9115069731        1.4906521707
S                3.1510393049        1.7566964547       10.7917194604
Mo               1.5756344123        4.5484193819       -9.1672481230    0   0   0
Mo               3.1512756394        3.6387769522       -3.0554814834    0   0   0
S                1.5756504879        4.5484423799       -4.6232390542    0   0   0
S                3.1512545844        3.6387329039       -7.6014065489    0   0   0
S                3.1512550381        3.6387340328      -10.7330757790    0   0   0
S                1.5756466253        4.5484431864       -1.4877251801    0   0   0
Mo               1.5754795872        4.5504625735        3.0596098893
Mo               3.1542144135        3.6468039980        9.2140677626
S                1.5828569321        4.5539536977        7.6429252155
S                3.1512533147        3.6408162749        4.6269723243
S                3.1506765733        3.6411641010        1.4908459197
S                1.4725010580        4.5570077402       10.7413026776
Mo               0.0000170699        7.2774749019       -9.1672481230    0   0   0
Mo               1.5756764447        6.3678236689       -3.0554877708    0   0   0
S                0.0000381981        7.2774979204       -4.6232454413    0   0   0
S                1.5756372420        6.3677884239       -7.6014065489    0   0   0
S                1.5756376957        6.3677895528      -10.7330757790    0   0   0
S                0.0000328088        7.2774946042       -1.4877307940    0   0   0
Mo              -0.0000572606        7.2793692728        3.0591679581
Mo               1.5910292412        6.4034623421        9.1728916729
S               -0.0190129314        7.2872338091        7.6421256105
S                1.5752923050        6.3697835306        4.6281381371
S                1.5755609779        6.3694869606        1.4916366093
S                0.0914667892        7.4305587732       10.7760401280
Mo              -1.5756002725       10.0065304219       -9.1672481230    0   0   0
Mo               0.0000873425        9.0968676911       -3.0554912329    0   0   0
S               -1.5755883952       10.0065504530       -4.6232240150    0   0   0
S                0.0000198996        9.0968439439       -7.6014065489    0   0   0
S                0.0000203533        9.0968450728      -10.7330757790    0   0   0
S               -1.5755859047       10.0065492576       -1.4877362381    0   0   0
Mo              -1.5758253935       10.0086126581        3.0590198389
Mo              -0.0001949345        9.1561487468        9.1542029318
S               -1.5914400719       10.0322459444        7.5928212857
S               -0.0002148677        9.0989632723        4.6269033082
S               -0.0001851098        9.0986682931        1.4912535548
S               -1.5698883277       10.0313413724       10.7408123600
Mo               6.3024915177        1.8193638619       -9.1672481230    0   0   0
Mo               7.8781001445        0.9096521684       -3.0554919963    0   0   0
S                6.3025008696        1.8193826232       -4.6232480596    0   0   0
S                7.8781116898        0.9096773839       -7.6014065489    0   0   0
S                7.8781121435        0.9096785128      -10.7330757790    0   0   0
S                6.3025042007        1.8193849068       -1.4877147524    0   0   0
Mo               6.3020996273        1.8217503661        3.0583855103
Mo               7.8812008507        0.9291281101        9.1456320281
S                6.2952323041        1.8432511670        7.5900627770
S                7.8775843595        0.9123522097        4.6258497020
S                7.8779262797        0.9116223190        1.4906982854
S                6.3114198310        1.8332660937       10.7281684285
Mo               4.7268741753        4.5484193819       -9.1672481230    0   0   0
Mo               6.3024679138        3.6387501714       -3.0554895197    0   0   0
S                4.7268748770        4.5484386753       -4.6232519432    0   0   0
S                6.3024943474        3.6387329039       -7.6014065489    0   0   0
S                6.3024948011        3.6387340328      -10.7330757790    0   0   0
S                4.7268770533        4.5484432419       -1.4877137856    0   0   0
Mo               4.7265740913        4.5504674045        3.0586721867
Mo               6.3145317672        3.6552189495        9.1719479501
S                4.7140116345        4.5606214975        7.6343243657
S                6.3019975588        3.6412448597        4.6265282634
S                6.3023880479        3.6410516996        1.4907725814
S                4.8049778086        4.6064415401       10.7798028929
Mo               3.1512568329        7.2774749019       -9.1672481230    0   0   0
Mo               4.7268384135        6.3678043337       -3.0554959052    0   0   0
S                3.1512606125        7.2774972547       -4.6232589675    0   0   0
S                4.7268770050        6.3677884239       -7.6014065489    0   0   0
S                4.7268774587        6.3677895528      -10.7330757790    0   0   0
S                3.1512629079        7.2774963749       -1.4877081835    0   0   0
Mo               3.1511702331        7.2790652079        3.0593899843
Mo               4.7421209656        6.3977201365        9.1797509878
S                3.1606774480        7.2910323991        7.6063903471
S                4.7271036979        6.3692923047        4.6271994004
S                4.7267395320        6.3697895890        1.4911992665
S                3.1932626830        7.3132572201       10.7731431289
Mo               1.5756394905       10.0065304219       -9.1672481230    0   0   0
Mo               3.1512330605        9.0968514907       -3.0554878870    0   0   0
S                1.5756499830       10.0065443759       -4.6232632674    0   0   0
S                3.1512596626        9.0968439439       -7.6014065489    0   0   0
S                3.1512601163        9.0968450728      -10.7330757790    0   0   0
S                1.5756503041       10.0065459699       -1.4877044377    0   0   0
Mo               1.5754873202       10.0085572837        3.0587544288
Mo               3.1561499240        9.1155558280        9.1652297201
S                1.5843672819       10.0266747154        7.5764249892
S                3.1513904145        9.0988282795        4.6259578511
S                3.1509488993        9.0981443422        1.4909302037
S                1.5863851992       10.0491310365       10.7217597613
Mo               9.4537312807        1.8193638619       -9.1672481230    0   0   0
Mo              11.0293863460        0.9096952246       -3.0554894007    0   0   0
S                9.4537395970        1.8193770750       -4.6232328036    0   0   0
S               11.0293514528        0.9096773839       -7.6014065489    0   0   0
S               11.0293519066        0.9096785128      -10.7330757790    0   0   0
S                9.4537393632        1.8193794783       -1.4877366147    0   0   0
Mo               9.4535625516        1.8215650765        3.0583673727
Mo              11.0274436962        0.9152572164        9.1528289461
S                9.4565504030        1.8357072512        7.5783427241
S               11.0289015581        0.9113211140        4.6257272248
S               11.0295667603        0.9118142852        1.4908237472
S                9.4475690312        1.8163992231       10.7227276581
Mo               7.8781139383        4.5484193819       -9.1672481230    0   0   0
Mo               9.4537539161        3.6387607911       -3.0554933032    0   0   0
S                7.8781175448        4.5484378232       -4.6232366318    0   0   0
S                9.4537341104        3.6387329039       -7.6014065489    0   0   0
S                9.4537345641        3.6387340328      -10.7330757790    0   0   0
S                7.8781194018        4.5484411585       -1.4877377057    0   0   0
Mo               7.8780177969        4.5506537226        3.0589078735
Mo               9.4370666555        3.6402950709        9.1622147944
S                7.8741627599        4.5740400267        7.5990087626
S                9.4536201605        3.6410290839        4.6265429043
S                9.4537637672        3.6410588197        1.4909857533
S                7.8862222843        4.5551066671       10.7446493606
Mo               6.3024965959        7.2774749019       -9.1672481230    0   0   0
Mo               7.8781361655        6.3678242352       -3.0555014130    0   0   0
S                6.3024973331        7.2774953556       -4.6232392528    0   0   0
S                7.8781167680        6.3677884239       -7.6014065489    0   0   0
S                7.8781172217        6.3677895528      -10.7330757790    0   0   0
S                6.3024989866        7.2774929744       -1.4877349119    0   0   0
Mo               6.3026347083        7.2792479177        3.0589779943
Mo               7.8734999139        6.3811705973        9.1891519786
S                6.3145761906        7.2874500011        7.6022529893
S                7.8788665826        6.3701535755        4.6266594716
S                7.8780455776        6.3695897999        1.4908049160
S                6.3063262237        7.3079895022       10.7515226816
Mo               4.7268792535       10.0065304219       -9.1672481230    0   0   0
Mo               6.3025111524        9.0968738021       -3.0554915260    0   0   0
S                4.7268840634       10.0065452125       -4.6232380477    0   0   0
S                6.3024994256        9.0968439439       -7.6014065489    0   0   0
S                6.3024998793        9.0968450728      -10.7330757790    0   0   0
S                4.7268847312       10.0065459141       -1.4877283294    0   0   0
Mo               4.7268898945       10.0082621957        3.0581182521
Mo               6.3062665689        9.1098441992        9.1665032718
S                4.7305557551       10.0107635976        7.5896160950
S                6.3024664655        9.0988453292        4.6262198347
S                6.3027802702        9.0983816505        1.4907902526
S                4.7278427734       10.0247579213       10.7309353248
Pd               1.4695088539        6.2675803934       12.3075248258
Pd               3.0735960747        3.7625068666       12.1355419887
Pt              -1.4331988098        6.3539816537       12.0271817513
End final coordinates



     Writing all to output data dir ./outdir/pwscf.save/ :
     XML data file, charge density, pseudopotentials, collected wavefunctions
 
     init_run     :    177.01s CPU    180.32s WALL (       1 calls)
     electrons    : 187388.32s CPU 189716.18s WALL (      22 calls)
     update_pot   :     35.62s CPU     36.74s WALL (      21 calls)
     forces       :   2879.44s CPU   2930.34s WALL (      22 calls)
     force_dftd3  :     15.31s CPU     16.01s WALL (      22 calls)

     Called by init_run:
     wfcinit      :    153.06s CPU    154.91s WALL (       1 calls)
     potinit      :      1.32s CPU      1.44s WALL (       1 calls)
     hinit0       :     12.89s CPU     12.97s WALL (       1 calls)

     Called by electrons:
     c_bands      : 165753.53s CPU 167310.56s WALL (     301 calls)
     sum_band     :  19330.29s CPU  19725.60s WALL (     301 calls)
     v_of_rho     :    109.19s CPU    122.48s WALL (     307 calls)
     newd         :   1941.78s CPU   2306.74s WALL (     307 calls)
     PAW_pot      :    291.07s CPU    293.81s WALL (     328 calls)
     mix_rho      :     30.17s CPU     34.92s WALL (     301 calls)
     energy_dftd3 :      9.10s CPU      9.16s WALL (      22 calls)

     Called by c_bands:
     init_us_2    :    651.54s CPU    654.88s WALL (    2584 calls)
     init_us_2:cp :    651.51s CPU    654.86s WALL (    2584 calls)
     cegterg      : 162923.24s CPU 164462.88s WALL (    1226 calls)

     Called by *egterg:
     cdiaghg      :   9520.66s CPU   9860.37s WALL (   15354 calls)
     h_psi        :  82359.61s CPU  82868.03s WALL (   15515 calls)
     s_psi        :  19306.48s CPU  19422.79s WALL (   15515 calls)
     g_psi        :    145.98s CPU    146.67s WALL (   14285 calls)

     Called by h_psi:
     h_psi:calbec :  18606.00s CPU  18667.41s WALL (   15515 calls)
     vloc_psi     :  43998.33s CPU  44211.23s WALL (   15515 calls)
     add_vuspsi   :  19421.13s CPU  19540.62s WALL (   15515 calls)

     General routines
     calbec       :  26647.28s CPU  26734.89s WALL (   17155 calls)
     fft          :    112.89s CPU    125.17s WALL (    4226 calls)
     ffts         :      5.45s CPU      5.84s WALL (     608 calls)
     fftw         :  33290.28s CPU  33449.42s WALL ( 8656474 calls)
     interpolate  :      9.52s CPU     10.44s WALL (     307 calls)
 
     Parallel routines
 
     PWSCF        :   2d 5h 9m CPU   2d 5h50m WALL

 
   This run was terminated on:   5: 2:33   8Apr2024            

=------------------------------------------------------------------------------=
   JOB DONE.
=------------------------------------------------------------------------------=
