
     Program PWSCF v.7.2 starts on 15Dec2023 at 12:21:37 

     This program is part of the open-source Quantum ESPRESSO suite
     for quantum simulation of materials; please cite
         "P. Giannozzi et al., J. Phys.:Condens. Matter 21 395502 (2009);
         "P. Giannozzi et al., J. Phys.:Condens. Matter 29 465901 (2017);
         "P. Giannozzi et al., J. Chem. Phys. 152 154105 (2020);
          URL http://www.quantum-espresso.org", 
     in publications or presentations arising from this work. More details at
     http://www.quantum-espresso.org/quote

     Parallel version (MPI), running on    36 processors

     MPI processes distributed on     1 nodes
     768963 MiB available memory on the printing compute node when the environment starts
 
     Waiting for input...
     Reading input from standard input
Warning: card &CELL ignored
Warning: card / ignored

     Current dimensions of program PWSCF are:
     Max number of different atomic species (ntypx) = 10
     Max number of k-points (npk) =  40000
     Max angular momentum in pseudopotentials (lmaxx) =  4
     file Mo.pbe-spn-kjpaw_psl.1.0.0.UPF: wavefunction(s)  4S 4D renormalized
     file S.pbe-n-kjpaw_psl.1.0.0.UPF: wavefunction(s)  3S 3P renormalized
     file Pt.pbe-spfn-kjpaw_psl.1.0.0.UPF: wavefunction(s)  5P 4F renormalized
 
     R & G space division:  proc/nbgrp/npool/nimage =      36
     Subspace diagonalization in iterative solution of the eigenvalue problem:
     one sub-group per band group will be used
     custom distributed-memory algorithm (size of sub-group:  6*  6 procs)

 
     Parallelization info
     --------------------
     sticks:   dense  smooth     PW     G-vecs:    dense   smooth      PW
     Min         586     335     89               165416    71459    9765
     Max         587     337     90               165425    71461    9778
     Sum       21109   12085   3205              5955087  2572543  351657
 
     Using Slab Decomposition
 


     bravais-lattice index     =            0
     lattice parameter (alat)  =      23.8395  a.u.
     unit-cell volume          =   28182.8498 (a.u.)^3
     number of atoms/cell      =          145
     number of atomic types    =            3
     number of electrons       =      1280.00
     number of Kohn-Sham states=          768
     kinetic-energy cutoff     =      77.0000  Ry
     charge density cutoff     =     539.0000  Ry
     scf convergence threshold =      1.0E-06
     mixing beta               =       0.2000
     number of iterations used =            8  plain     mixing
     energy convergence thresh.=      1.0E-04
     force convergence thresh. =      1.0E-03
     Exchange-correlation= SLA  PW   PBX  PBC
                           (   1   4   3   4   0   0   0)
     nstep                     =         1000


     Effective Screening Medium Method
     =================================
     Boundary Conditions: Vacuum-Slab-Vacuum
     total charge in unit cell        =   0.0000
     grid points for fit at edges     =        4 
 

     celldm(1)=  23.839504  celldm(2)=   0.000000  celldm(3)=   0.000000
     celldm(4)=   0.000000  celldm(5)=   0.000000  celldm(6)=   0.000000

     crystal axes: (cart. coord. in units of alat)
               a(1) = (   1.000000   0.000000   0.000000 )  
               a(2) = (  -0.500001   0.866026   0.000000 )  
               a(3) = (   0.000000   0.000000   2.401941 )  

     reciprocal axes: (cart. coord. in units 2 pi/alat)
               b(1) = (  1.000000  0.577351  0.000000 )  
               b(2) = (  0.000000  1.154700  0.000000 )  
               b(3) = (  0.000000  0.000000  0.416330 )  


     PseudoPot. # 1 for Mo read from file:
     ./pseudo/Mo.pbe-spn-kjpaw_psl.1.0.0.UPF
     MD5 check sum: 317bf72632116215fd98f72de1686f13
     Pseudo is Projector augmented-wave + core cor, Zval = 14.0
     Generated using 'atomic' code by A. Dal Corso  v.7.2
     Shape of augmentation charge: PSQ
     Using radial grid of 1229 points,  6 beta functions with: 
                l(1) =   0
                l(2) =   0
                l(3) =   1
                l(4) =   1
                l(5) =   2
                l(6) =   2
     Q(r) pseudized with 0 coefficients 


     PseudoPot. # 2 for S  read from file:
     ./pseudo/S.pbe-n-kjpaw_psl.1.0.0.UPF
     MD5 check sum: 8b7b5302570d38d5e87fed6a1065abda
     Pseudo is Projector augmented-wave + core cor, Zval =  6.0
     Generated using 'atomic' code by A. Dal Corso  v.7.2
     Shape of augmentation charge: PSQ
     Using radial grid of 1151 points,  6 beta functions with: 
                l(1) =   0
                l(2) =   0
                l(3) =   1
                l(4) =   1
                l(5) =   2
                l(6) =   2
     Q(r) pseudized with 0 coefficients 


     PseudoPot. # 3 for Pt read from file:
     ./pseudo/Pt.pbe-spfn-kjpaw_psl.1.0.0.UPF
     MD5 check sum: 620096ebf4e6ebacc94de60fd67efcb5
     Pseudo is Projector augmented-wave + core cor, Zval = 32.0
     Generated using 'atomic' code by A. Dal Corso  v.7.2
     Shape of augmentation charge: PSQ
     Using radial grid of 1277 points,  8 beta functions with: 
                l(1) =   0
                l(2) =   0
                l(3) =   1
                l(4) =   1
                l(5) =   2
                l(6) =   2
                l(7) =   3
                l(8) =   3
     Q(r) pseudized with 0 coefficients 


     atomic species   valence    mass     pseudopotential
        Mo            14.00    95.95000     Mo( 1.00)
        S              6.00    32.06000     S ( 1.00)
        Pt            32.00   195.08400     Pt( 1.00)

     No symmetry found



   Cartesian axes

     site n.     atom                  positions (alat units)
         1           Mo  tau(   1) = (   0.1249983   0.2165050   0.4823527  )
         2           Mo  tau(   2) = (   0.1250004   0.0721694  -0.4825273  )
         3           Mo  tau(   3) = (  -0.0000019   0.1443377  -0.0000751  )
         4           S   tau(   4) = (   0.0000004   0.0000006  -0.6064556  )
         5           S   tau(   5) = (   0.1249982   0.0721692  -0.1241671  )
         6           S   tau(   6) = (  -0.0000016   0.1443364   0.3582431  )
         7           S   tau(   7) = (   0.0000004   0.0000005  -0.3584711  )
         8           S   tau(   8) = (   0.1249982   0.0721691   0.1241550  )
         9           S   tau(   9) = (  -0.0000015   0.1443364   0.6067201  )
        10           Mo  tau(  10) = (  -0.0000021   0.4330115   0.4823527  )
        11           Mo  tau(  11) = (   0.0000001   0.2886759  -0.4825273  )
        12           Mo  tau(  12) = (  -0.1250009   0.3608432  -0.0000744  )
        13           S   tau(  13) = (  -0.1249999   0.2165071  -0.6064556  )
        14           S   tau(  14) = (  -0.0000017   0.2886753  -0.1241667  )
        15           S   tau(  15) = (  -0.1250020   0.3608427   0.3582430  )
        16           S   tau(  16) = (  -0.1249998   0.2165070  -0.3584711  )
        17           S   tau(  17) = (  -0.0000017   0.2886752   0.1241551  )
        18           S   tau(  18) = (  -0.1250020   0.3608428   0.6067200  )
        19           Mo  tau(  19) = (  -0.1250025   0.6495181   0.4823527  )
        20           Mo  tau(  20) = (  -0.1250002   0.5051824  -0.4825273  )
        21           Mo  tau(  21) = (  -0.2500019   0.5773502  -0.0000747  )
        22           S   tau(  22) = (  -0.2500002   0.4330136  -0.6064556  )
        23           S   tau(  23) = (  -0.1250019   0.5051815  -0.1241659  )
        24           S   tau(  24) = (  -0.2500023   0.5773492   0.3582430  )
        25           S   tau(  25) = (  -0.2500001   0.4330135  -0.3584711  )
        26           S   tau(  26) = (  -0.1250021   0.5051816   0.1241548  )
        27           S   tau(  27) = (  -0.2500023   0.5773492   0.6067201  )
        28           Mo  tau(  28) = (   0.2499985  -0.0000014   0.4823528  )
        29           Mo  tau(  29) = (  -0.2500004   0.7216889  -0.4825273  )
        30           Mo  tau(  30) = (  -0.3750035   0.7938587  -0.0000751  )
        31           S   tau(  31) = (  -0.3750004   0.6495201  -0.6064556  )
        32           S   tau(  32) = (  -0.2500024   0.7216883  -0.1241659  )
        33           S   tau(  33) = (  -0.3750023   0.7938557   0.3582430  )
        34           S   tau(  34) = (  -0.3750004   0.6495200  -0.3584711  )
        35           S   tau(  35) = (  -0.2500028   0.7216884   0.1241544  )
        36           S   tau(  36) = (  -0.3750023   0.7938556   0.6067199  )
        37           Mo  tau(  37) = (   0.3749981   0.2165050   0.4823525  )
        38           Mo  tau(  38) = (   0.3750004   0.0721694  -0.4825273  )
        39           Mo  tau(  39) = (   0.2499973   0.1443382  -0.0000750  )
        40           S   tau(  40) = (   0.2500004   0.0000006  -0.6064556  )
        41           S   tau(  41) = (   0.3749982   0.0721689  -0.1241664  )
        42           S   tau(  42) = (   0.2499983   0.1443364   0.3582430  )
        43           S   tau(  43) = (   0.2500004   0.0000005  -0.3584711  )
        44           S   tau(  44) = (   0.3749982   0.0721692   0.1241548  )
        45           S   tau(  45) = (   0.2499984   0.1443363   0.6067201  )
        46           Mo  tau(  46) = (   0.2499981   0.4330115   0.4823527  )
        47           Mo  tau(  47) = (   0.2500001   0.2886759  -0.4825273  )
        48           Mo  tau(  48) = (   0.1249978   0.3608446  -0.0000747  )
        49           S   tau(  49) = (   0.1250001   0.2165071  -0.6064556  )
        50           S   tau(  50) = (   0.2499977   0.2886754  -0.1241668  )
        51           S   tau(  51) = (   0.1249981   0.3608427   0.3582430  )
        52           S   tau(  52) = (   0.1250002   0.2165070  -0.3584711  )
        53           S   tau(  53) = (   0.2499978   0.2886754   0.1241550  )
        54           S   tau(  54) = (   0.1249981   0.3608427   0.6067200  )
        55           Mo  tau(  55) = (   0.1249976   0.6495181   0.4823528  )
        56           Mo  tau(  56) = (   0.1249998   0.5051824  -0.4825273  )
        57           Mo  tau(  57) = (  -0.0000011   0.5773502  -0.0000746  )
        58           S   tau(  58) = (  -0.0000002   0.4330136  -0.6064556  )
        59           S   tau(  59) = (   0.1249978   0.5051816  -0.1241667  )
        60           S   tau(  60) = (  -0.0000023   0.5773491   0.3582431  )
        61           S   tau(  61) = (  -0.0000001   0.4330135  -0.3584711  )
        62           S   tau(  62) = (   0.1249980   0.5051816   0.1241553  )
        63           S   tau(  63) = (  -0.0000022   0.5773492   0.6067201  )
        64           Mo  tau(  64) = (   0.4999983  -0.0000014   0.4823527  )
        65           Mo  tau(  65) = (  -0.0000004   0.7216889  -0.4825273  )
        66           Mo  tau(  66) = (  -0.1250019   0.7938576  -0.0000744  )
        67           S   tau(  67) = (  -0.1250004   0.6495201  -0.6064556  )
        68           S   tau(  68) = (  -0.0000024   0.7216881  -0.1241664  )
        69           S   tau(  69) = (  -0.1250026   0.7938558   0.3582428  )
        70           S   tau(  70) = (  -0.1250004   0.6495200  -0.3584711  )
        71           S   tau(  71) = (  -0.0000022   0.7216883   0.1241549  )
        72           S   tau(  72) = (  -0.1250025   0.7938557   0.6067204  )
        73           Mo  tau(  73) = (   0.6249983   0.2165053   0.4823528  )
        74           Mo  tau(  74) = (   0.6250004   0.0721694  -0.4825273  )
        75           Mo  tau(  75) = (   0.4999985   0.1443375  -0.0000751  )
        76           S   tau(  76) = (   0.5000004   0.0000006  -0.6064556  )
        77           S   tau(  77) = (   0.6249985   0.0721690  -0.1241669  )
        78           S   tau(  78) = (   0.4999982   0.1443364   0.3582430  )
        79           S   tau(  79) = (   0.5000004   0.0000005  -0.3584711  )
        80           S   tau(  80) = (   0.6249984   0.0721690   0.1241550  )
        81           S   tau(  81) = (   0.4999983   0.1443363   0.6067200  )
        82           Mo  tau(  82) = (   0.4999981   0.4330116   0.4823529  )
        83           Mo  tau(  83) = (   0.5000001   0.2886759  -0.4825273  )
        84           Mo  tau(  84) = (   0.3749964   0.3608441  -0.0000749  )
        85           S   tau(  85) = (   0.3750001   0.2165071  -0.6064556  )
        86           S   tau(  86) = (   0.4999978   0.2886755  -0.1241662  )
        87           S   tau(  87) = (   0.3749982   0.3608427   0.3582430  )
        88           S   tau(  88) = (   0.3750002   0.2165070  -0.3584711  )
        89           S   tau(  89) = (   0.4999977   0.2886754   0.1241546  )
        90           S   tau(  90) = (   0.3749981   0.3608426   0.6067200  )
        91           Mo  tau(  91) = (   0.3749980   0.6495180   0.4823527  )
        92           Mo  tau(  92) = (   0.3749998   0.5051824  -0.4825273  )
        93           Mo  tau(  93) = (   0.2499971   0.5773505  -0.0000748  )
        94           S   tau(  94) = (   0.2499998   0.4330136  -0.6064556  )
        95           S   tau(  95) = (   0.3749976   0.5051816  -0.1241666  )
        96           S   tau(  96) = (   0.2499978   0.5773492   0.3582431  )
        97           S   tau(  97) = (   0.2499999   0.4330135  -0.3584711  )
        98           S   tau(  98) = (   0.3749977   0.5051817   0.1241548  )
        99           S   tau(  99) = (   0.2499978   0.5773491   0.6067200  )
       100           Mo  tau( 100) = (   0.7499985  -0.0000012   0.4823529  )
       101           Mo  tau( 101) = (   0.2499996   0.7216889  -0.4825273  )
       102           Mo  tau( 102) = (   0.1249980   0.7938575  -0.0000752  )
       103           S   tau( 103) = (   0.1249996   0.6495201  -0.6064556  )
       104           S   tau( 104) = (   0.2499977   0.7216881  -0.1241669  )
       105           S   tau( 105) = (   0.1249975   0.7938558   0.3582429  )
       106           S   tau( 106) = (   0.1249996   0.6495200  -0.3584711  )
       107           S   tau( 107) = (   0.2499976   0.7216882   0.1241550  )
       108           S   tau( 108) = (   0.1249974   0.7938558   0.6067204  )
       109           Mo  tau( 109) = (  -0.1250017   0.2165052   0.4823527  )
       110           Mo  tau( 110) = (   0.8750004   0.0721694  -0.4825273  )
       111           Mo  tau( 111) = (   0.7499989   0.1443369  -0.0000749  )
       112           S   tau( 112) = (   0.7500004   0.0000006  -0.6064556  )
       113           S   tau( 113) = (   0.8749984   0.0721690  -0.1241671  )
       114           S   tau( 114) = (   0.7499983   0.1443364   0.3582431  )
       115           S   tau( 115) = (   0.7500004   0.0000005  -0.3584711  )
       116           S   tau( 116) = (   0.8749985   0.0721690   0.1241551  )
       117           S   tau( 117) = (   0.7499983   0.1443365   0.6067200  )
       118           Mo  tau( 118) = (  -0.2500019   0.4330117   0.4823526  )
       119           Mo  tau( 119) = (   0.7500001   0.2886759  -0.4825273  )
       120           Mo  tau( 120) = (   0.6249978   0.3608437  -0.0000747  )
       121           S   tau( 121) = (   0.6250001   0.2165071  -0.6064556  )
       122           S   tau( 122) = (   0.7499983   0.2886752  -0.1241661  )
       123           S   tau( 123) = (   0.6249980   0.3608429   0.3582430  )
       124           S   tau( 124) = (   0.6250002   0.2165070  -0.3584711  )
       125           S   tau( 125) = (   0.7499981   0.2886752   0.1241547  )
       126           S   tau( 126) = (   0.6249982   0.3608428   0.6067202  )
       127           Mo  tau( 127) = (  -0.3750021   0.6495181   0.4823527  )
       128           Mo  tau( 128) = (   0.6249998   0.5051824  -0.4825273  )
       129           Mo  tau( 129) = (   0.4999969   0.5773509  -0.0000752  )
       130           S   tau( 130) = (   0.4999998   0.4330136  -0.6064556  )
       131           S   tau( 131) = (   0.6249978   0.5051817  -0.1241660  )
       132           S   tau( 132) = (   0.4999980   0.5773491   0.3582431  )
       133           S   tau( 133) = (   0.4999999   0.4330135  -0.3584711  )
       134           S   tau( 134) = (   0.6249975   0.5051818   0.1241544  )
       135           S   tau( 135) = (   0.4999981   0.5773491   0.6067201  )
       136           Mo  tau( 136) = (  -0.0000012  -0.0000013   0.4823527  )
       137           Mo  tau( 137) = (   0.4999996   0.7216889  -0.4825273  )
       138           Mo  tau( 138) = (   0.3749969   0.7938580  -0.0000749  )
       139           S   tau( 139) = (   0.3749996   0.6495201  -0.6064556  )
       140           S   tau( 140) = (   0.4999973   0.7216884  -0.1241666  )
       141           S   tau( 141) = (   0.3749976   0.7938558   0.3582430  )
       142           S   tau( 142) = (   0.3749996   0.6495200  -0.3584711  )
       143           S   tau( 143) = (   0.4999974   0.7216884   0.1241546  )
       144           S   tau( 144) = (   0.3749976   0.7938557   0.6067202  )
       145           Pt  tau( 145) = (   0.1250067   0.5051793   0.7335524  )

     --------------------------------------------
     DFT-D3 Dispersion Correction (3-body terms):
     --------------------------------------------
       Reference C6 values for interpolation: 

         atom   Coordination number   C6
         S          0.000           268.01
         S          0.995           261.99
         S          1.990           251.62
         Mo         0.000          1691.79
         Mo         1.942          1004.01
         Mo        11.056           674.22
         Pt         0.000           782.29
         Pt         1.919           692.72
         Pt         6.667           673.75

       Values used:

         atom   Coordination number  R0_AB[au]  C6      C8
         Mo        10.190            3.547    674.22  77634.20
         Mo        10.189            3.547    674.22  77634.20
         Mo        10.201            3.547    674.22  77634.20
         S          3.753            3.128    251.62  12327.25
         S          3.858            3.128    251.62  12327.25
         S          3.857            3.128    251.62  12327.25
         S          3.859            3.128    251.62  12327.25
         S          3.858            3.128    251.62  12327.25
         S          3.749            3.128    251.62  12327.25
         Mo        10.284            3.547    674.22  77634.20
         Mo        10.189            3.547    674.22  77634.20
         Mo        10.201            3.547    674.22  77634.20
         S          3.753            3.128    251.62  12327.25
         S          3.858            3.128    251.62  12327.25
         S          3.857            3.128    251.62  12327.25
         S          3.859            3.128    251.62  12327.25
         S          3.858            3.128    251.62  12327.25
         S          3.759            3.128    251.62  12327.25
         Mo        10.190            3.547    674.22  77634.20
         Mo        10.189            3.547    674.22  77634.20
         Mo        10.201            3.547    674.22  77634.20
         S          3.753            3.128    251.62  12327.25
         S          3.858            3.128    251.62  12327.25
         S          3.857            3.128    251.62  12327.25
         S          3.859            3.128    251.62  12327.25
         S          3.858            3.128    251.62  12327.25
         S          3.749            3.128    251.62  12327.25
         Mo        10.187            3.547    674.22  77634.20
         Mo        10.189            3.547    674.22  77634.20
         Mo        10.201            3.547    674.22  77634.20
         S          3.753            3.128    251.62  12327.25
         S          3.858            3.128    251.62  12327.25
         S          3.857            3.128    251.62  12327.25
         S          3.859            3.128    251.62  12327.25
         S          3.858            3.128    251.62  12327.25
         S          3.749            3.128    251.62  12327.25
         Mo        10.187            3.547    674.22  77634.20
         Mo        10.189            3.547    674.22  77634.20
         Mo        10.201            3.547    674.22  77634.20
         S          3.753            3.128    251.62  12327.25
         S          3.858            3.128    251.62  12327.25
         S          3.857            3.128    251.62  12327.25
         S          3.859            3.128    251.62  12327.25
         S          3.858            3.128    251.62  12327.25
         S          3.749            3.128    251.62  12327.25
         Mo        10.284            3.547    674.22  77634.20
         Mo        10.189            3.547    674.22  77634.20
         Mo        10.201            3.547    674.22  77634.20
         S          3.753            3.128    251.62  12327.25
         S          3.858            3.128    251.62  12327.25
         S          3.858            3.128    251.62  12327.25
         S          3.859            3.128    251.62  12327.25
         S          3.858            3.128    251.62  12327.25
         S          4.693            3.128    251.62  12327.25
         Mo        10.284            3.547    674.22  77634.20
         Mo        10.189            3.547    674.22  77634.20
         Mo        10.201            3.547    674.22  77634.20
         S          3.753            3.128    251.62  12327.25
         S          3.858            3.128    251.62  12327.25
         S          3.858            3.128    251.62  12327.25
         S          3.859            3.128    251.62  12327.25
         S          3.858            3.128    251.62  12327.25
         S          4.693            3.128    251.62  12327.25
         Mo        10.187            3.547    674.22  77634.20
         Mo        10.189            3.547    674.22  77634.20
         Mo        10.201            3.547    674.22  77634.20
         S          3.753            3.128    251.62  12327.25
         S          3.858            3.128    251.62  12327.25
         S          3.857            3.128    251.62  12327.25
         S          3.859            3.128    251.62  12327.25
         S          3.858            3.128    251.62  12327.25
         S          3.749            3.128    251.62  12327.25
         Mo        10.187            3.547    674.22  77634.20
         Mo        10.189            3.547    674.22  77634.20
         Mo        10.201            3.547    674.22  77634.20
         S          3.753            3.128    251.62  12327.25
         S          3.858            3.128    251.62  12327.25
         S          3.857            3.128    251.62  12327.25
         S          3.859            3.128    251.62  12327.25
         S          3.858            3.128    251.62  12327.25
         S          3.749            3.128    251.62  12327.25
         Mo        10.187            3.547    674.22  77634.20
         Mo        10.189            3.547    674.22  77634.20
         Mo        10.201            3.547    674.22  77634.20
         S          3.753            3.128    251.62  12327.25
         S          3.858            3.128    251.62  12327.25
         S          3.857            3.128    251.62  12327.25
         S          3.859            3.128    251.62  12327.25
         S          3.858            3.128    251.62  12327.25
         S          3.759            3.128    251.62  12327.25
         Mo        10.190            3.547    674.22  77634.20
         Mo        10.189            3.547    674.22  77634.20
         Mo        10.201            3.547    674.22  77634.20
         S          3.753            3.128    251.62  12327.25
         S          3.858            3.128    251.62  12327.25
         S          3.858            3.128    251.62  12327.25
         S          3.859            3.128    251.62  12327.25
         S          3.858            3.128    251.62  12327.25
         S          4.693            3.128    251.62  12327.25
         Mo        10.187            3.547    674.22  77634.20
         Mo        10.189            3.547    674.22  77634.20
         Mo        10.201            3.547    674.22  77634.20
         S          3.753            3.128    251.62  12327.25
         S          3.858            3.128    251.62  12327.25
         S          3.857            3.128    251.62  12327.25
         S          3.859            3.128    251.62  12327.25
         S          3.858            3.128    251.62  12327.25
         S          3.759            3.128    251.62  12327.25
         Mo        10.187            3.547    674.22  77634.20
         Mo        10.189            3.547    674.22  77634.20
         Mo        10.201            3.547    674.22  77634.20
         S          3.753            3.128    251.62  12327.25
         S          3.858            3.128    251.62  12327.25
         S          3.857            3.128    251.62  12327.25
         S          3.859            3.128    251.62  12327.25
         S          3.858            3.128    251.62  12327.25
         S          3.749            3.128    251.62  12327.25
         Mo        10.187            3.547    674.22  77634.20
         Mo        10.189            3.547    674.22  77634.20
         Mo        10.201            3.547    674.22  77634.20
         S          3.753            3.128    251.62  12327.25
         S          3.858            3.128    251.62  12327.25
         S          3.857            3.128    251.62  12327.25
         S          3.859            3.128    251.62  12327.25
         S          3.858            3.128    251.62  12327.25
         S          3.749            3.128    251.62  12327.25
         Mo        10.187            3.547    674.22  77634.20
         Mo        10.189            3.547    674.22  77634.20
         Mo        10.201            3.547    674.22  77634.20
         S          3.753            3.128    251.62  12327.25
         S          3.858            3.128    251.62  12327.25
         S          3.857            3.128    251.62  12327.25
         S          3.859            3.128    251.62  12327.25
         S          3.858            3.128    251.62  12327.25
         S          3.749            3.128    251.62  12327.25
         Mo        10.187            3.547    674.22  77634.20
         Mo        10.189            3.547    674.22  77634.20
         Mo        10.201            3.547    674.22  77634.20
         S          3.753            3.128    251.62  12327.25
         S          3.858            3.128    251.62  12327.25
         S          3.857            3.128    251.62  12327.25
         S          3.859            3.128    251.62  12327.25
         S          3.858            3.128    251.62  12327.25
         S          3.749            3.128    251.62  12327.25
         Pt         3.190            3.168    692.72  72035.25

         Molecular C6 ( Ry / a.u.^6 ) =   7803822.77


     number of k points=     4  Gaussian smearing, width (Ry)=  0.0100
                       cart. coord. in units 2pi/alat
        k(    1) = (   0.0000000   0.0000000   0.0000000), wk =   0.5000000
        k(    2) = (   0.0000000  -0.5773499   0.0000000), wk =   0.5000000
        k(    3) = (  -0.5000000  -0.2886755   0.0000000), wk =   0.5000000
        k(    4) = (  -0.5000000  -0.8660254   0.0000000), wk =   0.5000000

     Dense  grid:  5955087 G-vectors     FFT dimensions: ( 180, 180, 432)

     Smooth grid:  2572543 G-vectors     FFT dimensions: ( 135, 135, 320)

     Estimated max dynamical RAM per process >       3.05 GB

     Estimated total dynamical RAM >     109.84 GB

     Initial potential from superposition of free atoms

     starting charge    1279.9545, renormalised to    1280.0000

     negative rho (up, down):  6.991E-04 0.000E+00
     Starting wfcs are  881 randomized atomic wfcs
     Checking if some PAW data can be deallocated... 

     total cpu time spent up to now is      110.1 secs

     Self-consistent Calculation

     iteration #  1     ecut=    77.00 Ry     beta= 0.20
     Davidson diagonalization with overlap
     ethr =  1.00E-02,  avg # of iterations =  2.0

     Threshold (ethr) on eigenvalues was too large:
     Diagonalizing with lowered threshold

     Davidson diagonalization with overlap
     ethr =  1.35E-04,  avg # of iterations = 17.8

     negative rho (up, down):  1.868E-04 0.000E+00

     total cpu time spent up to now is     1389.0 secs

     total energy              =  -25519.80773998 Ry
     estimated scf accuracy    <       5.06209838 Ry

     iteration #  2     ecut=    77.00 Ry     beta= 0.20
     Davidson diagonalization with overlap
     ethr =  3.95E-04,  avg # of iterations =  1.0

     negative rho (up, down):  2.038E-05 0.000E+00

     total cpu time spent up to now is     1605.5 secs

     total energy              =  -25518.64860956 Ry
     estimated scf accuracy    <       2.68678101 Ry

     iteration #  3     ecut=    77.00 Ry     beta= 0.20
     Davidson diagonalization with overlap
     ethr =  2.10E-04,  avg # of iterations = 11.0

     negative rho (up, down):  2.179E-05 0.000E+00

     total cpu time spent up to now is     1950.9 secs

     total energy              =  -25519.24748362 Ry
     estimated scf accuracy    <       0.42616999 Ry

     iteration #  4     ecut=    77.00 Ry     beta= 0.20
     Davidson diagonalization with overlap
     c_bands:  1 eigenvalues not converged
     c_bands:  2 eigenvalues not converged
     c_bands:  2 eigenvalues not converged
     c_bands:  4 eigenvalues not converged
     ethr =  3.33E-05,  avg # of iterations = 20.0

     negative rho (up, down):  3.304E-05 0.000E+00

     total cpu time spent up to now is     2646.6 secs

     total energy              =  -25519.72650923 Ry
     estimated scf accuracy    <       0.21079791 Ry

     iteration #  5     ecut=    77.00 Ry     beta= 0.20
     Davidson diagonalization with overlap
     c_bands:  2 eigenvalues not converged
     ethr =  1.65E-05,  avg # of iterations = 31.2

     negative rho (up, down):  1.136E-04 0.000E+00

     total cpu time spent up to now is     3180.6 secs

     total energy              =  -25519.73987320 Ry
     estimated scf accuracy    <       0.13860600 Ry

     iteration #  6     ecut=    77.00 Ry     beta= 0.20
     Davidson diagonalization with overlap
     c_bands:  3 eigenvalues not converged
     ethr =  1.08E-05,  avg # of iterations = 11.0

     negative rho (up, down):  5.035E-04 0.000E+00

     total cpu time spent up to now is     3454.0 secs

     total energy              =  -25519.74454648 Ry
     estimated scf accuracy    <       0.06834360 Ry

     iteration #  7     ecut=    77.00 Ry     beta= 0.20
     Davidson diagonalization with overlap
     c_bands:  2 eigenvalues not converged
     c_bands:  5 eigenvalues not converged
     c_bands:  5 eigenvalues not converged
     c_bands:  2 eigenvalues not converged
     ethr =  5.34E-06,  avg # of iterations = 25.0

     negative rho (up, down):  4.985E-04 0.000E+00

     total cpu time spent up to now is     4110.3 secs

     total energy              =  -25519.78177100 Ry
     estimated scf accuracy    <       0.11558186 Ry

     iteration #  8     ecut=    77.00 Ry     beta= 0.20
     Davidson diagonalization with overlap
     c_bands:  2 eigenvalues not converged
     c_bands:  1 eigenvalues not converged
     ethr =  5.34E-06,  avg # of iterations = 11.0

     negative rho (up, down):  4.150E-04 0.000E+00

     total cpu time spent up to now is     4373.5 secs

     total energy              =  -25519.76839262 Ry
     estimated scf accuracy    <       0.03735860 Ry

     iteration #  9     ecut=    77.00 Ry     beta= 0.20
     Davidson diagonalization with overlap
     c_bands:  5 eigenvalues not converged
     ethr =  2.92E-06,  avg # of iterations = 37.0

     negative rho (up, down):  4.489E-04 0.000E+00

     total cpu time spent up to now is     5085.2 secs

     total energy              =  -25519.78678787 Ry
     estimated scf accuracy    <       0.00225115 Ry

     iteration # 10     ecut=    77.00 Ry     beta= 0.20
     Davidson diagonalization with overlap
     c_bands:  1 eigenvalues not converged
     c_bands:  1 eigenvalues not converged
     ethr =  1.76E-07,  avg # of iterations = 21.0

     negative rho (up, down):  4.879E-04 0.000E+00

     total cpu time spent up to now is     6357.7 secs

     total energy              =  -25519.79632290 Ry
     estimated scf accuracy    <       0.00598179 Ry

     iteration # 11     ecut=    77.00 Ry     beta= 0.20
     Davidson diagonalization with overlap
     ethr =  1.76E-07,  avg # of iterations =  1.5

     negative rho (up, down):  8.264E-04 0.000E+00

     total cpu time spent up to now is     6584.2 secs

     total energy              =  -25519.79431629 Ry
     estimated scf accuracy    <       0.00341886 Ry

     iteration # 12     ecut=    77.00 Ry     beta= 0.20
     Davidson diagonalization with overlap
     ethr =  1.76E-07,  avg # of iterations = 10.2

     negative rho (up, down):  8.764E-04 0.000E+00

     total cpu time spent up to now is     7316.6 secs

     total energy              =  -25519.80063411 Ry
     estimated scf accuracy    <       0.01727710 Ry

     iteration # 13     ecut=    77.00 Ry     beta= 0.20
     Davidson diagonalization with overlap
     ethr =  1.76E-07,  avg # of iterations =  1.2

     negative rho (up, down):  8.328E-04 0.000E+00

     total cpu time spent up to now is     7537.7 secs

     total energy              =  -25519.79554188 Ry
     estimated scf accuracy    <       0.01398895 Ry

     iteration # 14     ecut=    77.00 Ry     beta= 0.20
     Davidson diagonalization with overlap
     ethr =  1.76E-07,  avg # of iterations =  5.0

     negative rho (up, down):  7.942E-04 0.000E+00

     total cpu time spent up to now is     7902.7 secs

     total energy              =  -25519.79489890 Ry
     estimated scf accuracy    <       0.00419505 Ry

     iteration # 15     ecut=    77.00 Ry     beta= 0.20
     Davidson diagonalization with overlap
     ethr =  1.76E-07,  avg # of iterations =  5.8

     negative rho (up, down):  8.069E-04 0.000E+00

     total cpu time spent up to now is     8218.7 secs

     total energy              =  -25519.79543153 Ry
     estimated scf accuracy    <       0.00089576 Ry

     iteration # 16     ecut=    77.00 Ry     beta= 0.20
     Davidson diagonalization with overlap
     ethr =  7.00E-08,  avg # of iterations =  7.2

     negative rho (up, down):  8.247E-04 0.000E+00

     total cpu time spent up to now is     8563.5 secs

     total energy              =  -25519.79589586 Ry
     estimated scf accuracy    <       0.00015117 Ry

     iteration # 17     ecut=    77.00 Ry     beta= 0.20
     Davidson diagonalization with overlap
     ethr =  1.18E-08,  avg # of iterations = 13.2

     negative rho (up, down):  8.351E-04 0.000E+00

     total cpu time spent up to now is     9059.9 secs

     total energy              =  -25519.79606455 Ry
     estimated scf accuracy    <       0.00002962 Ry

     iteration # 18     ecut=    77.00 Ry     beta= 0.20
     Davidson diagonalization with overlap
     ethr =  2.31E-09,  avg # of iterations = 15.8

     negative rho (up, down):  8.372E-04 0.000E+00

     total cpu time spent up to now is     9717.8 secs

     total energy              =  -25519.79612344 Ry
     estimated scf accuracy    <       0.00000797 Ry

     iteration # 19     ecut=    77.00 Ry     beta= 0.20
     Davidson diagonalization with overlap
     c_bands:  2 eigenvalues not converged
     c_bands:  5 eigenvalues not converged
     ethr =  6.23E-10,  avg # of iterations = 18.5

     negative rho (up, down):  8.405E-04 0.000E+00

     total cpu time spent up to now is    10321.0 secs

     total energy              =  -25519.79612869 Ry
     estimated scf accuracy    <       0.00001795 Ry

     iteration # 20     ecut=    77.00 Ry     beta= 0.20
     Davidson diagonalization with overlap
     ethr =  6.23E-10,  avg # of iterations =  1.5

     negative rho (up, down):  8.460E-04 0.000E+00

     total cpu time spent up to now is    10547.3 secs

     total energy              =  -25519.79612146 Ry
     estimated scf accuracy    <       0.00000926 Ry

     iteration # 21     ecut=    77.00 Ry     beta= 0.20
     Davidson diagonalization with overlap
     ethr =  6.23E-10,  avg # of iterations =  9.8

     negative rho (up, down):  8.512E-04 0.000E+00

     total cpu time spent up to now is    10939.4 secs

     total energy              =  -25519.79612447 Ry
     estimated scf accuracy    <       0.00000105 Ry

     iteration # 22     ecut=    77.00 Ry     beta= 0.20
     Davidson diagonalization with overlap
     c_bands:  3 eigenvalues not converged
     ethr =  8.20E-11,  avg # of iterations = 18.0

     negative rho (up, down):  8.521E-04 0.000E+00

     total cpu time spent up to now is    11821.6 secs

     total energy              =  -25519.79612532 Ry
     estimated scf accuracy    <       0.00000950 Ry

     iteration # 23     ecut=    77.00 Ry     beta= 0.20
     Davidson diagonalization with overlap
     ethr =  8.20E-11,  avg # of iterations =  4.8

     negative rho (up, down):  8.539E-04 0.000E+00

     total cpu time spent up to now is    12084.7 secs

     total energy              =  -25519.79612103 Ry
     estimated scf accuracy    <       0.00000593 Ry

     iteration # 24     ecut=    77.00 Ry     beta= 0.20
     Davidson diagonalization with overlap
     ethr =  8.20E-11,  avg # of iterations = 15.8

     negative rho (up, down):  8.571E-04 0.000E+00

     total cpu time spent up to now is    12728.8 secs

     total energy              =  -25519.79612394 Ry
     estimated scf accuracy    <       0.00000216 Ry

     iteration # 25     ecut=    77.00 Ry     beta= 0.20
     Davidson diagonalization with overlap
     ethr =  8.20E-11,  avg # of iterations =  1.8

     negative rho (up, down):  8.579E-04 0.000E+00

     total cpu time spent up to now is    12960.5 secs

     total energy              =  -25519.79612225 Ry
     estimated scf accuracy    <       0.00000276 Ry

     iteration # 26     ecut=    77.00 Ry     beta= 0.20
     Davidson diagonalization with overlap
     ethr =  8.20E-11,  avg # of iterations =  3.8

     negative rho (up, down):  8.585E-04 0.000E+00

     total cpu time spent up to now is    13198.9 secs

     End of self-consistent calculation

          k = 0.0000 0.0000 0.0000 (321495 PWs)   bands (ev):

  -101.7086 -70.0381 -70.0381 -70.0368 -70.0258 -70.0258 -69.9829 -69.9775
   -66.7684 -66.7473 -66.7473 -66.7473 -66.7473 -66.7473 -66.7473 -66.7261
   -66.7261 -66.7261 -66.7261 -66.7261 -66.7261 -66.7261 -66.7261 -66.7261
   -66.7023 -66.6813 -66.6813 -66.6813 -66.6812 -66.6811 -66.6811 -66.6601
   -66.6601 -66.6601 -66.6601 -66.6600 -66.6600 -66.6600 -66.6599 -66.6598
   -66.6257 -66.6113 -66.6113 -66.6034 -66.6015 -66.6015 -66.5927 -66.5896
   -66.5854 -66.5854 -66.5819 -66.5671 -66.5671 -66.5551 -66.5551 -66.5529
   -55.9965 -55.9316 -55.9315 -41.0948 -41.0948 -41.0948 -41.0275 -41.0275
   -41.0275 -41.0200 -41.0200 -41.0200 -41.0200 -41.0200 -41.0200 -40.9528
   -40.9528 -40.9528 -40.9528 -40.9527 -40.9527 -40.9499 -40.9437 -40.9437
   -40.9285 -40.8944 -40.8944 -40.8944 -40.8944 -40.8944 -40.8944 -40.8870
   -40.8870 -40.8870 -40.8870 -40.8870 -40.8870 -40.8781 -40.8781 -40.8705
   -40.8643 -40.8643 -40.8641 -40.8628 -40.8596 -40.8596 -40.8596 -40.8596
   -40.8596 -40.8596 -40.8453 -40.8453 -40.8453 -40.8453 -40.8453 -40.8453
   -40.8453 -40.8453 -40.8453 -40.8274 -40.8274 -40.8274 -40.8273 -40.8273
   -40.8273 -40.8215 -40.8215 -40.8215 -40.8214 -40.8214 -40.8213 -40.7926
   -40.7926 -40.7926 -40.7926 -40.7925 -40.7925 -40.7841 -40.7818 -40.7818
   -40.7818 -40.7799 -40.7799 -40.7799 -40.7799 -40.7799 -40.7797 -40.7797
   -40.7797 -40.7796 -40.7545 -40.7506 -40.7506 -40.7494 -40.7493 -40.7442
   -40.7433 -40.7433 -40.7375 -40.7375 -40.7374 -40.7350 -40.7350 -40.7350
   -40.7350 -40.7350 -40.7350 -40.7300 -40.7173 -40.7173 -40.7148 -40.7148
   -40.7148 -40.7138 -40.7104 -40.7060 -40.7060 -40.7057 -40.7057 -40.7043
   -40.6958 -40.6958 -40.6905 -40.6877 -40.6877 -40.6852 -40.6852 -40.6779
   -40.6681 -40.6681 -40.6681 -40.6680 -40.6680 -40.6680 -40.6395 -40.6280
   -40.6280 -40.6208 -40.6208 -40.5963 -40.5855 -40.5854 -40.5783 -40.5783
   -40.5770 -40.5338 -40.5338 -20.2009 -20.0899 -19.9678 -19.3661 -19.3343
   -19.3343 -19.3322 -19.3322 -19.3322 -19.3102 -19.2349 -19.2349 -19.2136
   -19.2136 -19.2136 -19.1670 -19.1249 -19.1248 -19.0792 -19.0792 -19.0788
   -18.9419 -18.7623 -18.6115 -18.5598 -18.5597 -18.5419 -18.5314 -18.5314
   -18.5313 -18.4419 -18.4418 -18.4376 -18.3726 -18.3726 -18.3722 -18.3041
   -18.3041 -18.2852 -18.2339 -18.2339 -18.2335 -18.2278 -18.2278 -18.2278
   -18.2277 -18.2277 -18.2277 -18.1876 -18.1876 -18.1875 -18.1789 -18.1788
   -18.1482 -18.1474 -18.1474 -18.1466 -18.1367 -18.1367 -18.1159 -18.1137
   -18.1137 -18.0659 -18.0555 -18.0555 -18.0529 -18.0425 -18.0425 -18.0406
   -18.0269 -18.0269 -18.0096 -17.9981 -17.9981 -17.9975 -17.9935 -17.9935
   -17.9928 -17.9620 -17.9620 -17.9508 -17.9340 -17.9340 -17.9267 -17.9188
   -17.9188 -17.9186 -17.8873 -17.8873 -17.8744 -17.8437 -17.8437 -17.8392
   -17.8299 -17.8299 -17.8270 -12.0420 -11.9210 -11.8441 -11.8441 -11.8404
   -11.7700 -11.7700 -11.7566 -11.6831 -11.6831 -11.6419 -11.3858 -11.2977
   -11.2977 -11.2876 -11.2876 -11.2873 -11.2584 -11.2214 -11.2214 -11.2152
   -11.2152 -11.2148 -11.2138 -11.1778 -11.1422 -11.1422 -11.0881 -11.0881
   -11.0866 -11.0701 -11.0449 -11.0449 -11.0073 -10.9998 -10.9998 -10.9902
   -10.9898 -10.9898 -10.9742 -10.9738 -10.9738 -10.9289 -10.9214 -10.9214
   -10.9191 -10.9191 -10.9191 -10.9105 -10.8933 -10.8933 -10.8903 -10.8856
   -10.8856 -10.8676 -10.8676 -10.8672 -10.8592 -10.8291 -10.8283 -10.8283
   -10.8081 -10.8081 -10.8058 -10.8015 -10.8015 -10.7408 -10.7408 -10.7344
   -10.6807 -10.6788 -10.6788 -10.6724 -10.6724 -10.6711 -10.2505 -10.2504
   -10.1363 -10.1307 -10.1307  -9.9893  -9.9636  -9.9636  -9.8784  -9.8649
    -9.8649  -9.8583  -9.8583  -9.8568  -9.8514  -9.7983  -9.7788  -9.7788
    -9.7708  -9.7708  -9.7641  -9.7478  -9.7477  -9.7441  -9.7113  -9.7113
    -9.7078  -9.7031  -9.6974  -9.6974  -9.6618  -9.6616  -9.6616  -9.6609
    -9.6580  -9.6580  -9.6350  -9.6350  -9.6045  -9.6035  -9.5932  -9.5932
    -9.5707  -9.5707  -9.5687  -9.5266  -9.5266  -9.5159  -9.5159  -9.5106
    -9.5084  -9.4199  -9.4199  -9.4155  -9.3939  -9.3930  -9.3930  -9.3579
    -9.3579  -9.2950  -9.2835  -9.2835  -9.2720  -9.2670  -9.2650  -9.2650
    -9.2580  -9.2580  -9.2499  -9.1377  -9.1377  -9.1064  -9.1064  -9.1064
    -9.0985  -9.0960  -9.0960  -9.0831  -9.0354  -9.0354  -9.0336  -9.0086
    -9.0086  -8.9662  -8.9407  -8.9407  -8.9274  -8.9263  -8.9263  -8.9247
    -8.8891  -8.8847  -8.8847  -8.8820  -8.8820  -8.8815  -8.8241  -8.8241
    -8.8187  -8.8050  -8.8050  -8.8020  -8.7839  -8.7756  -8.7756  -8.7550
    -8.7288  -8.7288  -8.5174  -8.5174  -8.5132  -8.4450  -8.4450  -8.4099
    -8.4099  -8.4053  -8.4053  -8.4053  -8.4053  -8.4046  -8.4046  -8.3355
    -8.3355  -8.3338  -8.3338  -8.3336  -8.3326  -8.3033  -8.3033  -8.2651
    -8.2651  -8.2618  -8.2421  -8.1147  -8.1147  -8.0653  -7.9923  -7.9923
    -7.9442  -7.8050  -7.7507  -7.7506  -7.6700  -7.6700  -7.6698  -7.6698
    -7.6698  -7.6698  -7.6319  -7.6289  -7.6289  -7.6236  -7.6232  -7.6232
    -7.6232  -7.6096  -7.6095  -7.5967  -7.5966  -7.5965  -7.5955  -7.5825
    -7.5825  -7.5751  -7.5539  -7.5539  -7.5509  -7.5493  -7.5493  -7.5451
    -7.5391  -7.5391  -7.5220  -7.5133  -7.5132  -7.5066  -7.5059  -7.5020
    -7.5020  -7.4949  -7.4949  -7.4758  -7.4758  -7.4694  -7.4394  -7.3886
    -7.3886  -7.3572  -7.3201  -7.3201  -7.2795  -7.2795  -7.2573  -7.2397
    -7.2397  -7.2384  -7.2384  -7.0637  -6.9854  -6.9854  -6.9425  -6.9286
    -6.9286  -6.9051  -6.8931  -6.8931  -6.8918  -6.8159  -6.8159  -6.7929
    -6.7253  -6.7253  -6.7151  -6.7151  -6.7073  -6.6973  -6.6932  -6.6925
    -6.6925  -6.6288  -6.6288  -6.6091  -6.6010  -6.6010  -6.5947  -6.5850
    -6.5837  -6.5837  -6.5526  -6.5526  -6.5246  -6.5110  -6.5099  -6.5099
    -6.5014  -6.5014  -6.4967  -6.4449  -6.4449  -6.4382  -6.4365  -6.4365
    -6.4365  -6.4365  -6.4365  -6.4365  -6.3821  -6.3598  -6.3596  -6.3596
    -6.3593  -6.3593  -6.3553  -6.2934  -6.2903  -6.2903  -6.2841  -6.2841
    -6.2420  -5.9175  -5.9175  -5.8908  -5.5768  -5.3223  -5.3223  -5.2386
    -4.4263  -3.9220  -3.9219  -3.9155  -3.9144  -3.9144  -3.8931  -3.8854
    -3.8854  -3.8833  -3.8820  -3.8820  -3.8676  -3.6882  -3.6879  -3.6589
    -3.6570  -3.6557  -3.6557  -3.6479  -3.6479  -3.6456  -3.6405  -3.6405
    -3.5771  -3.5771  -3.5770  -3.5597  -3.5593  -3.5592  -3.5592  -3.5581
    -3.5580  -3.5268  -3.5098  -3.5096  -3.5096  -3.4604  -3.4562  -3.4559
    -3.4548  -3.4501  -3.4500  -3.4464  -3.4464  -3.4395  -3.4319  -3.4319
    -3.4314  -3.4189  -3.4188  -3.4138  -3.3560  -3.3428  -3.3418  -3.3416
    -3.3371  -3.3371  -3.3237  -3.3237  -3.3138  -3.2841  -3.2840  -3.1230
    -3.1109  -3.1108  -3.1086  -3.1057  -3.1057  -3.0387  -3.0384  -3.0383
    -3.0382  -3.0381  -3.0378  -3.0373  -3.0372  -3.0139  -3.0139  -3.0127
    -2.9902  -2.9898  -2.9801  -2.9776  -2.9776  -2.9655  -2.9654  -2.9637
    -2.9636  -2.9626  -2.9625  -2.9521  -2.9520  -2.9402  -2.9110  -2.9110
    -2.8855  -2.8585  -2.8527  -2.8525  -2.8449  -2.8444  -2.8314  -2.8311
    -2.8282  -2.8193  -2.8112  -2.8106  -2.8043  -2.8040  -2.7770  -2.7769
    -2.7640  -2.7256  -2.7255  -2.7189  -2.7145  -2.7144  -2.6936  -2.6935
    -2.6299  -2.6105  -2.5631  -2.5466  -2.5462  -2.5424  -2.5398  -2.5396

          k = 0.0000-0.5773 0.0000 (321564 PWs)   bands (ev):

  -101.7086 -70.0381 -70.0381 -70.0368 -70.0258 -70.0258 -69.9829 -69.9775
   -66.7622 -66.7622 -66.7517 -66.7517 -66.7367 -66.7367 -66.7367 -66.7367
   -66.7323 -66.7323 -66.7261 -66.7261 -66.7261 -66.7261 -66.7217 -66.7217
   -66.6962 -66.6961 -66.6856 -66.6856 -66.6707 -66.6706 -66.6706 -66.6706
   -66.6663 -66.6662 -66.6601 -66.6600 -66.6600 -66.6599 -66.6556 -66.6556
   -66.6232 -66.6166 -66.6121 -66.6045 -66.5995 -66.5962 -66.5938 -66.5908
   -66.5855 -66.5847 -66.5826 -66.5674 -66.5674 -66.5549 -66.5543 -66.5537
   -55.9965 -55.9316 -55.9315 -41.0634 -41.0634 -41.0634 -41.0634 -41.0367
   -41.0367 -41.0248 -41.0248 -40.9962 -40.9962 -40.9961 -40.9961 -40.9744
   -40.9744 -40.9744 -40.9744 -40.9696 -40.9695 -40.9576 -40.9576 -40.9207
   -40.9182 -40.9164 -40.9163 -40.9141 -40.9072 -40.9072 -40.9072 -40.9072
   -40.9065 -40.9065 -40.9037 -40.8956 -40.8956 -40.8940 -40.8845 -40.8766
   -40.8698 -40.8662 -40.8662 -40.8662 -40.8662 -40.8575 -40.8575 -40.8508
   -40.8507 -40.8455 -40.8455 -40.8453 -40.8453 -40.8453 -40.8453 -40.8394
   -40.8394 -40.8367 -40.8367 -40.8300 -40.8300 -40.8265 -40.8259 -40.8240
   -40.8201 -40.8147 -40.8147 -40.8147 -40.8147 -40.8007 -40.8007 -40.8006
   -40.8006 -40.7921 -40.7919 -40.7802 -40.7802 -40.7802 -40.7802 -40.7799
   -40.7798 -40.7798 -40.7797 -40.7784 -40.7784 -40.7753 -40.7712 -40.7712
   -40.7693 -40.7681 -40.7681 -40.7585 -40.7549 -40.7531 -40.7489 -40.7489
   -40.7478 -40.7477 -40.7477 -40.7476 -40.7470 -40.7321 -40.7321 -40.7263
   -40.7241 -40.7192 -40.7191 -40.7144 -40.7132 -40.7132 -40.7132 -40.7132
   -40.7073 -40.7063 -40.7016 -40.7016 -40.7012 -40.7011 -40.6984 -40.6981
   -40.6956 -40.6955 -40.6851 -40.6833 -40.6831 -40.6821 -40.6820 -40.6730
   -40.6683 -40.6671 -40.6652 -40.6651 -40.6542 -40.6347 -40.6346 -40.6340
   -40.6325 -40.6263 -40.6241 -40.6208 -40.6099 -40.6038 -40.5923 -40.5799
   -40.5734 -40.5551 -40.5426 -19.9684 -19.9620 -19.8826 -19.8368 -19.7586
   -19.7014 -19.5293 -19.5282 -19.4282 -19.4141 -19.3179 -19.2924 -18.8813
   -18.8328 -18.8215 -18.8207 -18.8200 -18.8197 -18.7693 -18.7546 -18.7442
   -18.7146 -18.6988 -18.6747 -18.6639 -18.6262 -18.6229 -18.6162 -18.6081
   -18.5908 -18.5725 -18.5723 -18.5109 -18.4961 -18.4772 -18.4705 -18.4691
   -18.4562 -18.4209 -18.3722 -18.3526 -18.3296 -18.3003 -18.2949 -18.2928
   -18.2905 -18.2263 -18.2253 -18.2081 -18.2081 -18.2081 -18.2078 -18.1920
   -18.1801 -18.1750 -18.1638 -18.1413 -18.1354 -18.1316 -18.1314 -18.1197
   -18.1197 -18.0924 -18.0741 -18.0634 -18.0486 -18.0478 -18.0476 -18.0455
   -18.0453 -18.0169 -18.0127 -17.9988 -17.9985 -17.9955 -17.9787 -17.9549
   -17.9447 -17.9447 -17.9435 -17.9323 -17.9322 -17.8851 -17.8849 -17.8846
   -17.8759 -17.8684 -17.8684 -17.8438 -17.8436 -17.8272 -17.8262 -17.8034
   -17.7857 -17.7537 -17.7377 -11.8794 -11.7499 -11.7158 -11.5559 -11.5552
   -11.5551 -11.5540 -11.5303 -11.5298 -11.4781 -11.4722 -11.4701 -11.4669
   -11.4230 -11.4168 -11.4037 -11.4020 -11.3826 -11.3674 -11.3610 -11.3574
   -11.3542 -11.3401 -11.3375 -11.3375 -11.2925 -11.2915 -11.2914 -11.2441
   -11.2326 -11.2313 -11.2308 -11.2255 -11.2143 -11.1091 -11.0722 -11.0682
   -11.0535 -11.0390 -11.0364 -10.9972 -10.9938 -10.9745 -10.9675 -10.9532
   -10.9454 -10.9212 -10.9206 -10.9110 -10.9109 -10.9091 -10.9073 -10.9012
   -10.8760 -10.8688 -10.8568 -10.8518 -10.8469 -10.8458 -10.8441 -10.8206
   -10.7845 -10.7469 -10.7297 -10.6506 -10.6346 -10.5771 -10.5699 -10.5174
   -10.4459 -10.4196 -10.3015 -10.2902 -10.2221 -10.2036 -10.2035 -10.1957
   -10.1927 -10.1117 -10.1073 -10.0974 -10.0899 -10.0157 -10.0155 -10.0143
   -10.0096  -9.9925  -9.9901  -9.9835  -9.9803  -9.9731  -9.9712  -9.9631
    -9.9601  -9.8660  -9.8648  -9.8595  -9.8323  -9.8303  -9.8203  -9.8201
    -9.7963  -9.7937  -9.7864  -9.7840  -9.7807  -9.7440  -9.7134  -9.7060
    -9.7014  -9.7013  -9.6884  -9.6860  -9.6828  -9.6773  -9.6656  -9.6094
    -9.6092  -9.5937  -9.5845  -9.5661  -9.5484  -9.5482  -9.5387  -9.4964
    -9.4898  -9.4006  -9.3789  -9.3273  -9.3207  -9.2650  -9.2638  -9.2296
    -9.2169  -9.2126  -9.2105  -9.2039  -9.2038  -9.1930  -9.1924  -9.1481
    -9.1381  -9.1061  -9.0844  -9.0772  -9.0739  -9.0725  -9.0674  -9.0455
    -9.0346  -9.0307  -9.0190  -9.0113  -9.0112  -9.0039  -9.0031  -8.9883
    -8.9878  -8.9777  -8.9709  -8.9607  -8.9522  -8.9386  -8.9348  -8.9201
    -8.9200  -8.9158  -8.9026  -8.9008  -8.8869  -8.8818  -8.8766  -8.8624
    -8.8538  -8.8536  -8.8460  -8.8340  -8.8195  -8.8071  -8.8031  -8.7705
    -8.7590  -8.5934  -8.5933  -8.5307  -8.5273  -8.5159  -8.4791  -8.4790
    -8.4636  -8.2738  -8.2738  -8.2599  -8.2407  -8.2017  -8.2012  -8.1812
    -8.1533  -8.1190  -8.0883  -8.0131  -8.0128  -7.9617  -7.9547  -7.9510
    -7.9383  -7.9294  -7.9288  -7.9276  -7.9271  -7.9271  -7.9178  -7.9000
    -7.8856  -7.8815  -7.8809  -7.8803  -7.8791  -7.8582  -7.8567  -7.8492
    -7.8411  -7.8326  -7.8232  -7.8150  -7.8098  -7.8078  -7.8064  -7.7943
    -7.7941  -7.7892  -7.7776  -7.7700  -7.7675  -7.7594  -7.7421  -7.7419
    -7.7404  -7.7387  -7.7290  -7.7155  -7.7134  -7.7045  -7.6960  -7.6819
    -7.6720  -7.6714  -7.6709  -7.6442  -7.6425  -7.6240  -7.5928  -7.5799
    -7.5761  -7.5397  -7.5193  -7.4977  -7.4199  -7.3291  -7.3276  -7.3243
    -7.3196  -7.2742  -7.2485  -7.2403  -7.1982  -7.1951  -7.1917  -7.1235
    -7.1001  -7.0936  -7.0875  -7.0839  -7.0565  -7.0253  -7.0178  -7.0099
    -7.0044  -7.0030  -6.9999  -6.9486  -6.9153  -6.9088  -6.9069  -6.9037
    -6.8604  -6.8143  -6.7853  -6.7399  -6.7389  -6.7389  -6.7388  -6.7367
    -6.7185  -6.6828  -6.6805  -6.6726  -6.6712  -6.6698  -6.6576  -6.6449
    -6.6067  -6.5963  -6.5879  -6.5838  -6.5803  -6.5000  -6.4970  -6.4082
    -6.4077  -6.4074  -6.4074  -6.3494  -6.3467  -6.3421  -6.3354  -6.3312
    -6.3288  -6.3070  -6.2992  -6.2988  -6.2697  -6.2653  -6.2561  -6.2522
    -6.2482  -6.0588  -6.0587  -6.0268  -5.9834  -5.9773  -5.9417  -5.9188
    -5.8893  -5.8637  -5.8077  -5.7663  -5.6340  -5.6285  -5.3294  -5.3217
    -4.4379  -4.0955  -4.0954  -4.0906  -4.0684  -3.9742  -3.9742  -3.9525
    -3.9399  -3.9091  -3.9090  -3.8443  -3.8438  -3.8308  -3.8249  -3.8221
    -3.7940  -3.7476  -3.7059  -3.6758  -3.6741  -3.6737  -3.6717  -3.6594
    -3.6593  -3.6159  -3.6039  -3.6014  -3.5817  -3.5814  -3.5792  -3.5612
    -3.5540  -3.5515  -3.5431  -3.5426  -3.5405  -3.5369  -3.4886  -3.4740
    -3.4733  -3.4420  -3.4305  -3.4281  -3.4274  -3.4272  -3.4133  -3.3982
    -3.3953  -3.3860  -3.3852  -3.3517  -3.3504  -3.3501  -3.3501  -3.3476
    -3.3332  -3.3164  -3.3141  -3.3115  -3.3052  -3.2804  -3.2790  -3.2750
    -3.2740  -3.2693  -3.2608  -3.2527  -3.2121  -3.1996  -3.1870  -3.1773
    -3.1706  -3.1472  -3.1467  -3.1378  -3.1078  -3.1078  -3.1040  -3.0949
    -3.0869  -3.0868  -3.0868  -3.0866  -3.0497  -3.0465  -3.0377  -3.0375
    -3.0222  -3.0209  -3.0004  -2.9911  -2.9899  -2.9884  -2.9743  -2.9646
    -2.9569  -2.9407  -2.9361  -2.9308  -2.9261  -2.9171  -2.8904  -2.8856
    -2.8734  -2.8713  -2.8710  -2.8692  -2.8014  -2.7810  -2.7599  -2.7239
    -2.7228  -2.7208  -2.7033  -2.6988  -2.6940  -2.6409  -2.6368  -2.5979
    -2.5640  -2.5598  -2.5529  -2.5521  -2.5384  -2.4847  -2.3812  -2.3508

          k =-0.5000-0.2887 0.0000 (321564 PWs)   bands (ev):

  -101.7086 -70.0381 -70.0381 -70.0368 -70.0258 -70.0258 -69.9829 -69.9775
   -66.7622 -66.7622 -66.7517 -66.7517 -66.7367 -66.7367 -66.7367 -66.7367
   -66.7323 -66.7323 -66.7261 -66.7261 -66.7261 -66.7261 -66.7217 -66.7217
   -66.6962 -66.6961 -66.6856 -66.6856 -66.6707 -66.6706 -66.6706 -66.6706
   -66.6663 -66.6662 -66.6601 -66.6600 -66.6600 -66.6599 -66.6556 -66.6556
   -66.6232 -66.6166 -66.6121 -66.6045 -66.5995 -66.5962 -66.5938 -66.5908
   -66.5855 -66.5847 -66.5826 -66.5674 -66.5674 -66.5549 -66.5543 -66.5537
   -55.9965 -55.9316 -55.9315 -41.0634 -41.0634 -41.0634 -41.0634 -41.0367
   -41.0367 -41.0248 -41.0248 -40.9962 -40.9962 -40.9961 -40.9961 -40.9744
   -40.9744 -40.9744 -40.9744 -40.9696 -40.9695 -40.9576 -40.9576 -40.9207
   -40.9182 -40.9163 -40.9163 -40.9141 -40.9072 -40.9072 -40.9072 -40.9072
   -40.9065 -40.9065 -40.9037 -40.8956 -40.8956 -40.8940 -40.8845 -40.8766
   -40.8698 -40.8662 -40.8662 -40.8662 -40.8662 -40.8575 -40.8575 -40.8508
   -40.8507 -40.8455 -40.8455 -40.8453 -40.8453 -40.8453 -40.8453 -40.8394
   -40.8394 -40.8367 -40.8367 -40.8300 -40.8300 -40.8265 -40.8259 -40.8240
   -40.8201 -40.8147 -40.8147 -40.8147 -40.8147 -40.8007 -40.8007 -40.8006
   -40.8006 -40.7921 -40.7919 -40.7802 -40.7802 -40.7802 -40.7802 -40.7799
   -40.7798 -40.7798 -40.7797 -40.7784 -40.7784 -40.7753 -40.7712 -40.7712
   -40.7693 -40.7681 -40.7681 -40.7585 -40.7549 -40.7531 -40.7489 -40.7489
   -40.7478 -40.7477 -40.7477 -40.7476 -40.7470 -40.7320 -40.7320 -40.7263
   -40.7241 -40.7192 -40.7191 -40.7144 -40.7132 -40.7132 -40.7132 -40.7132
   -40.7073 -40.7063 -40.7016 -40.7016 -40.7012 -40.7011 -40.6984 -40.6981
   -40.6956 -40.6955 -40.6851 -40.6833 -40.6831 -40.6820 -40.6820 -40.6730
   -40.6683 -40.6671 -40.6651 -40.6651 -40.6542 -40.6347 -40.6347 -40.6340
   -40.6325 -40.6263 -40.6241 -40.6208 -40.6099 -40.6038 -40.5923 -40.5799
   -40.5734 -40.5551 -40.5426 -19.9684 -19.9620 -19.8826 -19.8368 -19.7586
   -19.7014 -19.5293 -19.5282 -19.4282 -19.4142 -19.3179 -19.2924 -18.8813
   -18.8328 -18.8215 -18.8207 -18.8200 -18.8197 -18.7693 -18.7546 -18.7442
   -18.7146 -18.6988 -18.6747 -18.6639 -18.6262 -18.6229 -18.6162 -18.6081
   -18.5908 -18.5725 -18.5723 -18.5109 -18.4961 -18.4772 -18.4706 -18.4691
   -18.4562 -18.4209 -18.3722 -18.3526 -18.3296 -18.3003 -18.2949 -18.2928
   -18.2905 -18.2263 -18.2253 -18.2081 -18.2081 -18.2081 -18.2078 -18.1920
   -18.1801 -18.1750 -18.1638 -18.1413 -18.1354 -18.1316 -18.1314 -18.1197
   -18.1197 -18.0924 -18.0741 -18.0634 -18.0486 -18.0478 -18.0476 -18.0455
   -18.0453 -18.0169 -18.0127 -17.9988 -17.9985 -17.9955 -17.9787 -17.9549
   -17.9447 -17.9447 -17.9435 -17.9323 -17.9322 -17.8851 -17.8849 -17.8846
   -17.8758 -17.8684 -17.8684 -17.8438 -17.8436 -17.8272 -17.8262 -17.8034
   -17.7857 -17.7537 -17.7377 -11.8794 -11.7500 -11.7158 -11.5559 -11.5552
   -11.5551 -11.5540 -11.5303 -11.5298 -11.4781 -11.4722 -11.4701 -11.4669
   -11.4230 -11.4168 -11.4037 -11.4020 -11.3826 -11.3674 -11.3610 -11.3574
   -11.3542 -11.3401 -11.3375 -11.3375 -11.2925 -11.2915 -11.2914 -11.2441
   -11.2326 -11.2313 -11.2308 -11.2255 -11.2143 -11.1091 -11.0722 -11.0682
   -11.0535 -11.0390 -11.0364 -10.9972 -10.9938 -10.9745 -10.9675 -10.9532
   -10.9454 -10.9212 -10.9206 -10.9110 -10.9109 -10.9091 -10.9073 -10.9012
   -10.8760 -10.8688 -10.8569 -10.8518 -10.8469 -10.8458 -10.8441 -10.8206
   -10.7845 -10.7468 -10.7297 -10.6506 -10.6346 -10.5771 -10.5699 -10.5174
   -10.4459 -10.4196 -10.3015 -10.2902 -10.2221 -10.2036 -10.2035 -10.1957
   -10.1927 -10.1117 -10.1073 -10.0974 -10.0899 -10.0157 -10.0155 -10.0143
   -10.0096  -9.9925  -9.9901  -9.9835  -9.9803  -9.9731  -9.9711  -9.9631
    -9.9601  -9.8660  -9.8648  -9.8595  -9.8323  -9.8303  -9.8203  -9.8201
    -9.7963  -9.7937  -9.7864  -9.7840  -9.7807  -9.7440  -9.7134  -9.7060
    -9.7014  -9.7013  -9.6884  -9.6860  -9.6828  -9.6773  -9.6656  -9.6094
    -9.6092  -9.5937  -9.5845  -9.5661  -9.5484  -9.5482  -9.5387  -9.4964
    -9.4898  -9.4006  -9.3789  -9.3273  -9.3207  -9.2650  -9.2638  -9.2295
    -9.2169  -9.2126  -9.2105  -9.2039  -9.2038  -9.1930  -9.1924  -9.1481
    -9.1381  -9.1061  -9.0844  -9.0772  -9.0739  -9.0725  -9.0674  -9.0455
    -9.0346  -9.0307  -9.0190  -9.0113  -9.0112  -9.0039  -9.0031  -8.9882
    -8.9878  -8.9777  -8.9709  -8.9607  -8.9522  -8.9386  -8.9348  -8.9202
    -8.9200  -8.9158  -8.9026  -8.9008  -8.8869  -8.8818  -8.8766  -8.8624
    -8.8538  -8.8536  -8.8460  -8.8340  -8.8195  -8.8071  -8.8031  -8.7705
    -8.7590  -8.5934  -8.5933  -8.5307  -8.5273  -8.5159  -8.4791  -8.4790
    -8.4636  -8.2739  -8.2739  -8.2599  -8.2407  -8.2017  -8.2012  -8.1812
    -8.1533  -8.1191  -8.0883  -8.0131  -8.0128  -7.9617  -7.9547  -7.9510
    -7.9383  -7.9294  -7.9288  -7.9275  -7.9271  -7.9271  -7.9178  -7.9000
    -7.8855  -7.8815  -7.8809  -7.8803  -7.8791  -7.8582  -7.8567  -7.8492
    -7.8411  -7.8326  -7.8232  -7.8150  -7.8098  -7.8078  -7.8064  -7.7942
    -7.7941  -7.7892  -7.7776  -7.7700  -7.7675  -7.7594  -7.7421  -7.7419
    -7.7404  -7.7387  -7.7290  -7.7155  -7.7134  -7.7044  -7.6960  -7.6819
    -7.6720  -7.6714  -7.6709  -7.6442  -7.6425  -7.6240  -7.5929  -7.5799
    -7.5761  -7.5397  -7.5192  -7.4977  -7.4199  -7.3291  -7.3276  -7.3243
    -7.3196  -7.2742  -7.2485  -7.2403  -7.1982  -7.1950  -7.1917  -7.1235
    -7.1001  -7.0936  -7.0875  -7.0839  -7.0565  -7.0253  -7.0178  -7.0099
    -7.0044  -7.0030  -6.9999  -6.9487  -6.9153  -6.9088  -6.9069  -6.9037
    -6.8604  -6.8143  -6.7853  -6.7400  -6.7389  -6.7389  -6.7388  -6.7367
    -6.7185  -6.6828  -6.6805  -6.6726  -6.6712  -6.6698  -6.6576  -6.6449
    -6.6067  -6.5963  -6.5879  -6.5838  -6.5803  -6.5000  -6.4970  -6.4082
    -6.4077  -6.4074  -6.4074  -6.3494  -6.3467  -6.3421  -6.3354  -6.3312
    -6.3287  -6.3070  -6.2992  -6.2988  -6.2697  -6.2653  -6.2561  -6.2522
    -6.2482  -6.0588  -6.0587  -6.0268  -5.9834  -5.9773  -5.9417  -5.9188
    -5.8892  -5.8637  -5.8077  -5.7663  -5.6340  -5.6285  -5.3293  -5.3217
    -4.4379  -4.0955  -4.0953  -4.0906  -4.0684  -3.9742  -3.9741  -3.9525
    -3.9398  -3.9091  -3.9090  -3.8443  -3.8440  -3.8308  -3.8249  -3.8219
    -3.7939  -3.7476  -3.7060  -3.6762  -3.6745  -3.6741  -3.6718  -3.6596
    -3.6596  -3.6159  -3.6039  -3.6014  -3.5816  -3.5811  -3.5791  -3.5612
    -3.5540  -3.5515  -3.5431  -3.5424  -3.5405  -3.5367  -3.4886  -3.4744
    -3.4734  -3.4421  -3.4305  -3.4283  -3.4274  -3.4272  -3.4134  -3.3981
    -3.3953  -3.3860  -3.3852  -3.3517  -3.3504  -3.3501  -3.3501  -3.3477
    -3.3333  -3.3165  -3.3142  -3.3113  -3.3054  -3.2803  -3.2790  -3.2748
    -3.2740  -3.2694  -3.2608  -3.2527  -3.2121  -3.1994  -3.1869  -3.1776
    -3.1707  -3.1463  -3.1458  -3.1378  -3.1079  -3.1078  -3.1045  -3.0949
    -3.0870  -3.0869  -3.0868  -3.0867  -3.0500  -3.0462  -3.0379  -3.0377
    -3.0225  -3.0208  -3.0004  -2.9913  -2.9901  -2.9887  -2.9745  -2.9649
    -2.9569  -2.9412  -2.9359  -2.9310  -2.9260  -2.9166  -2.8906  -2.8856
    -2.8742  -2.8713  -2.8709  -2.8697  -2.8019  -2.7755  -2.7630  -2.7241
    -2.7228  -2.7197  -2.7037  -2.6991  -2.6946  -2.6407  -2.6370  -2.5967
    -2.5640  -2.5600  -2.5532  -2.5519  -2.5384  -2.4823  -2.3860  -2.3561

          k =-0.5000-0.8660 0.0000 (321564 PWs)   bands (ev):

  -101.7086 -70.0381 -70.0381 -70.0368 -70.0258 -70.0258 -69.9829 -69.9775
   -66.7622 -66.7622 -66.7517 -66.7517 -66.7367 -66.7367 -66.7367 -66.7367
   -66.7323 -66.7323 -66.7261 -66.7261 -66.7261 -66.7261 -66.7217 -66.7217
   -66.6962 -66.6961 -66.6856 -66.6856 -66.6707 -66.6706 -66.6706 -66.6706
   -66.6663 -66.6662 -66.6601 -66.6600 -66.6600 -66.6599 -66.6556 -66.6556
   -66.6232 -66.6166 -66.6121 -66.6045 -66.5995 -66.5962 -66.5938 -66.5908
   -66.5855 -66.5847 -66.5826 -66.5674 -66.5674 -66.5549 -66.5543 -66.5537
   -55.9965 -55.9316 -55.9315 -41.0634 -41.0634 -41.0634 -41.0634 -41.0367
   -41.0367 -41.0248 -41.0248 -40.9962 -40.9962 -40.9961 -40.9961 -40.9744
   -40.9744 -40.9744 -40.9744 -40.9696 -40.9695 -40.9576 -40.9576 -40.9207
   -40.9182 -40.9164 -40.9163 -40.9141 -40.9072 -40.9072 -40.9072 -40.9072
   -40.9065 -40.9065 -40.9037 -40.8956 -40.8956 -40.8940 -40.8845 -40.8766
   -40.8698 -40.8662 -40.8662 -40.8662 -40.8662 -40.8575 -40.8575 -40.8508
   -40.8507 -40.8455 -40.8455 -40.8453 -40.8453 -40.8453 -40.8453 -40.8394
   -40.8394 -40.8367 -40.8367 -40.8300 -40.8300 -40.8265 -40.8259 -40.8240
   -40.8201 -40.8147 -40.8147 -40.8147 -40.8147 -40.8007 -40.8007 -40.8006
   -40.8006 -40.7921 -40.7919 -40.7802 -40.7802 -40.7802 -40.7802 -40.7799
   -40.7798 -40.7798 -40.7797 -40.7784 -40.7784 -40.7753 -40.7712 -40.7712
   -40.7693 -40.7681 -40.7681 -40.7585 -40.7549 -40.7531 -40.7489 -40.7489
   -40.7478 -40.7477 -40.7477 -40.7476 -40.7470 -40.7321 -40.7321 -40.7263
   -40.7241 -40.7192 -40.7191 -40.7144 -40.7132 -40.7132 -40.7132 -40.7132
   -40.7073 -40.7063 -40.7016 -40.7016 -40.7012 -40.7011 -40.6984 -40.6981
   -40.6956 -40.6955 -40.6851 -40.6833 -40.6831 -40.6820 -40.6820 -40.6730
   -40.6683 -40.6671 -40.6652 -40.6651 -40.6542 -40.6347 -40.6347 -40.6340
   -40.6325 -40.6263 -40.6241 -40.6208 -40.6099 -40.6038 -40.5923 -40.5799
   -40.5735 -40.5551 -40.5426 -19.9684 -19.9620 -19.8826 -19.8368 -19.7586
   -19.7014 -19.5293 -19.5282 -19.4282 -19.4142 -19.3179 -19.2924 -18.8813
   -18.8328 -18.8215 -18.8207 -18.8200 -18.8197 -18.7693 -18.7545 -18.7442
   -18.7146 -18.6988 -18.6747 -18.6639 -18.6262 -18.6229 -18.6162 -18.6081
   -18.5908 -18.5725 -18.5723 -18.5109 -18.4961 -18.4772 -18.4706 -18.4691
   -18.4562 -18.4209 -18.3722 -18.3526 -18.3296 -18.3003 -18.2949 -18.2928
   -18.2905 -18.2263 -18.2253 -18.2081 -18.2081 -18.2081 -18.2078 -18.1920
   -18.1801 -18.1750 -18.1638 -18.1413 -18.1354 -18.1316 -18.1314 -18.1197
   -18.1197 -18.0924 -18.0741 -18.0634 -18.0486 -18.0478 -18.0476 -18.0455
   -18.0453 -18.0169 -18.0127 -17.9988 -17.9985 -17.9955 -17.9787 -17.9549
   -17.9447 -17.9447 -17.9435 -17.9323 -17.9322 -17.8851 -17.8849 -17.8846
   -17.8758 -17.8684 -17.8684 -17.8438 -17.8436 -17.8272 -17.8262 -17.8034
   -17.7857 -17.7537 -17.7377 -11.8794 -11.7499 -11.7158 -11.5559 -11.5552
   -11.5551 -11.5540 -11.5303 -11.5298 -11.4781 -11.4722 -11.4701 -11.4669
   -11.4230 -11.4168 -11.4037 -11.4020 -11.3826 -11.3674 -11.3610 -11.3574
   -11.3542 -11.3401 -11.3375 -11.3375 -11.2925 -11.2915 -11.2914 -11.2441
   -11.2326 -11.2313 -11.2308 -11.2255 -11.2143 -11.1091 -11.0722 -11.0682
   -11.0535 -11.0390 -11.0364 -10.9972 -10.9938 -10.9745 -10.9675 -10.9532
   -10.9454 -10.9212 -10.9206 -10.9110 -10.9109 -10.9091 -10.9073 -10.9012
   -10.8760 -10.8688 -10.8569 -10.8518 -10.8469 -10.8458 -10.8441 -10.8206
   -10.7845 -10.7468 -10.7297 -10.6506 -10.6346 -10.5771 -10.5699 -10.5174
   -10.4459 -10.4196 -10.3016 -10.2902 -10.2221 -10.2036 -10.2035 -10.1957
   -10.1927 -10.1117 -10.1073 -10.0974 -10.0899 -10.0157 -10.0155 -10.0143
   -10.0096  -9.9925  -9.9901  -9.9835  -9.9803  -9.9731  -9.9712  -9.9631
    -9.9601  -9.8660  -9.8648  -9.8595  -9.8324  -9.8303  -9.8203  -9.8201
    -9.7963  -9.7937  -9.7864  -9.7840  -9.7807  -9.7440  -9.7134  -9.7060
    -9.7014  -9.7013  -9.6884  -9.6860  -9.6828  -9.6773  -9.6656  -9.6094
    -9.6092  -9.5937  -9.5845  -9.5661  -9.5484  -9.5482  -9.5387  -9.4964
    -9.4898  -9.4006  -9.3789  -9.3273  -9.3207  -9.2650  -9.2638  -9.2295
    -9.2169  -9.2126  -9.2105  -9.2039  -9.2038  -9.1930  -9.1924  -9.1481
    -9.1381  -9.1061  -9.0844  -9.0772  -9.0739  -9.0725  -9.0674  -9.0455
    -9.0346  -9.0307  -9.0190  -9.0113  -9.0112  -9.0039  -9.0031  -8.9882
    -8.9878  -8.9777  -8.9709  -8.9608  -8.9522  -8.9386  -8.9348  -8.9201
    -8.9200  -8.9158  -8.9026  -8.9008  -8.8869  -8.8818  -8.8766  -8.8624
    -8.8538  -8.8536  -8.8460  -8.8340  -8.8195  -8.8071  -8.8031  -8.7705
    -8.7590  -8.5934  -8.5933  -8.5307  -8.5273  -8.5159  -8.4791  -8.4790
    -8.4636  -8.2738  -8.2738  -8.2599  -8.2407  -8.2017  -8.2012  -8.1812
    -8.1533  -8.1190  -8.0883  -8.0131  -8.0128  -7.9617  -7.9547  -7.9510
    -7.9383  -7.9294  -7.9288  -7.9275  -7.9271  -7.9271  -7.9178  -7.9000
    -7.8856  -7.8815  -7.8809  -7.8803  -7.8791  -7.8582  -7.8567  -7.8492
    -7.8411  -7.8326  -7.8232  -7.8150  -7.8098  -7.8078  -7.8064  -7.7943
    -7.7941  -7.7892  -7.7776  -7.7700  -7.7675  -7.7594  -7.7421  -7.7419
    -7.7404  -7.7387  -7.7290  -7.7155  -7.7134  -7.7045  -7.6960  -7.6819
    -7.6720  -7.6714  -7.6709  -7.6442  -7.6425  -7.6240  -7.5928  -7.5799
    -7.5761  -7.5397  -7.5192  -7.4977  -7.4199  -7.3291  -7.3276  -7.3243
    -7.3196  -7.2742  -7.2485  -7.2403  -7.1982  -7.1950  -7.1917  -7.1235
    -7.1001  -7.0936  -7.0875  -7.0839  -7.0565  -7.0253  -7.0178  -7.0099
    -7.0044  -7.0030  -6.9999  -6.9486  -6.9153  -6.9088  -6.9069  -6.9037
    -6.8604  -6.8143  -6.7853  -6.7400  -6.7389  -6.7389  -6.7388  -6.7367
    -6.7185  -6.6828  -6.6805  -6.6726  -6.6712  -6.6698  -6.6576  -6.6449
    -6.6067  -6.5963  -6.5879  -6.5838  -6.5803  -6.5000  -6.4970  -6.4082
    -6.4077  -6.4074  -6.4074  -6.3494  -6.3467  -6.3421  -6.3354  -6.3312
    -6.3288  -6.3070  -6.2992  -6.2988  -6.2697  -6.2653  -6.2561  -6.2522
    -6.2482  -6.0588  -6.0587  -6.0268  -5.9834  -5.9773  -5.9417  -5.9188
    -5.8893  -5.8637  -5.8077  -5.7663  -5.6340  -5.6285  -5.3294  -5.3217
    -4.4379  -4.0954  -4.0953  -4.0906  -4.0684  -3.9742  -3.9741  -3.9525
    -3.9398  -3.9091  -3.9091  -3.8443  -3.8438  -3.8307  -3.8249  -3.8219
    -3.7940  -3.7476  -3.7059  -3.6759  -3.6741  -3.6739  -3.6716  -3.6597
    -3.6596  -3.6156  -3.6037  -3.6011  -3.5816  -3.5813  -3.5792  -3.5610
    -3.5538  -3.5514  -3.5428  -3.5423  -3.5402  -3.5366  -3.4886  -3.4742
    -3.4733  -3.4419  -3.4304  -3.4282  -3.4275  -3.4274  -3.4133  -3.3985
    -3.3953  -3.3860  -3.3855  -3.3515  -3.3502  -3.3498  -3.3498  -3.3477
    -3.3333  -3.3164  -3.3142  -3.3116  -3.3052  -3.2802  -3.2789  -3.2748
    -3.2739  -3.2693  -3.2608  -3.2529  -3.2124  -3.1993  -3.1867  -3.1775
    -3.1705  -3.1467  -3.1465  -3.1378  -3.1079  -3.1076  -3.1042  -3.0948
    -3.0869  -3.0868  -3.0867  -3.0865  -3.0500  -3.0457  -3.0379  -3.0374
    -3.0225  -3.0210  -3.0003  -2.9911  -2.9898  -2.9883  -2.9746  -2.9649
    -2.9569  -2.9406  -2.9358  -2.9310  -2.9256  -2.9168  -2.8904  -2.8857
    -2.8744  -2.8711  -2.8708  -2.8688  -2.8023  -2.7792  -2.7579  -2.7241
    -2.7228  -2.7202  -2.7034  -2.6986  -2.6941  -2.6406  -2.6368  -2.5969
    -2.5637  -2.5602  -2.5531  -2.5525  -2.5383  -2.4854  -2.3887  -2.3540

     the Fermi energy is    -4.8510 ev

!    total energy              =  -25519.79612193 Ry
     total all-electron energy =   -502192.339069 Ry
     estimated scf accuracy    <       0.00000047 Ry
     smearing contrib. (-TS)   =      -0.00000099 Ry
     internal energy E=F+TS    =  -25519.79612095 Ry

     The total energy is F=E-TS. E is the sum of the following terms:
     one-electron contribution =  473163.87944005 Ry
     hartree contribution      = -236723.46615363 Ry
     xc contribution           =   -1503.55460629 Ry
     ewald contribution        = -244519.08831660 Ry
     DFT-D3 Dispersion         =      -3.98092802 Ry
     one-center paw contrib.   =  -15933.58555645 Ry

     convergence has been achieved in  26 iterations

     negative rho (up, down):  8.585E-04 0.000E+00

     Forces acting on atoms (cartesian axes, Ry/au):

     atom    1 type  1   force =    -0.00000292   -0.01363170   -0.00882984
     atom    2 type  1   force =    -0.00000409   -0.00000054    0.00190891
     atom    3 type  1   force =    -0.00001693   -0.00001051   -0.00001478
     atom    4 type  2   force =     0.00000034    0.00000029   -0.00339318
     atom    5 type  2   force =    -0.00000184    0.00000156   -0.00010158
     atom    6 type  2   force =     0.00063726    0.00001931   -0.00000298
     atom    7 type  2   force =     0.00000022   -0.00000028    0.00159514
     atom    8 type  2   force =    -0.00000294   -0.00000760    0.00010504
     atom    9 type  2   force =    -0.00092653   -0.00016403   -0.00008668
     atom   10 type  1   force =    -0.00438311   -0.00254076   -0.00942057
     atom   11 type  1   force =     0.00000037   -0.00000689    0.00190849
     atom   12 type  1   force =    -0.00001453    0.00000133    0.00001727
     atom   13 type  2   force =     0.00000099   -0.00000162   -0.00339523
     atom   14 type  2   force =     0.00000404    0.00000078   -0.00009718
     atom   15 type  2   force =    -0.00059816   -0.00034904    0.00041108
     atom   16 type  2   force =    -0.00000000   -0.00000102    0.00159654
     atom   17 type  2   force =     0.00002861   -0.00000844    0.00007534
     atom   18 type  2   force =     0.00041002    0.00023353    0.00128689
     atom   19 type  1   force =    -0.01180730    0.00681838   -0.00883058
     atom   20 type  1   force =    -0.00000428    0.00000089    0.00190911
     atom   21 type  1   force =    -0.00002128   -0.00000528   -0.00001707
     atom   22 type  2   force =    -0.00000097    0.00000062   -0.00339736
     atom   23 type  2   force =     0.00000657   -0.00000255   -0.00009777
     atom   24 type  2   force =     0.00033412    0.00054131   -0.00000695
     atom   25 type  2   force =    -0.00000154    0.00000067    0.00159883
     atom   26 type  2   force =     0.00001138    0.00002190    0.00007627
     atom   27 type  2   force =    -0.00060586   -0.00072080   -0.00008087
     atom   28 type  1   force =     0.00035620    0.00021681   -0.00027860
     atom   29 type  1   force =    -0.00000058   -0.00000267    0.00190755
     atom   30 type  1   force =     0.00000527   -0.00001312   -0.00001485
     atom   31 type  2   force =     0.00000020    0.00000154   -0.00339666
     atom   32 type  2   force =    -0.00000260    0.00000370   -0.00009954
     atom   33 type  2   force =    -0.00000453    0.00000235    0.00006374
     atom   34 type  2   force =    -0.00000107    0.00000046    0.00159923
     atom   35 type  2   force =    -0.00001053    0.00000799    0.00010454
     atom   36 type  2   force =    -0.00000505    0.00000205   -0.00025598
     atom   37 type  1   force =     0.00044705    0.00172821    0.00070347
     atom   38 type  1   force =     0.00000504    0.00000364    0.00190827
     atom   39 type  1   force =     0.00002396   -0.00001277   -0.00001349
     atom   40 type  2   force =    -0.00000037    0.00000046   -0.00339688
     atom   41 type  2   force =    -0.00000081    0.00000117   -0.00009604
     atom   42 type  2   force =    -0.00063953    0.00002228   -0.00000598
     atom   43 type  2   force =     0.00000007    0.00000107    0.00159980
     atom   44 type  2   force =    -0.00000725   -0.00000134    0.00007682
     atom   45 type  2   force =     0.00092547   -0.00016044   -0.00008341
     atom   46 type  1   force =     0.00439424   -0.00253406   -0.00942326
     atom   47 type  1   force =     0.00000215   -0.00000036    0.00191053
     atom   48 type  1   force =     0.00000144   -0.00002010   -0.00002600
     atom   49 type  2   force =     0.00000011    0.00000047   -0.00339641
     atom   50 type  2   force =    -0.00000486    0.00000358   -0.00009741
     atom   51 type  2   force =     0.00000192    0.00001990    0.00142780
     atom   52 type  2   force =     0.00000031    0.00000052    0.00159889
     atom   53 type  2   force =    -0.00002716   -0.00000579    0.00007715
     atom   54 type  2   force =    -0.00000010    0.01624045    0.02377222
     atom   55 type  1   force =     0.00001254    0.00507134   -0.00942118
     atom   56 type  1   force =     0.00000709    0.00000115    0.00190850
     atom   57 type  1   force =    -0.00002098    0.00001113   -0.00002832
     atom   58 type  2   force =     0.00000129   -0.00000011   -0.00339805
     atom   59 type  2   force =     0.00000262    0.00000052   -0.00010005
     atom   60 type  2   force =     0.00002162   -0.00001088    0.00142668
     atom   61 type  2   force =     0.00000212    0.00000084    0.00160171
     atom   62 type  2   force =     0.00000375    0.00000032    0.00014827
     atom   63 type  2   force =     0.01406732   -0.00812111    0.02377715
     atom   64 type  1   force =     0.00171994   -0.00046772    0.00070355
     atom   65 type  1   force =     0.00000357    0.00000255    0.00190871
     atom   66 type  1   force =    -0.00000684    0.00001818   -0.00001735
     atom   67 type  2   force =     0.00000109    0.00000063   -0.00339880
     atom   68 type  2   force =     0.00000497   -0.00000194   -0.00009615
     atom   69 type  2   force =    -0.00030037   -0.00056090   -0.00000681
     atom   70 type  2   force =     0.00000039   -0.00000008    0.00160066
     atom   71 type  2   force =    -0.00001210   -0.00001709    0.00007415
     atom   72 type  2   force =     0.00032266    0.00088598   -0.00008161
     atom   73 type  1   force =    -0.00000092   -0.00000079   -0.00024908
     atom   74 type  1   force =    -0.00000049   -0.00000137    0.00190887
     atom   75 type  1   force =    -0.00003370   -0.00001398   -0.00000103
     atom   76 type  2   force =     0.00000066    0.00000021   -0.00339673
     atom   77 type  2   force =     0.00000191   -0.00000333   -0.00009433
     atom   78 type  2   force =    -0.00019820   -0.00011382   -0.00007476
     atom   79 type  2   force =    -0.00000025    0.00000075    0.00159702
     atom   80 type  2   force =     0.00000265   -0.00001160    0.00012155
     atom   81 type  2   force =     0.00002976    0.00001849    0.00032682
     atom   82 type  1   force =    -0.00127223   -0.00124686    0.00069966
     atom   83 type  1   force =    -0.00000077   -0.00000209    0.00190949
     atom   84 type  1   force =     0.00002369   -0.00000059    0.00002157
     atom   85 type  2   force =     0.00000047   -0.00000065   -0.00339419
     atom   86 type  2   force =    -0.00000487    0.00000141   -0.00009603
     atom   87 type  2   force =     0.00059782   -0.00034369    0.00041428
     atom   88 type  2   force =    -0.00000004    0.00000069    0.00159589
     atom   89 type  2   force =    -0.00001153    0.00000375    0.00012091
     atom   90 type  2   force =    -0.00040960    0.00023805    0.00128231
     atom   91 type  1   force =     0.01180168    0.00681893   -0.00882706
     atom   92 type  1   force =     0.00000009    0.00000275    0.00190955
     atom   93 type  1   force =     0.00002433    0.00001103   -0.00002730
     atom   94 type  2   force =    -0.00000005    0.00000037   -0.00339522
     atom   95 type  2   force =    -0.00000707    0.00000120   -0.00009441
     atom   96 type  2   force =    -0.00001487   -0.00000929    0.00143060
     atom   97 type  2   force =    -0.00000002    0.00000013    0.00159911
     atom   98 type  2   force =    -0.00001071    0.00002561    0.00007301
     atom   99 type  2   force =    -0.01406325   -0.00811906    0.02377283
     atom  100 type  1   force =    -0.00171073   -0.00047708    0.00070150
     atom  101 type  1   force =     0.00000260   -0.00000190    0.00190948
     atom  102 type  1   force =    -0.00000018    0.00000588    0.00002591
     atom  103 type  2   force =     0.00000124   -0.00000002   -0.00339570
     atom  104 type  2   force =    -0.00000096   -0.00000290   -0.00009262
     atom  105 type  2   force =     0.00000539    0.00069207    0.00041668
     atom  106 type  2   force =     0.00000068   -0.00000040    0.00160075
     atom  107 type  2   force =     0.00001926   -0.00001714    0.00007030
     atom  108 type  2   force =     0.00000461   -0.00047264    0.00128148
     atom  109 type  1   force =    -0.00044728    0.00171345    0.00070272
     atom  110 type  1   force =     0.00000332   -0.00000175    0.00190872
     atom  111 type  1   force =     0.00002663   -0.00001408   -0.00000194
     atom  112 type  2   force =     0.00000065   -0.00000003   -0.00339729
     atom  113 type  2   force =    -0.00000113   -0.00000252   -0.00009270
     atom  114 type  2   force =     0.00019993   -0.00011700   -0.00007088
     atom  115 type  2   force =    -0.00000027   -0.00000041    0.00159802
     atom  116 type  2   force =     0.00000654   -0.00000692    0.00007526
     atom  117 type  2   force =    -0.00002887    0.00001501    0.00032237
     atom  118 type  1   force =     0.00125689   -0.00125342    0.00070385
     atom  119 type  1   force =     0.00000011   -0.00000102    0.00191105
     atom  120 type  1   force =    -0.00000376    0.00003634   -0.00000292
     atom  121 type  2   force =    -0.00000108   -0.00000061   -0.00339432
     atom  122 type  2   force =     0.00000271   -0.00000228   -0.00009703
     atom  123 type  2   force =    -0.00000202    0.00022891   -0.00007286
     atom  124 type  2   force =    -0.00000112    0.00000044    0.00159958
     atom  125 type  2   force =     0.00000895   -0.00000034    0.00012394
     atom  126 type  2   force =    -0.00000227   -0.00003475    0.00032492
     atom  127 type  1   force =    -0.00001267   -0.00042151   -0.00027719
     atom  128 type  1   force =     0.00000016    0.00000023    0.00190936
     atom  129 type  1   force =     0.00001583   -0.00001002   -0.00001168
     atom  130 type  2   force =     0.00000016   -0.00000001   -0.00339658
     atom  131 type  2   force =    -0.00000365   -0.00000036   -0.00009989
     atom  132 type  2   force =    -0.00034126    0.00054322   -0.00000059
     atom  133 type  2   force =    -0.00000026    0.00000003    0.00159798
     atom  134 type  2   force =    -0.00000444    0.00000706    0.00007899
     atom  135 type  2   force =     0.00059914   -0.00071773   -0.00008637
     atom  136 type  1   force =    -0.00037214    0.00021023   -0.00027542
     atom  137 type  1   force =    -0.00000144    0.00000076    0.00190944
     atom  138 type  1   force =     0.00000517    0.00001031   -0.00001523
     atom  139 type  2   force =    -0.00000004    0.00000047   -0.00339357
     atom  140 type  2   force =    -0.00000383    0.00000258   -0.00009891
     atom  141 type  2   force =     0.00030014   -0.00056467    0.00000205
     atom  142 type  2   force =    -0.00000063   -0.00000031    0.00159866
     atom  143 type  2   force =     0.00000292    0.00000700    0.00010370
     atom  144 type  2   force =    -0.00032146    0.00088108   -0.00009072
     atom  145 type  3   force =     0.00001268    0.00000216   -0.03162149
     The non-local contrib.  to forces
     atom    1 type  1   force =    -0.00000152    0.01102137   -0.00355886
     atom    2 type  1   force =    -0.00000277   -0.00000070   -0.00196224
     atom    3 type  1   force =     0.00001577   -0.00006242   -0.00068972
     atom    4 type  2   force =     0.00000039   -0.00000050    0.26316907
     atom    5 type  2   force =    -0.00000198   -0.00000096    0.26638360
     atom    6 type  2   force =     0.00021922   -0.00031800    0.26628874
     atom    7 type  2   force =     0.00000078   -0.00000056   -0.26457934
[...]
     atom   63 type  2   force =     0.00006323   -0.00003651   -0.00435954
     atom   64 type  1   force =     0.00007134   -0.00021528   -0.00245852
     atom   65 type  1   force =    -0.00000002    0.00000006    0.00260428
     atom   66 type  1   force =    -0.00000318    0.00000281   -0.00002809
     atom   67 type  2   force =    -0.00000002    0.00000001    0.00441158
     atom   68 type  2   force =    -0.00000091    0.00000011   -0.00004969
     atom   69 type  2   force =    -0.00000306   -0.00000682   -0.00016579
     atom   70 type  2   force =    -0.00000017    0.00000010    0.00023569
     atom   71 type  2   force =    -0.00001023    0.00000880    0.00008534
     atom   72 type  2   force =     0.00022036   -0.00025937   -0.00430413
     atom   73 type  1   force =    -0.00000001    0.00000000   -0.00261060
     atom   74 type  1   force =    -0.00000001   -0.00000001    0.00260438
     atom   75 type  1   force =    -0.00000133   -0.00000072   -0.00003097
     atom   76 type  2   force =     0.00000000    0.00000001    0.00441160
     atom   77 type  2   force =    -0.00000001   -0.00000000   -0.00004831
     atom   78 type  2   force =    -0.00000063   -0.00000034   -0.00019985
     atom   79 type  2   force =    -0.00000003    0.00000003    0.00023560
     atom   80 type  2   force =    -0.00000001   -0.00000022    0.00009264
     atom   81 type  2   force =    -0.00002499   -0.00001442   -0.00439788
     atom   82 type  1   force =    -0.00022214    0.00004586   -0.00245856
     atom   83 type  1   force =    -0.00000001    0.00000002    0.00260440
     atom   84 type  1   force =     0.00000508   -0.00000279   -0.00003719
     atom   85 type  2   force =     0.00000001   -0.00000000    0.00441160
     atom   86 type  2   force =    -0.00000002    0.00000006   -0.00004827
     atom   87 type  2   force =    -0.00004586    0.00002651   -0.00009089
     atom   88 type  2   force =     0.00000004   -0.00000001    0.00023559
     atom   89 type  2   force =    -0.00000020    0.00000014    0.00009260
     atom   90 type  2   force =    -0.00048142    0.00027795   -0.00418273
     atom   91 type  1   force =    -0.00031655   -0.00018277   -0.00226129
     atom   92 type  1   force =     0.00000007   -0.00000003    0.00260429
     atom   93 type  1   force =     0.00000636    0.00000363   -0.00004626
     atom   94 type  2   force =     0.00000003   -0.00000001    0.00441142
     atom   95 type  2   force =     0.00000058    0.00000067   -0.00004964
     atom   96 type  2   force =    -0.00010163   -0.00005871    0.00016900
     atom   97 type  2   force =     0.00000015   -0.00000006    0.00023550
     atom   98 type  2   force =     0.00001280    0.00000448    0.00008532
     atom   99 type  2   force =    -0.00006323   -0.00003651   -0.00435953
     atom  100 type  1   force =    -0.00007134   -0.00021530   -0.00245850
     atom  101 type  1   force =     0.00000001    0.00000005    0.00260427
     atom  102 type  1   force =    -0.00000001    0.00000570   -0.00003717
     atom  103 type  2   force =     0.00000000    0.00000003    0.00441142
     atom  104 type  2   force =     0.00000089    0.00000011   -0.00004968
     atom  105 type  2   force =     0.00000000   -0.00005298   -0.00009089
     atom  106 type  2   force =    -0.00000001    0.00000013    0.00023550
     atom  107 type  2   force =     0.00001025    0.00000879    0.00008535
     atom  108 type  2   force =     0.00000001   -0.00055589   -0.00418273
     atom  109 type  1   force =     0.00015078    0.00016943   -0.00245848
     atom  110 type  1   force =     0.00000003   -0.00000003    0.00260435
     atom  111 type  1   force =     0.00000125   -0.00000074   -0.00003098
     atom  112 type  2   force =    -0.00000000    0.00000001    0.00441160
     atom  113 type  2   force =     0.00000047   -0.00000029   -0.00004788
     atom  114 type  2   force =     0.00000061   -0.00000035   -0.00019985
     atom  115 type  2   force =    -0.00000000    0.00000002    0.00023559
     atom  116 type  2   force =     0.00000358   -0.00000209    0.00009115
     atom  117 type  2   force =     0.00002499   -0.00001443   -0.00439787
     atom  118 type  1   force =     0.00022212    0.00004585   -0.00245852
     atom  119 type  1   force =     0.00000000    0.00000002    0.00260439
     atom  120 type  1   force =    -0.00000006    0.00000159   -0.00003099
     atom  121 type  2   force =     0.00000000    0.00000000    0.00441164
     atom  122 type  2   force =     0.00000000    0.00000007   -0.00004830
     atom  123 type  2   force =    -0.00000002    0.00000074   -0.00019987
     atom  124 type  2   force =    -0.00000002    0.00000001    0.00023589
     atom  125 type  2   force =     0.00000014    0.00000012    0.00009262
     atom  126 type  2   force =    -0.00000000    0.00002885   -0.00439788
     atom  127 type  1   force =    -0.00000003   -0.00000900   -0.00258956
     atom  128 type  1   force =    -0.00000000    0.00000005    0.00260443
     atom  129 type  1   force =     0.00000404    0.00000125   -0.00002804
     atom  130 type  2   force =     0.00000001   -0.00000001    0.00441160
     atom  131 type  2   force =     0.00000003    0.00000056   -0.00004784
     atom  132 type  2   force =    -0.00000440    0.00000605   -0.00016582
     atom  133 type  2   force =     0.00000005    0.00000001    0.00023563
     atom  134 type  2   force =    -0.00000003    0.00000417    0.00009109
     atom  135 type  2   force =    -0.00033481   -0.00006115   -0.00430414
     atom  136 type  1   force =    -0.00000780    0.00000449   -0.00258951
     atom  137 type  1   force =     0.00000004   -0.00000000    0.00260443
     atom  138 type  1   force =     0.00000318    0.00000272   -0.00002806
     atom  139 type  2   force =     0.00000002    0.00000001    0.00441157
     atom  140 type  2   force =     0.00000004    0.00000001   -0.00004753
     atom  141 type  2   force =     0.00000306   -0.00000686   -0.00016578
     atom  142 type  2   force =     0.00000018    0.00000007    0.00023570
     atom  143 type  2   force =     0.00000775    0.00000443    0.00009957
     atom  144 type  2   force =    -0.00022036   -0.00025937   -0.00430414
     atom  145 type  3   force =     0.00000000   -0.00000000   -0.00658360

     Total force =     0.003815     Total SCF correction =     0.000412
     SCF correction compared to forces is large: reduce conv_thr to get better values
     Energy error            =      3.5E-05 Ry
     Gradient error          =      9.1E-04 Ry/Bohr

     bfgs converged in  10 scf cycles and   9 bfgs steps
     (criteria: energy <  1.0E-04 Ry, force <  1.0E-03 Ry/Bohr)

     End of BFGS Geometry Optimization

     Final energy             =  -25519.8021285264 Ry

     File ./outdir/pwscf.bfgs deleted, as requested
Begin final coordinates

ATOMIC_POSITIONS (angstrom)
Mo            1.5768906855        2.7079250198        6.0774495829
Mo            1.5769197498        0.9104407117       -6.0872367793    0   0   0
Mo           -0.0000936685        1.8208983075       -0.0011134230
S             0.0000044503        0.0000077495       -7.6506323570    0   0   0
S             1.5769104579        0.9104180221       -1.5664345231
S            -0.0035717858        1.8174185471        4.5139918018
S             0.0000053241        0.0000068460       -4.5222282367    0   0   0
S             1.5769016091        0.9104405535        1.5660781714
S            -0.0028383467        1.8167036691        7.6524014873
Mo           -0.0050808993        5.4596512251        6.0912141561
Mo            0.0000011799        3.6417399547       -6.0872367793    0   0   0
Mo           -1.5770033171        4.5521806536       -0.0006807560
S            -1.5769141197        2.7313069925       -7.6506323570    0   0   0
S            -0.0001612232        3.6418495304       -1.5663167656
S            -1.5755438182        4.5529521806        4.5207240419
S            -1.5769132459        2.7313060890       -4.5222282367    0   0   0
S             0.0001791448        3.6417564873        1.5663082104
S            -1.5762106153        4.5525645010        7.6591610411
Mo           -1.5971681650        8.2055547893        6.0774522240
Mo           -1.5769173901        6.3730391977       -6.0872367793    0   0   0
Mo           -3.1538844507        7.2834079690       -0.0011337535
S            -3.1538326896        5.4626062355       -7.6506323570    0   0   0
S            -1.5769368750        6.3729100257       -1.5663643612
S            -3.1586045952        7.2820847874        4.5139983493
S            -3.1538318159        5.4626053320       -4.5222282367    0   0   0
S            -1.5768503139        6.3732641400        1.5663172165
S            -3.1588551795        7.2830821632        7.6524042606
Mo            3.1561781543        0.0013563353        6.0822609062
Mo           -3.1538359601        9.1043384407       -6.0872367793    0   0   0
Mo           -4.7307741991       10.0147363419       -0.0010123363
S            -4.7307512596        8.1939054785       -7.6506323570    0   0   0
S            -3.1538963484        9.1043401755       -1.5665065085
S            -4.7307787314       10.0147476103        4.5185457965
S            -4.7307503859        8.1939045750       -4.5222282367    0   0   0
S            -3.1538532676        9.1043120428        1.5660984682
S            -4.7307791174       10.0147494405        7.6488842953
Mo            4.7306074460        2.7330714325        6.0861453091
Mo            4.7307503218        0.9104407117       -6.0872367793    0   0   0
Mo            3.1539085220        1.8208909972       -0.0010973828
S             3.1538350223        0.0000077495       -7.6506323570    0   0   0
S             4.7307414214        0.9104471015       -1.5667428468
S             3.1573591256        1.8174215711        4.5139953726
S             3.1538358961        0.0000068460       -4.5222282367    0   0   0
S             4.7308122299        0.9104591975        1.5657772763
S             3.1566204430        1.8167012721        7.6524000202
Mo            3.1588639513        5.4596551104        6.0912128200
Mo            3.1538317519        3.6417399547       -6.0872367793    0   0   0
Mo            1.5768996812        4.5522811683       -0.0008762778
S             1.5769164523        2.7313069925       -7.6506323570    0   0   0
S             3.1539875352        3.6418490008       -1.5662786675
S             1.5768883159        4.5461646677        4.5347524198
S             1.5769173261        2.7313060890       -4.5222282367    0   0   0
S             3.1536262236        3.6417566431        1.5663117668
S             1.5768870720        4.5310699570        7.6824947205
Mo            1.5768920896        8.1997212132        6.0912144320
Mo            1.5769131819        6.3730391977       -6.0872367793    0   0   0
Mo            0.0000596620        7.2834051660       -0.0008931884
S            -0.0000021176        5.4626062355       -7.6506323570    0   0   0
S             1.5769024261        6.3730261906       -1.5663086895
S            -0.0052042043        7.2864344280        4.5347519021
S            -0.0000012439        5.4626053320       -4.5222282367    0   0   0
S             1.5768920695        6.3730322814        1.5670721286
S            -0.0182668011        7.2939730802        7.6824971591
Mo            6.3091367087       -0.0010072194        6.0861480057
Mo           -0.0000053881        9.1043384407       -6.0872367793    0   0   0
Mo           -1.5769118340       10.0148099215       -0.0011279381
S            -1.5769206876        8.1939054785       -7.6506323570    0   0   0
S             0.0001160436        9.1043907935       -1.5663212417
S            -1.5781384272       10.0195373219        4.5140003075
S            -1.5769198139        8.1939045750       -4.5222282367    0   0   0
S            -0.0001814579        9.1041161356        1.5663208915
S            -1.5791333847       10.0192564550        7.6524035581
Mo            7.8845529116        2.7312802652        6.0855412552
Mo            7.8845808939        0.9104407117       -6.0872367793    0   0   0
Mo            6.3076084354        1.8208667066       -0.0011035269
S             6.3076655943        0.0000077495       -7.6506323570    0   0   0
S             7.8845421865        0.9103121966       -1.5663155552
S             6.3072031463        1.8205958937        4.5210568930
S             6.3076664681        0.0000068460       -4.5222282367    0   0   0
S             7.8845449308        0.9106487020        1.5663725578
S             6.3082477514        1.8211979877        7.6546358055
Mo            6.3060261202        5.4617828496        6.0861456658
Mo            6.3076623239        3.6417399547       -6.0872367793    0   0   0
Mo            4.7308163327        4.5521859154       -0.0006515117
S             4.7307470244        2.7313069925       -7.6506323570    0   0   0
S             6.3075629061        3.6417877256       -1.5663711267
S             4.7293275670        4.5529489981        4.5207262196
S             4.7307478981        2.7313060890       -4.5222282367    0   0   0
S             6.3078455550        3.6416335969        1.5663987821
S             4.7299891934        4.5525663694        7.6591591643
Mo            4.7509508652        8.2055632299        6.0774534743
Mo            4.7307437539        6.3730391977       -6.0872367793    0   0   0
Mo            3.1537291825        7.2833962185       -0.0008776618
S             3.1538284544        5.4626062355       -7.6506323570    0   0   0
S             4.7307195065        6.3728977806       -1.5663448959
S             3.1589862566        7.2864397828        4.5347598932
S             3.1538293281        5.4626053320       -4.5222282367    0   0   0
S             4.7306155658        6.3732521454        1.5663690668
S             3.1720565829        7.2939851582        7.6824920844
Mo            9.4599817425       -0.0010103765        6.0861459028
Mo            3.1538251839        9.1043384407       -6.0872367793    0   0   0
Mo            1.5768915759       10.0147818853       -0.0006370146
S             1.5769098844        8.1939054785       -7.6506323570    0   0   0
S             3.1536610877        9.1043712642       -1.5663198798
S             1.5768836200       10.0131353413        4.5207241225
S             1.5769107581        8.1939045750       -4.5222282367    0   0   0
S             3.1539468809        9.1041014109        1.5663447511
S             1.5768838736       10.0139057179        7.6591634408
Mo           -1.5768205502        2.7330693888        6.0861418272
Mo           11.0384114659        0.9104407117       -6.0872367793    0   0   0
Mo            9.4614787915        1.8208613060       -0.0011098589
S             9.4614961663        0.0000077495       -7.6506323570    0   0   0
S            11.0383657027        0.9104181935       -1.5667113233
S             9.4619040456        1.8205962803        4.5210543523
S             9.4614970401        0.0000068460       -4.5222282367    0   0   0
S            11.0383043309        0.9104513340        1.5657326366
S             9.4608632729        1.8212003364        7.6546310127
Mo           -3.1522490352        5.4617791942        6.0861459730
Mo            9.4614928959        3.6417399547       -6.0872367793    0   0   0
Mo            7.8845404450        4.5521830058       -0.0011151406
S             7.8845775964        2.7313069925       -7.6506323570    0   0   0
S             9.4615330251        3.6417917809       -1.5663622216
S             7.8845514355        4.5526470610        4.5210569295
S             7.8845784701        2.7313060890       -4.5222282367    0   0   0
S             9.4612702437        3.6416462107        1.5663643375
S             7.8845532249        4.5514432304        7.6546338404
Mo           -4.7307770142        8.1911436148        6.0822634995
Mo            7.8845743259        6.3730391977       -6.0872367793    0   0   0
Mo            6.3076351367        7.2833970740       -0.0010988689
S             6.3076590264        5.4626062355       -7.6506323570    0   0   0
S             7.8845198530        6.3730176226       -1.5667265270
S             6.3123822923        7.2820852897        4.5139968496
S             6.3076599001        5.4626053320       -4.5222282367    0   0   0
S             7.8845453561        6.3729412624        1.5657546478
S             6.3126348540        7.2830827500        7.6524055791
Mo           -0.0023915477        0.0013571399        6.0822608142
Mo            6.3076557559        9.1043384407       -6.0872367793    0   0   0
Mo            4.7306834499       10.0147706835       -0.0011126261
S             4.7307404564        8.1939054785       -7.6506323570    0   0   0
S             6.3076680352        9.1043109169       -1.5664821572
S             4.7319107097       10.0195432042        4.5139961381
S             4.7307413301        8.1939045750       -4.5222282367    0   0   0
S             6.3076406844        9.1043038601        1.5661232714
S             4.7329009808       10.0192647466        7.6524062883
Pt            1.5768969786        6.3730187797        9.1205180639
End final coordinates



     Writing all to output data dir ./outdir/pwscf.save/
 
     init_run     :    106.64s CPU    109.75s WALL (       1 calls)
     electrons    :  53847.58s CPU  54666.15s WALL (      10 calls)
     update_pot   :     39.90s CPU     40.03s WALL (       9 calls)
     forces       :    734.03s CPU    760.23s WALL (      10 calls)
     force_dftd3  :      4.68s CPU      4.67s WALL (      10 calls)

     Called by init_run:
     wfcinit      :     86.02s CPU     87.31s WALL (       1 calls)
     potinit      :      2.02s CPU      2.09s WALL (       1 calls)
     hinit0       :     11.65s CPU     11.68s WALL (       1 calls)

     Called by electrons:
     c_bands      :  47307.47s CPU  47610.58s WALL (     149 calls)
     sum_band     :   5784.84s CPU   6061.68s WALL (     149 calls)
     v_of_rho     :     62.28s CPU     63.10s WALL (     152 calls)
     newd         :    579.84s CPU    829.87s WALL (     152 calls)
     PAW_pot      :    110.60s CPU    110.59s WALL (     161 calls)
     mix_rho      :     17.46s CPU     17.48s WALL (     149 calls)
     energy_dftd3 :      2.10s CPU      2.09s WALL (      10 calls)

     Called by c_bands:
     init_us_2    :    232.77s CPU    232.74s WALL (    1272 calls)
     init_us_2:cp :    232.76s CPU    232.74s WALL (    1272 calls)
     cegterg      :  46505.45s CPU  46805.77s WALL (     607 calls)

     Called by *egterg:
     cdiaghg      :   3051.21s CPU   3060.38s WALL (    7699 calls)
     h_psi        :  25009.27s CPU  25096.08s WALL (    7767 calls)
     s_psi        :   5043.82s CPU   5043.89s WALL (    7767 calls)
     g_psi        :     54.98s CPU     54.98s WALL (    7156 calls)

     Called by h_psi:
     h_psi:calbec :   4956.02s CPU   4956.95s WALL (    7767 calls)
     vloc_psi     :  14907.80s CPU  14940.55s WALL (    7767 calls)
     add_vuspsi   :   5081.33s CPU   5082.59s WALL (    7767 calls)

     General routines
     calbec       :   6959.86s CPU   6961.17s WALL (    8559 calls)
     fft          :     55.96s CPU     57.05s WALL (    2082 calls)
     ffts         :      2.71s CPU      2.72s WALL (     301 calls)
     fftw         :  11827.49s CPU  11851.62s WALL ( 3218038 calls)
     interpolate  :      6.22s CPU      6.27s WALL (     152 calls)
 
     Parallel routines
 
     PWSCF        :     15h16m CPU     15h30m WALL

 
   This run was terminated on:   3:52:18  16Dec2023            

=------------------------------------------------------------------------------=
   JOB DONE.
=------------------------------------------------------------------------------=
Application 11497456 resources: utime ~1978849s, stime ~31305s, Rss ~2621236, inblocks ~0, outblocks ~34630656
