
     Program PWSCF v.7.2 starts on  4Aug2023 at  8:35:45 

     This program is part of the open-source Quantum ESPRESSO suite
     for quantum simulation of materials; please cite
         "P. Giannozzi et al., J. Phys.:Condens. Matter 21 395502 (2009);
         "P. Giannozzi et al., J. Phys.:Condens. Matter 29 465901 (2017);
         "P. Giannozzi et al., J. Chem. Phys. 152 154105 (2020);
          URL http://www.quantum-espresso.org", 
     in publications or presentations arising from this work. More details at
     http://www.quantum-espresso.org/quote

     Parallel version (MPI), running on    48 processors

     MPI processes distributed on     1 nodes
     1170908 MiB available memory on the printing compute node when the environment starts
 
     Waiting for input...
     Reading input from standard input
Warning: card &CELL ignored
Warning: card / ignored

     Current dimensions of program PWSCF are:
     Max number of different atomic species (ntypx) = 10
     Max number of k-points (npk) =  40000
     Max angular momentum in pseudopotentials (lmaxx) =  4
     file Mo.pbe-spn-kjpaw_psl.1.0.0.UPF: wavefunction(s)  4S 4D renormalized
     file S.pbe-n-kjpaw_psl.1.0.0.UPF: wavefunction(s)  3S 3P renormalized
     Found identity + ( -0.0000  0.2500  0.0000) symmetry
     This is a supercell, fractional translations are disabled
 
     R & G space division:  proc/nbgrp/npool/nimage =      48
     Subspace diagonalization in iterative solution of the eigenvalue problem:
     one sub-group per band group will be used
     ELPA distributed-memory algorithm (size of sub-group:  6*  6 procs)

 
     Parallelization info
     --------------------
     sticks:   dense  smooth     PW     G-vecs:    dense   smooth      PW
     Min         439     251     66               124057    53592    7316
     Max         440     253     67               124070    53602    7331
     Sum       21109   12085   3205              5955087  2572543  351657
 
     Using Slab Decomposition
 


     bravais-lattice index     =            0
     lattice parameter (alat)  =      23.8395  a.u.
     unit-cell volume          =   28182.8547 (a.u.)^3
     number of atoms/cell      =          144
     number of atomic types    =            2
     number of electrons       =      1248.00
     number of Kohn-Sham states=          749
     kinetic-energy cutoff     =      77.0000  Ry
     charge density cutoff     =     539.0000  Ry
     scf convergence threshold =      1.0E-06
     mixing beta               =       0.2000
     number of iterations used =            8  plain     mixing
     energy convergence thresh.=      1.0E-04
     force convergence thresh. =      1.0E-03
     Exchange-correlation= SLA  PW   PBX  PBC
                           (   1   4   3   4   0   0   0)
     nstep                     =         1000


     Effective Screening Medium Method
     =================================
     Boundary Conditions: Vacuum-Slab-Vacuum
     total charge in unit cell        =   0.0000
     grid points for fit at edges     =        4 
 

     celldm(1)=  23.839504  celldm(2)=   0.000000  celldm(3)=   0.000000
     celldm(4)=   0.000000  celldm(5)=   0.000000  celldm(6)=   0.000000

     crystal axes: (cart. coord. in units of alat)
               a(1) = (   1.000000   0.000000   0.000000 )  
               a(2) = (  -0.500001   0.866026   0.000000 )  
               a(3) = (   0.000000   0.000000   2.401941 )  

     reciprocal axes: (cart. coord. in units 2 pi/alat)
               b(1) = (  1.000000  0.577351  0.000000 )  
               b(2) = (  0.000000  1.154700  0.000000 )  
               b(3) = (  0.000000  0.000000  0.416330 )  


     PseudoPot. # 1 for Mo read from file:
     ./pseudo/Mo.pbe-spn-kjpaw_psl.1.0.0.UPF
     MD5 check sum: 317bf72632116215fd98f72de1686f13
     Pseudo is Projector augmented-wave + core cor, Zval = 14.0
     Generated using 'atomic' code by A. Dal Corso  v.7.2
     Shape of augmentation charge: PSQ
     Using radial grid of 1229 points,  6 beta functions with: 
                l(1) =   0
                l(2) =   0
                l(3) =   1
                l(4) =   1
                l(5) =   2
                l(6) =   2
     Q(r) pseudized with 0 coefficients 


     PseudoPot. # 2 for S  read from file:
     ./pseudo/S.pbe-n-kjpaw_psl.1.0.0.UPF
     MD5 check sum: 8b7b5302570d38d5e87fed6a1065abda
     Pseudo is Projector augmented-wave + core cor, Zval =  6.0
     Generated using 'atomic' code by A. Dal Corso  v.7.2
     Shape of augmentation charge: PSQ
     Using radial grid of 1151 points,  6 beta functions with: 
                l(1) =   0
                l(2) =   0
                l(3) =   1
                l(4) =   1
                l(5) =   2
                l(6) =   2
     Q(r) pseudized with 0 coefficients 


     atomic species   valence    mass     pseudopotential
        Mo            14.00    95.95000     Mo( 1.00)
        S              6.00    32.06000     S ( 1.00)

     No symmetry found



   Cartesian axes

     site n.     atom                  positions (alat units)
         1           Mo  tau(   1) = (   0.1249983   0.2165051   0.4823990  )
         2           Mo  tau(   2) = (   0.1250004   0.0721694  -0.4825273  )
         3           Mo  tau(   3) = (  -0.0000017   0.1443377  -0.0000753  )
         4           S   tau(   4) = (   0.0000004   0.0000006  -0.6064556  )
         5           S   tau(   5) = (   0.1249983   0.0721687  -0.1240045  )
         6           S   tau(   6) = (  -0.0000017   0.1443363   0.3584705  )
         7           S   tau(   7) = (   0.0000004   0.0000005  -0.3584711  )
         8           S   tau(   8) = (   0.1249983   0.0721689   0.1239817  )
         9           S   tau(   9) = (  -0.0000017   0.1443362   0.6064556  )
        10           Mo  tau(  10) = (  -0.0000020   0.4330116   0.4823990  )
        11           Mo  tau(  11) = (   0.0000001   0.2886759  -0.4825273  )
        12           Mo  tau(  12) = (  -0.1250020   0.3608442  -0.0000753  )
        13           S   tau(  13) = (  -0.1249999   0.2165071  -0.6064556  )
        14           S   tau(  14) = (  -0.0000019   0.2886752  -0.1240045  )
        15           S   tau(  15) = (  -0.1250019   0.3608428   0.3584705  )
        16           S   tau(  16) = (  -0.1249998   0.2165070  -0.3584711  )
        17           S   tau(  17) = (  -0.0000020   0.2886754   0.1239817  )
        18           S   tau(  18) = (  -0.1250020   0.3608427   0.6064556  )
        19           Mo  tau(  19) = (  -0.1250022   0.6495181   0.4823990  )
        20           Mo  tau(  20) = (  -0.1250002   0.5051824  -0.4825273  )
        21           Mo  tau(  21) = (  -0.2500022   0.5773507  -0.0000753  )
        22           S   tau(  22) = (  -0.2500002   0.4330136  -0.6064556  )
        23           S   tau(  23) = (  -0.1250022   0.5051817  -0.1240045  )
        24           S   tau(  24) = (  -0.2500022   0.5773493   0.3584705  )
        25           S   tau(  25) = (  -0.2500001   0.4330135  -0.3584711  )
        26           S   tau(  26) = (  -0.1250022   0.5051818   0.1239817  )
        27           S   tau(  27) = (  -0.2500022   0.5773492   0.6064556  )
        28           Mo  tau(  28) = (   0.2499985  -0.0000014   0.4823990  )
        29           Mo  tau(  29) = (  -0.2500004   0.7216889  -0.4825273  )
        30           Mo  tau(  30) = (  -0.3750025   0.7938572  -0.0000753  )
        31           S   tau(  31) = (  -0.3750004   0.6495201  -0.6064556  )
        32           S   tau(  32) = (  -0.2500024   0.7216882  -0.1240045  )
        33           S   tau(  33) = (  -0.3750025   0.7938558   0.3584705  )
        34           S   tau(  34) = (  -0.3750004   0.6495200  -0.3584711  )
        35           S   tau(  35) = (  -0.2500025   0.7216883   0.1239817  )
        36           S   tau(  36) = (  -0.3750025   0.7938557   0.6064556  )
        37           Mo  tau(  37) = (   0.3749983   0.2165051   0.4823990  )
        38           Mo  tau(  38) = (   0.3750004   0.0721694  -0.4825273  )
        39           Mo  tau(  39) = (   0.2499983   0.1443377  -0.0000753  )
        40           S   tau(  40) = (   0.2500004   0.0000006  -0.6064556  )
        41           S   tau(  41) = (   0.3749983   0.0721687  -0.1240045  )
        42           S   tau(  42) = (   0.2499983   0.1443363   0.3584705  )
        43           S   tau(  43) = (   0.2500004   0.0000005  -0.3584711  )
        44           S   tau(  44) = (   0.3749983   0.0721689   0.1239817  )
        45           S   tau(  45) = (   0.2499983   0.1443362   0.6064556  )
        46           Mo  tau(  46) = (   0.2499980   0.4330116   0.4823990  )
        47           Mo  tau(  47) = (   0.2500001   0.2886759  -0.4825273  )
        48           Mo  tau(  48) = (   0.1249980   0.3608442  -0.0000753  )
        49           S   tau(  49) = (   0.1250001   0.2165071  -0.6064556  )
        50           S   tau(  50) = (   0.2499981   0.2886752  -0.1240045  )
        51           S   tau(  51) = (   0.1249981   0.3608428   0.3584705  )
        52           S   tau(  52) = (   0.1250002   0.2165070  -0.3584711  )
        53           S   tau(  53) = (   0.2499980   0.2886754   0.1239817  )
        54           S   tau(  54) = (   0.1249980   0.3608427   0.6064556  )
        55           Mo  tau(  55) = (   0.1249978   0.6495181   0.4823990  )
        56           Mo  tau(  56) = (   0.1249998   0.5051824  -0.4825273  )
        57           Mo  tau(  57) = (  -0.0000022   0.5773507  -0.0000753  )
        58           S   tau(  58) = (  -0.0000002   0.4330136  -0.6064556  )
        59           S   tau(  59) = (   0.1249978   0.5051817  -0.1240045  )
        60           S   tau(  60) = (  -0.0000022   0.5773493   0.3584705  )
        61           S   tau(  61) = (  -0.0000001   0.4330135  -0.3584711  )
        62           S   tau(  62) = (   0.1249978   0.5051818   0.1239817  )
        63           S   tau(  63) = (  -0.0000022   0.5773492   0.6064556  )
        64           Mo  tau(  64) = (   0.4999985  -0.0000014   0.4823990  )
        65           Mo  tau(  65) = (  -0.0000004   0.7216889  -0.4825273  )
        66           Mo  tau(  66) = (  -0.1250025   0.7938572  -0.0000753  )
        67           S   tau(  67) = (  -0.1250004   0.6495201  -0.6064556  )
        68           S   tau(  68) = (  -0.0000024   0.7216882  -0.1240045  )
        69           S   tau(  69) = (  -0.1250025   0.7938558   0.3584705  )
        70           S   tau(  70) = (  -0.1250004   0.6495200  -0.3584711  )
        71           S   tau(  71) = (  -0.0000025   0.7216883   0.1239817  )
        72           S   tau(  72) = (  -0.1250025   0.7938557   0.6064556  )
        73           Mo  tau(  73) = (   0.6249983   0.2165051   0.4823990  )
        74           Mo  tau(  74) = (   0.6250004   0.0721694  -0.4825273  )
        75           Mo  tau(  75) = (   0.4999983   0.1443377  -0.0000753  )
        76           S   tau(  76) = (   0.5000004   0.0000006  -0.6064556  )
        77           S   tau(  77) = (   0.6249983   0.0721687  -0.1240045  )
        78           S   tau(  78) = (   0.4999983   0.1443363   0.3584705  )
        79           S   tau(  79) = (   0.5000004   0.0000005  -0.3584711  )
        80           S   tau(  80) = (   0.6249983   0.0721689   0.1239817  )
        81           S   tau(  81) = (   0.4999983   0.1443362   0.6064556  )
        82           Mo  tau(  82) = (   0.4999980   0.4330116   0.4823990  )
        83           Mo  tau(  83) = (   0.5000001   0.2886759  -0.4825273  )
        84           Mo  tau(  84) = (   0.3749980   0.3608442  -0.0000753  )
        85           S   tau(  85) = (   0.3750001   0.2165071  -0.6064556  )
        86           S   tau(  86) = (   0.4999981   0.2886752  -0.1240045  )
        87           S   tau(  87) = (   0.3749981   0.3608428   0.3584705  )
        88           S   tau(  88) = (   0.3750002   0.2165070  -0.3584711  )
        89           S   tau(  89) = (   0.4999980   0.2886754   0.1239817  )
        90           S   tau(  90) = (   0.3749980   0.3608427   0.6064556  )
        91           Mo  tau(  91) = (   0.3749978   0.6495181   0.4823990  )
        92           Mo  tau(  92) = (   0.3749998   0.5051824  -0.4825273  )
        93           Mo  tau(  93) = (   0.2499978   0.5773507  -0.0000753  )
        94           S   tau(  94) = (   0.2499998   0.4330136  -0.6064556  )
        95           S   tau(  95) = (   0.3749978   0.5051817  -0.1240045  )
        96           S   tau(  96) = (   0.2499978   0.5773493   0.3584705  )
        97           S   tau(  97) = (   0.2499999   0.4330135  -0.3584711  )
        98           S   tau(  98) = (   0.3749978   0.5051818   0.1239817  )
        99           S   tau(  99) = (   0.2499978   0.5773492   0.6064556  )
       100           Mo  tau( 100) = (   0.7499985  -0.0000014   0.4823990  )
       101           Mo  tau( 101) = (   0.2499996   0.7216889  -0.4825273  )
       102           Mo  tau( 102) = (   0.1249975   0.7938572  -0.0000753  )
       103           S   tau( 103) = (   0.1249996   0.6495201  -0.6064556  )
       104           S   tau( 104) = (   0.2499976   0.7216882  -0.1240045  )
       105           S   tau( 105) = (   0.1249975   0.7938558   0.3584705  )
       106           S   tau( 106) = (   0.1249996   0.6495200  -0.3584711  )
       107           S   tau( 107) = (   0.2499975   0.7216883   0.1239817  )
       108           S   tau( 108) = (   0.1249975   0.7938557   0.6064556  )
       109           Mo  tau( 109) = (  -0.1250017   0.2165051   0.4823990  )
       110           Mo  tau( 110) = (   0.8750004   0.0721694  -0.4825273  )
       111           Mo  tau( 111) = (   0.7499983   0.1443377  -0.0000753  )
       112           S   tau( 112) = (   0.7500004   0.0000006  -0.6064556  )
       113           S   tau( 113) = (   0.8749983   0.0721687  -0.1240045  )
       114           S   tau( 114) = (   0.7499983   0.1443363   0.3584705  )
       115           S   tau( 115) = (   0.7500004   0.0000005  -0.3584711  )
       116           S   tau( 116) = (   0.8749983   0.0721689   0.1239817  )
       117           S   tau( 117) = (   0.7499983   0.1443362   0.6064556  )
       118           Mo  tau( 118) = (  -0.2500020   0.4330116   0.4823990  )
       119           Mo  tau( 119) = (   0.7500001   0.2886759  -0.4825273  )
       120           Mo  tau( 120) = (   0.6249980   0.3608442  -0.0000753  )
       121           S   tau( 121) = (   0.6250001   0.2165071  -0.6064556  )
       122           S   tau( 122) = (   0.7499981   0.2886752  -0.1240045  )
       123           S   tau( 123) = (   0.6249981   0.3608428   0.3584705  )
       124           S   tau( 124) = (   0.6250002   0.2165070  -0.3584711  )
       125           S   tau( 125) = (   0.7499980   0.2886754   0.1239817  )
       126           S   tau( 126) = (   0.6249980   0.3608427   0.6064556  )
       127           Mo  tau( 127) = (  -0.3750022   0.6495181   0.4823990  )
       128           Mo  tau( 128) = (   0.6249998   0.5051824  -0.4825273  )
       129           Mo  tau( 129) = (   0.4999978   0.5773507  -0.0000753  )
       130           S   tau( 130) = (   0.4999998   0.4330136  -0.6064556  )
       131           S   tau( 131) = (   0.6249978   0.5051817  -0.1240045  )
       132           S   tau( 132) = (   0.4999978   0.5773493   0.3584705  )
       133           S   tau( 133) = (   0.4999999   0.4330135  -0.3584711  )
       134           S   tau( 134) = (   0.6249978   0.5051818   0.1239817  )
       135           S   tau( 135) = (   0.4999978   0.5773492   0.6064556  )
       136           Mo  tau( 136) = (  -0.0000015  -0.0000014   0.4823990  )
       137           Mo  tau( 137) = (   0.4999996   0.7216889  -0.4825273  )
       138           Mo  tau( 138) = (   0.3749975   0.7938572  -0.0000753  )
       139           S   tau( 139) = (   0.3749996   0.6495201  -0.6064556  )
       140           S   tau( 140) = (   0.4999976   0.7216882  -0.1240045  )
       141           S   tau( 141) = (   0.3749975   0.7938558   0.3584705  )
       142           S   tau( 142) = (   0.3749996   0.6495200  -0.3584711  )
       143           S   tau( 143) = (   0.4999975   0.7216883   0.1239817  )
       144           S   tau( 144) = (   0.3749975   0.7938557   0.6064556  )

     --------------------------------------------
     DFT-D3 Dispersion Correction (3-body terms):
     --------------------------------------------
       Reference C6 values for interpolation: 

         atom   Coordination number   C6
         S          0.000           268.01
         S          0.995           261.99
         S          1.990           251.62
         Mo         0.000          1691.79
         Mo         1.942          1004.01
         Mo        11.056           674.22

       Values used:

         atom   Coordination number  R0_AB[au]  C6      C8
         Mo        10.188            3.547    674.22  77634.20
         Mo        10.189            3.547    674.22  77634.20
         Mo        10.202            3.547    674.22  77634.20
         S          3.753            3.128    251.62  12327.25
         S          3.860            3.128    251.62  12327.25
         S          3.859            3.128    251.62  12327.25
         S          3.858            3.128    251.62  12327.25
         S          3.859            3.128    251.62  12327.25
         S          3.753            3.128    251.62  12327.25
         Mo        10.188            3.547    674.22  77634.20
         Mo        10.189            3.547    674.22  77634.20
         Mo        10.202            3.547    674.22  77634.20
         S          3.753            3.128    251.62  12327.25
         S          3.860            3.128    251.62  12327.25
         S          3.859            3.128    251.62  12327.25
         S          3.858            3.128    251.62  12327.25
         S          3.859            3.128    251.62  12327.25
         S          3.753            3.128    251.62  12327.25
         Mo        10.188            3.547    674.22  77634.20
         Mo        10.189            3.547    674.22  77634.20
         Mo        10.202            3.547    674.22  77634.20
         S          3.753            3.128    251.62  12327.25
         S          3.860            3.128    251.62  12327.25
         S          3.859            3.128    251.62  12327.25
         S          3.858            3.128    251.62  12327.25
         S          3.859            3.128    251.62  12327.25
         S          3.753            3.128    251.62  12327.25
         Mo        10.188            3.547    674.22  77634.20
         Mo        10.189            3.547    674.22  77634.20
         Mo        10.202            3.547    674.22  77634.20
         S          3.753            3.128    251.62  12327.25
         S          3.860            3.128    251.62  12327.25
         S          3.859            3.128    251.62  12327.25
         S          3.858            3.128    251.62  12327.25
         S          3.859            3.128    251.62  12327.25
         S          3.753            3.128    251.62  12327.25
         Mo        10.188            3.547    674.22  77634.20
         Mo        10.189            3.547    674.22  77634.20
         Mo        10.202            3.547    674.22  77634.20
         S          3.753            3.128    251.62  12327.25
         S          3.860            3.128    251.62  12327.25
         S          3.859            3.128    251.62  12327.25
         S          3.858            3.128    251.62  12327.25
         S          3.859            3.128    251.62  12327.25
         S          3.753            3.128    251.62  12327.25
         Mo        10.188            3.547    674.22  77634.20
         Mo        10.189            3.547    674.22  77634.20
         Mo        10.202            3.547    674.22  77634.20
         S          3.753            3.128    251.62  12327.25
         S          3.860            3.128    251.62  12327.25
         S          3.859            3.128    251.62  12327.25
         S          3.858            3.128    251.62  12327.25
         S          3.859            3.128    251.62  12327.25
         S          3.753            3.128    251.62  12327.25
         Mo        10.188            3.547    674.22  77634.20
         Mo        10.189            3.547    674.22  77634.20
         Mo        10.202            3.547    674.22  77634.20
         S          3.753            3.128    251.62  12327.25
         S          3.860            3.128    251.62  12327.25
         S          3.859            3.128    251.62  12327.25
         S          3.858            3.128    251.62  12327.25
         S          3.859            3.128    251.62  12327.25
         S          3.753            3.128    251.62  12327.25
         Mo        10.188            3.547    674.22  77634.20
         Mo        10.189            3.547    674.22  77634.20
         Mo        10.202            3.547    674.22  77634.20
         S          3.753            3.128    251.62  12327.25
         S          3.860            3.128    251.62  12327.25
         S          3.859            3.128    251.62  12327.25
         S          3.858            3.128    251.62  12327.25
         S          3.859            3.128    251.62  12327.25
         S          3.753            3.128    251.62  12327.25
         Mo        10.188            3.547    674.22  77634.20
         Mo        10.189            3.547    674.22  77634.20
         Mo        10.202            3.547    674.22  77634.20
         S          3.753            3.128    251.62  12327.25
         S          3.860            3.128    251.62  12327.25
         S          3.859            3.128    251.62  12327.25
         S          3.858            3.128    251.62  12327.25
         S          3.859            3.128    251.62  12327.25
         S          3.753            3.128    251.62  12327.25
         Mo        10.188            3.547    674.22  77634.20
         Mo        10.189            3.547    674.22  77634.20
         Mo        10.202            3.547    674.22  77634.20
         S          3.753            3.128    251.62  12327.25
         S          3.860            3.128    251.62  12327.25
         S          3.859            3.128    251.62  12327.25
         S          3.858            3.128    251.62  12327.25
         S          3.859            3.128    251.62  12327.25
         S          3.753            3.128    251.62  12327.25
         Mo        10.188            3.547    674.22  77634.20
         Mo        10.189            3.547    674.22  77634.20
         Mo        10.202            3.547    674.22  77634.20
         S          3.753            3.128    251.62  12327.25
         S          3.860            3.128    251.62  12327.25
         S          3.859            3.128    251.62  12327.25
         S          3.858            3.128    251.62  12327.25
         S          3.859            3.128    251.62  12327.25
         S          3.753            3.128    251.62  12327.25
         Mo        10.188            3.547    674.22  77634.20
         Mo        10.189            3.547    674.22  77634.20
         Mo        10.202            3.547    674.22  77634.20
         S          3.753            3.128    251.62  12327.25
         S          3.860            3.128    251.62  12327.25
         S          3.859            3.128    251.62  12327.25
         S          3.858            3.128    251.62  12327.25
         S          3.859            3.128    251.62  12327.25
         S          3.753            3.128    251.62  12327.25
         Mo        10.188            3.547    674.22  77634.20
         Mo        10.189            3.547    674.22  77634.20
         Mo        10.202            3.547    674.22  77634.20
         S          3.753            3.128    251.62  12327.25
         S          3.860            3.128    251.62  12327.25
         S          3.859            3.128    251.62  12327.25
         S          3.858            3.128    251.62  12327.25
         S          3.859            3.128    251.62  12327.25
         S          3.753            3.128    251.62  12327.25
         Mo        10.188            3.547    674.22  77634.20
         Mo        10.189            3.547    674.22  77634.20
         Mo        10.202            3.547    674.22  77634.20
         S          3.753            3.128    251.62  12327.25
         S          3.860            3.128    251.62  12327.25
         S          3.859            3.128    251.62  12327.25
         S          3.858            3.128    251.62  12327.25
         S          3.859            3.128    251.62  12327.25
         S          3.753            3.128    251.62  12327.25
         Mo        10.188            3.547    674.22  77634.20
         Mo        10.189            3.547    674.22  77634.20
         Mo        10.202            3.547    674.22  77634.20
         S          3.753            3.128    251.62  12327.25
         S          3.860            3.128    251.62  12327.25
         S          3.859            3.128    251.62  12327.25
         S          3.858            3.128    251.62  12327.25
         S          3.859            3.128    251.62  12327.25
         S          3.753            3.128    251.62  12327.25
         Mo        10.188            3.547    674.22  77634.20
         Mo        10.189            3.547    674.22  77634.20
         Mo        10.202            3.547    674.22  77634.20
         S          3.753            3.128    251.62  12327.25
         S          3.860            3.128    251.62  12327.25
         S          3.859            3.128    251.62  12327.25
         S          3.858            3.128    251.62  12327.25
         S          3.859            3.128    251.62  12327.25
         S          3.753            3.128    251.62  12327.25

         Molecular C6 ( Ry / a.u.^6 ) =   7657708.49


     number of k points=     4  Gaussian smearing, width (Ry)=  0.0100
                       cart. coord. in units 2pi/alat
        k(    1) = (   0.0000000   0.0000000   0.0000000), wk =   0.5000000
        k(    2) = (   0.0000000  -0.5773499   0.0000000), wk =   0.5000000
        k(    3) = (  -0.5000000  -0.2886755   0.0000000), wk =   0.5000000
        k(    4) = (  -0.5000000  -0.8660254   0.0000000), wk =   0.5000000

     Dense  grid:  5955087 G-vectors     FFT dimensions: ( 180, 180, 432)

     Smooth grid:  2572543 G-vectors     FFT dimensions: ( 135, 135, 320)

     Estimated max dynamical RAM per process >       1.58 GB

     Estimated total dynamical RAM >      75.99 GB

     Initial potential from superposition of free atoms

     starting charge    1247.9546, renormalised to    1248.0000

     negative rho (up, down):  7.257E-04 0.000E+00
     Starting wfcs are  864 randomized atomic wfcs
     Checking if some PAW data can be deallocated... 

     total cpu time spent up to now is       67.0 secs

     Self-consistent Calculation

     iteration #  1     ecut=    77.00 Ry     beta= 0.20
     Davidson diagonalization with overlap
     ethr =  1.00E-02,  avg # of iterations =  2.0

     Threshold (ethr) on eigenvalues was too large:
     Diagonalizing with lowered threshold

     Davidson diagonalization with overlap
     ethr =  1.13E-04,  avg # of iterations = 19.0

     negative rho (up, down):  2.287E-04 0.000E+00

     total cpu time spent up to now is      979.7 secs

     total energy              =  -23845.27188066 Ry
     estimated scf accuracy    <       5.13355624 Ry

     iteration #  2     ecut=    77.00 Ry     beta= 0.20
     Davidson diagonalization with overlap
     ethr =  4.11E-04,  avg # of iterations =  1.0

     negative rho (up, down):  4.275E-05 0.000E+00

     total cpu time spent up to now is     1110.8 secs

     total energy              =  -23844.22434086 Ry
     estimated scf accuracy    <       2.58517878 Ry

     iteration #  3     ecut=    77.00 Ry     beta= 0.20
     Davidson diagonalization with overlap
     ethr =  2.07E-04,  avg # of iterations =  4.5

     negative rho (up, down):  2.900E-05 0.000E+00

     total cpu time spent up to now is     1260.3 secs

     total energy              =  -23844.06780390 Ry
     estimated scf accuracy    <       0.58727396 Ry

     iteration #  4     ecut=    77.00 Ry     beta= 0.20
     Davidson diagonalization with overlap
     c_bands:  1 eigenvalues not converged
     ethr =  4.71E-05,  avg # of iterations = 18.8

     negative rho (up, down):  1.783E-05 0.000E+00

     total cpu time spent up to now is     1950.1 secs

     total energy              =  -23846.60760364 Ry
     estimated scf accuracy    <       3.16138212 Ry

     iteration #  5     ecut=    77.00 Ry     beta= 0.20
     Davidson diagonalization with overlap
     ethr =  4.71E-05,  avg # of iterations =  2.8

     negative rho (up, down):  1.244E-05 0.000E+00

     total cpu time spent up to now is     2097.2 secs

     total energy              =  -23846.86132372 Ry
     estimated scf accuracy    <       3.82403117 Ry

     iteration #  6     ecut=    77.00 Ry     beta= 0.20
     Davidson diagonalization with overlap
     ethr =  4.71E-05,  avg # of iterations =  2.2

     negative rho (up, down):  1.452E-05 0.000E+00

     total cpu time spent up to now is     2239.5 secs

     total energy              =  -23845.58065223 Ry
     estimated scf accuracy    <       4.20533021 Ry

     iteration #  7     ecut=    77.00 Ry     beta= 0.20
     Davidson diagonalization with overlap
     ethr =  4.71E-05,  avg # of iterations =  1.2

     negative rho (up, down):  3.498E-05 0.000E+00

     total cpu time spent up to now is     2374.0 secs

     total energy              =  -23844.16617341 Ry
     estimated scf accuracy    <       2.20327490 Ry

     iteration #  8     ecut=    77.00 Ry     beta= 0.20
     Davidson diagonalization with overlap
     ethr =  4.71E-05,  avg # of iterations = 11.2

     negative rho (up, down):  3.163E-05 0.000E+00

     total cpu time spent up to now is     2713.3 secs

     total energy              =  -23845.42679329 Ry
     estimated scf accuracy    <       0.47277182 Ry

     iteration #  9     ecut=    77.00 Ry     beta= 0.20
     Davidson diagonalization with overlap
     ethr =  3.79E-05,  avg # of iterations =  1.2

     negative rho (up, down):  3.050E-05 0.000E+00

     total cpu time spent up to now is     2847.3 secs

     total energy              =  -23845.44429106 Ry
     estimated scf accuracy    <       0.49387120 Ry

     iteration # 10     ecut=    77.00 Ry     beta= 0.20
     Davidson diagonalization with overlap
     ethr =  3.79E-05,  avg # of iterations =  1.0

     negative rho (up, down):  3.144E-05 0.000E+00

     total cpu time spent up to now is     2978.5 secs

     total energy              =  -23845.50319428 Ry
     estimated scf accuracy    <       0.50637545 Ry

     iteration # 11     ecut=    77.00 Ry     beta= 0.20
     Davidson diagonalization with overlap
     ethr =  3.79E-05,  avg # of iterations =  1.0

     negative rho (up, down):  6.824E-05 0.000E+00

     total cpu time spent up to now is     3108.9 secs

     total energy              =  -23845.67104307 Ry
     estimated scf accuracy    <       0.59738615 Ry

     iteration # 12     ecut=    77.00 Ry     beta= 0.20
     Davidson diagonalization with overlap
     ethr =  3.79E-05,  avg # of iterations =  1.8

     negative rho (up, down):  1.292E-04 0.000E+00

     total cpu time spent up to now is     3245.6 secs

     total energy              =  -23846.17331456 Ry
     estimated scf accuracy    <       0.88610364 Ry

     iteration # 13     ecut=    77.00 Ry     beta= 0.20
     Davidson diagonalization with overlap
     ethr =  3.79E-05,  avg # of iterations =  8.0

     negative rho (up, down):  1.143E-04 0.000E+00

     total cpu time spent up to now is     3493.0 secs

     total energy              =  -23846.78445857 Ry
     estimated scf accuracy    <       3.77098699 Ry

     iteration # 14     ecut=    77.00 Ry     beta= 0.20
     Davidson diagonalization with overlap
     ethr =  3.79E-05,  avg # of iterations =  3.2

     negative rho (up, down):  1.628E-04 0.000E+00

     total cpu time spent up to now is     3641.7 secs

     total energy              =  -23844.57859982 Ry
     estimated scf accuracy    <       4.12027108 Ry

     iteration # 15     ecut=    77.00 Ry     beta= 0.20
     Davidson diagonalization with overlap
     ethr =  3.79E-05,  avg # of iterations =  9.8

     negative rho (up, down):  1.031E-04 0.000E+00

     total cpu time spent up to now is     3937.0 secs

     total energy              =  -23845.02960022 Ry
     estimated scf accuracy    <       0.26862005 Ry

     iteration # 16     ecut=    77.00 Ry     beta= 0.20
     Davidson diagonalization with overlap
     ethr =  2.15E-05,  avg # of iterations =  7.0

     negative rho (up, down):  1.129E-04 0.000E+00

     total cpu time spent up to now is     4166.6 secs

     total energy              =  -23845.17357537 Ry
     estimated scf accuracy    <       0.01985088 Ry

     iteration # 17     ecut=    77.00 Ry     beta= 0.20
     Davidson diagonalization with overlap
     c_bands:  2 eigenvalues not converged
     c_bands:  3 eigenvalues not converged
     ethr =  1.59E-06,  avg # of iterations = 70.2

     negative rho (up, down):  8.068E-05 0.000E+00

     total cpu time spent up to now is     5098.8 secs

     total energy              =  -23845.23080202 Ry
     estimated scf accuracy    <       0.01347752 Ry

     iteration # 18     ecut=    77.00 Ry     beta= 0.20
     Davidson diagonalization with overlap
     c_bands:  2 eigenvalues not converged
     ethr =  1.08E-06,  avg # of iterations = 10.5

     negative rho (up, down):  1.746E-04 0.000E+00

     total cpu time spent up to now is     5260.8 secs

     total energy              =  -23845.23210222 Ry
     estimated scf accuracy    <       0.02219980 Ry

     iteration # 19     ecut=    77.00 Ry     beta= 0.20
     Davidson diagonalization with overlap
     c_bands:  5 eigenvalues not converged
     ethr =  1.08E-06,  avg # of iterations = 17.0

     negative rho (up, down):  2.292E-04 0.000E+00

     total cpu time spent up to now is     5468.7 secs

     total energy              =  -23845.24245391 Ry
     estimated scf accuracy    <       0.02201452 Ry

     iteration # 20     ecut=    77.00 Ry     beta= 0.20
     Davidson diagonalization with overlap
     c_bands:  2 eigenvalues not converged
     ethr =  1.08E-06,  avg # of iterations = 18.8

     negative rho (up, down):  2.964E-04 0.000E+00

     total cpu time spent up to now is     5746.1 secs

     total energy              =  -23845.22669285 Ry
     estimated scf accuracy    <       0.05556863 Ry

     iteration # 21     ecut=    77.00 Ry     beta= 0.20
     Davidson diagonalization with overlap
     c_bands:  2 eigenvalues not converged
     ethr =  1.08E-06,  avg # of iterations =  9.8

     negative rho (up, down):  5.494E-04 0.000E+00

     total cpu time spent up to now is     5914.5 secs

     total energy              =  -23845.29820603 Ry
     estimated scf accuracy    <       0.02417967 Ry

     iteration # 22     ecut=    77.00 Ry     beta= 0.20
     Davidson diagonalization with overlap
     c_bands:  2 eigenvalues not converged
     ethr =  1.08E-06,  avg # of iterations = 17.0

     negative rho (up, down):  4.366E-04 0.000E+00

     total cpu time spent up to now is     6356.3 secs

     total energy              =  -23845.33821091 Ry
     estimated scf accuracy    <       0.32240039 Ry

     iteration # 23     ecut=    77.00 Ry     beta= 0.20
     Davidson diagonalization with overlap
     c_bands:  1 eigenvalues not converged
     ethr =  1.08E-06,  avg # of iterations =  6.0

     negative rho (up, down):  6.872E-04 0.000E+00

     total cpu time spent up to now is     6495.4 secs

     total energy              =  -23845.33162317 Ry
     estimated scf accuracy    <       0.31511906 Ry

     iteration # 24     ecut=    77.00 Ry     beta= 0.20
     Davidson diagonalization with overlap
     ethr =  1.08E-06,  avg # of iterations =  2.8

     negative rho (up, down):  5.520E-04 0.000E+00

     total cpu time spent up to now is     6628.4 secs

     total energy              =  -23845.14416416 Ry
     estimated scf accuracy    <       0.30738607 Ry

     iteration # 25     ecut=    77.00 Ry     beta= 0.20
     Davidson diagonalization with overlap
     ethr =  1.08E-06,  avg # of iterations = 16.5

     negative rho (up, down):  4.234E-04 0.000E+00

     total cpu time spent up to now is     7128.9 secs

     total energy              =  -23845.22539705 Ry
     estimated scf accuracy    <       0.01407553 Ry

     iteration # 26     ecut=    77.00 Ry     beta= 0.20
     Davidson diagonalization with overlap
     ethr =  1.08E-06,  avg # of iterations =  1.0

     negative rho (up, down):  6.446E-04 0.000E+00

     total cpu time spent up to now is     7258.5 secs

     total energy              =  -23845.22074589 Ry
     estimated scf accuracy    <       0.00769218 Ry

     iteration # 27     ecut=    77.00 Ry     beta= 0.20
     Davidson diagonalization with overlap
     ethr =  6.16E-07,  avg # of iterations =  5.5

     negative rho (up, down):  7.582E-04 0.000E+00

     total cpu time spent up to now is     7482.7 secs

     total energy              =  -23845.22459297 Ry
     estimated scf accuracy    <       0.00053790 Ry

     iteration # 28     ecut=    77.00 Ry     beta= 0.20
     Davidson diagonalization with overlap
     ethr =  4.31E-08,  avg # of iterations = 15.0

     negative rho (up, down):  7.771E-04 0.000E+00

     total cpu time spent up to now is     8035.4 secs

     total energy              =  -23845.22515874 Ry
     estimated scf accuracy    <       0.00734681 Ry

     iteration # 29     ecut=    77.00 Ry     beta= 0.20
     Davidson diagonalization with overlap
     ethr =  4.31E-08,  avg # of iterations =  5.2

     negative rho (up, down):  7.742E-04 0.000E+00

     total cpu time spent up to now is     8252.9 secs

     total energy              =  -23845.22303724 Ry
     estimated scf accuracy    <       0.00381053 Ry

     iteration # 30     ecut=    77.00 Ry     beta= 0.20
     Davidson diagonalization with overlap
     ethr =  4.31E-08,  avg # of iterations = 11.5

     negative rho (up, down):  7.673E-04 0.000E+00

     total cpu time spent up to now is     8668.0 secs

     total energy              =  -23845.22454403 Ry
     estimated scf accuracy    <       0.00030185 Ry

     iteration # 31     ecut=    77.00 Ry     beta= 0.20
     Davidson diagonalization with overlap
     ethr =  2.42E-08,  avg # of iterations =  2.0

     negative rho (up, down):  8.091E-04 0.000E+00

     total cpu time spent up to now is     8813.2 secs

     total energy              =  -23845.22452261 Ry
     estimated scf accuracy    <       0.00005292 Ry

     iteration # 32     ecut=    77.00 Ry     beta= 0.20
     Davidson diagonalization with overlap
     ethr =  4.24E-09,  avg # of iterations = 10.5

     negative rho (up, down):  8.191E-04 0.000E+00

     total cpu time spent up to now is     9150.5 secs

     total energy              =  -23845.22458249 Ry
     estimated scf accuracy    <       0.00002519 Ry

     iteration # 33     ecut=    77.00 Ry     beta= 0.20
     Davidson diagonalization with overlap
     c_bands:  1 eigenvalues not converged
     ethr =  2.02E-09,  avg # of iterations = 13.0

     negative rho (up, down):  8.317E-04 0.000E+00

     total cpu time spent up to now is     9341.4 secs

     total energy              =  -23845.22458481 Ry
     estimated scf accuracy    <       0.00000472 Ry

     iteration # 34     ecut=    77.00 Ry     beta= 0.20
     Davidson diagonalization with overlap
     c_bands:  5 eigenvalues not converged
     c_bands:  1 eigenvalues not converged
     ethr =  3.78E-10,  avg # of iterations = 18.5

     negative rho (up, down):  8.507E-04 0.000E+00

     total cpu time spent up to now is     9765.3 secs

     total energy              =  -23845.22458626 Ry
     estimated scf accuracy    <       0.00000356 Ry

     iteration # 35     ecut=    77.00 Ry     beta= 0.20
     Davidson diagonalization with overlap
     c_bands:  2 eigenvalues not converged
     c_bands:  1 eigenvalues not converged
     ethr =  2.86E-10,  avg # of iterations = 14.2

     negative rho (up, down):  8.610E-04 0.000E+00

     total cpu time spent up to now is     9928.3 secs

     total energy              =  -23845.22458253 Ry
     estimated scf accuracy    <       0.00000232 Ry

     iteration # 36     ecut=    77.00 Ry     beta= 0.20
     Davidson diagonalization with overlap
     c_bands:  4 eigenvalues not converged
     c_bands:  1 eigenvalues not converged
     ethr =  1.86E-10,  avg # of iterations = 15.8

     negative rho (up, down):  8.767E-04 0.000E+00

     total cpu time spent up to now is    10186.0 secs

     End of self-consistent calculation

          k = 0.0000 0.0000 0.0000 (321495 PWs)   bands (ev):

   -66.8429 -66.8218 -66.8218 -66.8218 -66.8218 -66.8218 -66.8218 -66.8007
   -66.8006 -66.8006 -66.8006 -66.8006 -66.8006 -66.8006 -66.8006 -66.8006
   -66.7782 -66.7571 -66.7571 -66.7571 -66.7571 -66.7571 -66.7571 -66.7360
   -66.7359 -66.7359 -66.7359 -66.7359 -66.7359 -66.7359 -66.7359 -66.7359
   -66.7088 -66.6877 -66.6877 -66.6877 -66.6877 -66.6877 -66.6877 -66.6666
   -66.6665 -66.6665 -66.6665 -66.6665 -66.6665 -66.6665 -66.6665 -66.6665
   -41.1692 -41.1692 -41.1692 -41.1050 -41.1050 -41.1050 -41.0944 -41.0944
   -41.0944 -41.0944 -41.0944 -41.0944 -41.0353 -41.0352 -41.0352 -41.0302
   -41.0302 -41.0302 -41.0302 -41.0302 -41.0302 -41.0029 -40.9688 -40.9688
   -40.9688 -40.9688 -40.9688 -40.9688 -40.9615 -40.9615 -40.9615 -40.9615
   -40.9615 -40.9615 -40.9605 -40.9604 -40.9604 -40.9604 -40.9604 -40.9604
   -40.9394 -40.9340 -40.9340 -40.9340 -40.9340 -40.9340 -40.9340 -40.9199
   -40.9199 -40.9198 -40.9198 -40.9198 -40.9198 -40.9198 -40.9198 -40.9198
   -40.9046 -40.9046 -40.9046 -40.9046 -40.9046 -40.9046 -40.8980 -40.8980
   -40.8980 -40.8980 -40.8979 -40.8979 -40.8697 -40.8697 -40.8697 -40.8697
   -40.8697 -40.8697 -40.8688 -40.8563 -40.8563 -40.8563 -40.8562 -40.8562
   -40.8562 -40.8562 -40.8562 -40.8562 -40.8562 -40.8562 -40.8562 -40.8349
   -40.8349 -40.8349 -40.8349 -40.8349 -40.8349 -40.8274 -40.8274 -40.8273
   -40.8273 -40.8273 -40.8273 -40.8094 -40.8094 -40.8094 -40.8094 -40.8094
   -40.8094 -40.8000 -40.8000 -40.8000 -40.8000 -40.8000 -40.8000 -40.7919
   -40.7919 -40.7919 -40.7857 -40.7857 -40.7857 -40.7857 -40.7856 -40.7856
   -40.7856 -40.7856 -40.7856 -40.7621 -40.7621 -40.7451 -40.7451 -40.7450
   -40.7450 -40.7450 -40.7450 -40.7222 -40.7222 -40.7222 -40.6977 -40.6977
   -40.6754 -40.6754 -40.6754 -40.6754 -40.6754 -40.6754 -40.6281 -40.6281
   -20.2761 -20.1487 -20.0129 -19.4097 -19.4097 -19.4097 -19.4097 -19.4097
   -19.4097 -19.2934 -19.2934 -19.2934 -19.2934 -19.2934 -19.2934 -19.1642
   -19.1642 -19.1642 -19.1642 -19.1642 -19.1642 -19.0096 -18.8056 -18.6296
   -18.6068 -18.6068 -18.6068 -18.6067 -18.6067 -18.6067 -18.4487 -18.4487
   -18.4487 -18.4487 -18.4486 -18.4486 -18.3128 -18.3128 -18.3128 -18.3127
   -18.3127 -18.3127 -18.3041 -18.3041 -18.3041 -18.3041 -18.3041 -18.3041
   -18.2633 -18.2633 -18.2633 -18.2279 -18.2279 -18.2279 -18.2279 -18.2279
   -18.2279 -18.1967 -18.1967 -18.1967 -18.1377 -18.1377 -18.1377 -18.1377
   -18.1377 -18.1377 -18.1194 -18.1194 -18.1194 -18.0835 -18.0835 -18.0835
   -18.0713 -18.0713 -18.0713 -18.0713 -18.0713 -18.0713 -18.0263 -18.0263
   -18.0263 -17.9978 -17.9978 -17.9978 -17.9977 -17.9977 -17.9977 -17.9419
   -17.9419 -17.9419 -17.9112 -17.9112 -17.9112 -17.9112 -17.9112 -17.9112
   -12.0854 -11.9202 -11.9202 -11.9202 -11.8457 -11.8457 -11.8457 -11.7383
   -11.7382 -11.7382 -11.6918 -11.3672 -11.3672 -11.3672 -11.3672 -11.3672
   -11.3672 -11.2932 -11.2932 -11.2932 -11.2932 -11.2932 -11.2932 -11.2712
   -11.1656 -11.1656 -11.1656 -11.1656 -11.1656 -11.1655 -11.0709 -11.0709
   -11.0709 -11.0708 -11.0708 -11.0708 -11.0541 -11.0541 -11.0541 -11.0541
   -11.0541 -11.0541 -10.9944 -10.9944 -10.9944 -10.9944 -10.9944 -10.9944
   -10.9666 -10.9666 -10.9666 -10.9506 -10.9506 -10.9505 -10.9505 -10.9505
   -10.9505 -10.8830 -10.8830 -10.8830 -10.8774 -10.8774 -10.8774 -10.8774
   -10.8774 -10.8774 -10.7572 -10.7572 -10.7571 -10.7571 -10.7571 -10.7571
   -10.7351 -10.7351 -10.7351 -10.2129 -10.2129 -10.2129 -10.0656 -10.0656
   -10.0656  -9.9343  -9.9343  -9.9343  -9.9343  -9.9343  -9.9343  -9.9082
    -9.9082  -9.9082  -9.8422  -9.8422  -9.8422  -9.8422  -9.8422  -9.8422
    -9.7815  -9.7815  -9.7815  -9.7815  -9.7815  -9.7815  -9.7384  -9.7384
    -9.7384  -9.7384  -9.7384  -9.7384  -9.6824  -9.6824  -9.6824  -9.6824
    -9.6824  -9.6824  -9.6469  -9.6469  -9.6469  -9.6469  -9.6469  -9.6469
    -9.5849  -9.5849  -9.5849  -9.5849  -9.5849  -9.5849  -9.4605  -9.4605
    -9.4605  -9.4605  -9.4605  -9.4605  -9.3435  -9.3435  -9.3435  -9.3435
    -9.3435  -9.3435  -9.3310  -9.3310  -9.3310  -9.3310  -9.3310  -9.3310
    -9.1819  -9.1819  -9.1819  -9.1601  -9.1601  -9.1601  -9.1601  -9.1601
    -9.1601  -9.1166  -9.1166  -9.1166  -9.0325  -9.0325  -9.0325  -9.0024
    -9.0024  -9.0024  -9.0024  -9.0024  -9.0024  -8.9568  -8.9568  -8.9568
    -8.9568  -8.9568  -8.9568  -8.8813  -8.8813  -8.8813  -8.8813  -8.8813
    -8.8813  -8.8064  -8.8064  -8.8063  -8.8063  -8.8063  -8.8063  -8.5916
    -8.5916  -8.5503  -8.5335  -8.5334  -8.4805  -8.4805  -8.4805  -8.4805
    -8.4805  -8.4805  -8.4573  -8.4573  -8.4178  -8.4178  -8.4178  -8.4178
    -8.4178  -8.4177  -8.3352  -8.3352  -8.3352  -8.3352  -8.3352  -8.3352
    -8.1209  -8.1209  -8.1208  -7.8752  -7.8752  -7.8752  -7.8242  -7.7450
    -7.7450  -7.7449  -7.7449  -7.7449  -7.7449  -7.6977  -7.6977  -7.6977
    -7.6977  -7.6977  -7.6977  -7.6817  -7.6817  -7.6817  -7.6817  -7.6817
    -7.6817  -7.6422  -7.6422  -7.6422  -7.6232  -7.6232  -7.6232  -7.6232
    -7.6232  -7.6232  -7.6001  -7.6001  -7.6001  -7.6001  -7.6001  -7.6001
    -7.5750  -7.5750  -7.5750  -7.5750  -7.5750  -7.5750  -7.5086  -7.5086
    -7.5085  -7.5085  -7.5085  -7.5085  -7.4630  -7.4630  -7.4053  -7.4053
    -7.3264  -7.3264  -7.3034  -7.3034  -7.3034  -7.3034  -7.3034  -7.3034
    -6.9811  -6.9811  -6.9811  -6.9811  -6.9811  -6.9811  -6.9714  -6.9674
    -6.9674  -6.9674  -6.8630  -6.8630  -6.8629  -6.7670  -6.7670  -6.7670
    -6.7670  -6.7670  -6.7670  -6.7549  -6.7549  -6.7549  -6.6818  -6.6818
    -6.6818  -6.6564  -6.6564  -6.6564  -6.6564  -6.6564  -6.6564  -6.5886
    -6.5886  -6.5886  -6.5705  -6.5705  -6.5705  -6.5705  -6.5705  -6.5705
    -6.5109  -6.5109  -6.5109  -6.5109  -6.5109  -6.5109  -6.4944  -6.4944
    -6.4944  -6.4396  -6.4396  -6.4396  -6.4396  -6.4395  -6.4395  -6.3604
    -6.3604  -6.3604  -6.3604  -6.3604  -6.3603  -6.2672  -5.6485  -5.3058
    -3.9880  -3.9880  -3.9880  -3.9880  -3.9880  -3.9879  -3.9558  -3.9558
    -3.9558  -3.9558  -3.9558  -3.9557  -3.7308  -3.7307  -3.7307  -3.7307
    -3.7307  -3.7306  -3.7196  -3.7196  -3.7196  -3.7196  -3.7196  -3.7192
    -3.6517  -3.6517  -3.6517  -3.6328  -3.6328  -3.6328  -3.6327  -3.6327
    -3.6327  -3.5884  -3.5883  -3.5883  -3.5279  -3.5279  -3.5279  -3.5278
    -3.5278  -3.5278  -3.5129  -3.5129  -3.5129  -3.5116  -3.5116  -3.5116
    -3.5116  -3.5116  -3.5116  -3.4152  -3.4152  -3.4152  -3.4152  -3.4152
    -3.4152  -3.3856  -3.3856  -3.3856  -3.3856  -3.3855  -3.3855  -3.1853
    -3.1850  -3.1850  -3.1799  -3.1799  -3.1132  -3.1131  -3.1130  -3.1128
    -3.1127  -3.1126  -3.1125  -3.1123  -3.0890  -3.0888  -3.0887  -3.0524
    -3.0524  -3.0523  -3.0523  -3.0523  -3.0521  -3.0408  -3.0408  -3.0408
    -3.0407  -3.0407  -3.0405  -3.0352  -3.0352  -2.9896  -2.9895  -2.9895
    -2.9263  -2.9263  -2.9173  -2.9171  -2.9166  -2.9164  -2.9162  -2.9158
    -2.8825  -2.8823  -2.8810  -2.8807  -2.8803  -2.8793  -2.8517  -2.8517
    -2.7905  -2.7905  -2.7904  -2.7904  -2.7904  -2.7857  -2.7680  -2.7679
    -2.6162  -2.6158  -2.6157  -2.6156  -2.6155

          k = 0.0000-0.5773 0.0000 (321564 PWs)   bands (ev):

   -66.8367 -66.8367 -66.8262 -66.8262 -66.8112 -66.8112 -66.8112 -66.8112
   -66.8068 -66.8068 -66.8006 -66.8006 -66.8006 -66.8006 -66.7962 -66.7962
   -66.7721 -66.7720 -66.7615 -66.7615 -66.7465 -66.7465 -66.7465 -66.7465
   -66.7421 -66.7421 -66.7359 -66.7359 -66.7359 -66.7359 -66.7315 -66.7315
   -66.7027 -66.7026 -66.6921 -66.6921 -66.6771 -66.6771 -66.6771 -66.6771
   -66.6727 -66.6727 -66.6666 -66.6665 -66.6665 -66.6665 -66.6621 -66.6621
   -41.1378 -41.1378 -41.1378 -41.1378 -41.1112 -41.1111 -41.0992 -41.0992
   -41.0736 -41.0736 -41.0736 -41.0736 -41.0488 -41.0488 -41.0488 -41.0488
   -41.0470 -41.0469 -41.0350 -41.0350 -41.0039 -41.0038 -41.0038 -41.0038
   -40.9909 -40.9908 -40.9846 -40.9846 -40.9846 -40.9846 -40.9809 -40.9809
   -40.9772 -40.9772 -40.9701 -40.9701 -40.9653 -40.9653 -40.9407 -40.9407
   -40.9407 -40.9407 -40.9320 -40.9320 -40.9273 -40.9273 -40.9199 -40.9199
   -40.9198 -40.9198 -40.9198 -40.9198 -40.9166 -40.9166 -40.9148 -40.9148
   -40.9148 -40.9148 -40.9112 -40.9112 -40.9066 -40.9066 -40.8891 -40.8891
   -40.8891 -40.8891 -40.8771 -40.8771 -40.8771 -40.8771 -40.8685 -40.8684
   -40.8567 -40.8567 -40.8562 -40.8562 -40.8562 -40.8562 -40.8556 -40.8556
   -40.8546 -40.8546 -40.8546 -40.8546 -40.8476 -40.8476 -40.8469 -40.8469
   -40.8426 -40.8425 -40.8360 -40.8359 -40.8248 -40.8248 -40.8248 -40.8248
   -40.8234 -40.8233 -40.8065 -40.8065 -40.8065 -40.8065 -40.8065 -40.8065
   -40.7979 -40.7978 -40.7903 -40.7903 -40.7903 -40.7903 -40.7859 -40.7859
   -40.7857 -40.7856 -40.7856 -40.7856 -40.7782 -40.7782 -40.7770 -40.7770
   -40.7760 -40.7760 -40.7590 -40.7590 -40.7552 -40.7551 -40.7551 -40.7551
   -40.7421 -40.7421 -40.7206 -40.7206 -40.7206 -40.7206 -40.7117 -40.7116
   -40.7086 -40.7086 -40.6894 -40.6894 -40.6725 -40.6725 -40.6420 -40.6420
   -20.0395 -20.0394 -19.9140 -19.9139 -19.7790 -19.7789 -19.6049 -19.6048
   -19.4849 -19.4849 -19.3531 -19.3531 -18.8993 -18.8992 -18.8969 -18.8969
   -18.8969 -18.8969 -18.7943 -18.7943 -18.7943 -18.7943 -18.7069 -18.7069
   -18.6963 -18.6963 -18.6750 -18.6750 -18.6750 -18.6750 -18.6492 -18.6492
   -18.5579 -18.5579 -18.5417 -18.5416 -18.5268 -18.5268 -18.4480 -18.4480
   -18.3816 -18.3816 -18.3663 -18.3663 -18.3663 -18.3663 -18.2842 -18.2842
   -18.2842 -18.2842 -18.2608 -18.2608 -18.2405 -18.2405 -18.2405 -18.2405
   -18.2126 -18.2125 -18.2125 -18.2125 -18.1563 -18.1563 -18.1284 -18.1283
   -18.1283 -18.1283 -18.1280 -18.1280 -18.1280 -18.1280 -18.0779 -18.0779
   -18.0778 -18.0778 -18.0565 -18.0565 -18.0195 -18.0195 -18.0118 -18.0118
   -18.0118 -18.0118 -17.9647 -17.9647 -17.9454 -17.9453 -17.9267 -17.9267
   -17.9267 -17.9267 -17.9069 -17.9069 -17.8677 -17.8677 -17.8068 -17.8068
   -11.8263 -11.8263 -11.6320 -11.6320 -11.6320 -11.6320 -11.6088 -11.6087
   -11.5479 -11.5479 -11.5479 -11.5479 -11.4950 -11.4950 -11.4424 -11.4423
   -11.4361 -11.4361 -11.4354 -11.4354 -11.4354 -11.4353 -11.4119 -11.4119
   -11.3747 -11.3747 -11.3730 -11.3730 -11.3102 -11.3102 -11.3102 -11.3102
   -11.2870 -11.2870 -11.1273 -11.1273 -11.1273 -11.1273 -11.0910 -11.0910
   -11.0691 -11.0691 -11.0217 -11.0217 -11.0069 -11.0069 -10.9864 -10.9864
   -10.9863 -10.9863 -10.9546 -10.9546 -10.9546 -10.9546 -10.9250 -10.9249
   -10.9249 -10.9249 -10.9023 -10.9023 -10.8101 -10.8101 -10.8101 -10.8101
   -10.7037 -10.7037 -10.6454 -10.6454 -10.5202 -10.5201 -10.3549 -10.3549
   -10.2767 -10.2767 -10.2767 -10.2767 -10.1760 -10.1760 -10.1760 -10.1760
   -10.0917 -10.0917 -10.0917 -10.0916 -10.0545 -10.0545 -10.0475 -10.0475
   -10.0475 -10.0475 -10.0469 -10.0469  -9.9395  -9.9395  -9.9394  -9.9394
    -9.8994  -9.8994  -9.8933  -9.8933  -9.8636  -9.8636  -9.8636  -9.8636
    -9.7835  -9.7835  -9.7807  -9.7807  -9.7807  -9.7807  -9.7622  -9.7622
    -9.7622  -9.7622  -9.7370  -9.7370  -9.6822  -9.6822  -9.6320  -9.6320
    -9.6108  -9.6108  -9.6108  -9.6108  -9.5614  -9.5614  -9.4355  -9.4355
    -9.3908  -9.3908  -9.2886  -9.2886  -9.2886  -9.2886  -9.2800  -9.2799
    -9.2799  -9.2799  -9.2541  -9.2541  -9.1593  -9.1593  -9.1593  -9.1593
    -9.1346  -9.1346  -9.1075  -9.1075  -9.1075  -9.1075  -9.0853  -9.0853
    -9.0795  -9.0795  -9.0539  -9.0539  -9.0539  -9.0539  -9.0515  -9.0515
    -9.0302  -9.0301  -9.0117  -9.0117  -8.9955  -8.9954  -8.9643  -8.9643
    -8.9643  -8.9643  -8.9396  -8.9396  -8.9310  -8.9310  -8.9308  -8.9307
    -8.8767  -8.8767  -8.8640  -8.8640  -8.8471  -8.8470  -8.6680  -8.6680
    -8.5968  -8.5968  -8.5418  -8.5418  -8.5224  -8.5224  -8.3482  -8.3481
    -8.2899  -8.2899  -8.2321  -8.2321  -8.2128  -8.2127  -8.0881  -8.0881
    -8.0219  -8.0219  -8.0219  -8.0219  -8.0017  -8.0017  -8.0007  -8.0007
    -7.9936  -7.9936  -7.9563  -7.9563  -7.9563  -7.9563  -7.9437  -7.9437
    -7.9135  -7.9135  -7.9135  -7.9135  -7.9024  -7.9024  -7.8874  -7.8874
    -7.8874  -7.8874  -7.8620  -7.8620  -7.8495  -7.8494  -7.8494  -7.8494
    -7.8167  -7.8167  -7.7972  -7.7972  -7.7972  -7.7972  -7.7879  -7.7879
    -7.7879  -7.7879  -7.7567  -7.7567  -7.7333  -7.7333  -7.7199  -7.7199
    -7.7199  -7.7199  -7.6766  -7.6766  -7.5864  -7.5864  -7.5864  -7.5864
    -7.4698  -7.4698  -7.3914  -7.3914  -7.3914  -7.3914  -7.2712  -7.2712
    -7.2501  -7.2501  -7.2501  -7.2501  -7.1701  -7.1701  -7.0922  -7.0922
    -7.0904  -7.0904  -7.0904  -7.0904  -7.0845  -7.0845  -7.0631  -7.0631
    -6.9887  -6.9886  -6.9823  -6.9823  -6.9092  -6.9092  -6.8597  -6.8596
    -6.8132  -6.8132  -6.8132  -6.8132  -6.7610  -6.7610  -6.7505  -6.7505
    -6.7505  -6.7505  -6.6712  -6.6712  -6.6712  -6.6712  -6.6521  -6.6521
    -6.6452  -6.6452  -6.5384  -6.5384  -6.4821  -6.4821  -6.4821  -6.4821
    -6.4139  -6.4139  -6.4072  -6.4072  -6.4071  -6.4071  -6.3394  -6.3394
    -6.3235  -6.3235  -6.3235  -6.3235  -6.3067  -6.3066  -6.1331  -6.1331
    -6.0622  -6.0622  -5.9825  -5.9825  -5.8850  -5.8850  -5.7038  -5.7038
    -4.1641  -4.1641  -4.1641  -4.1641  -4.0485  -4.0485  -4.0231  -4.0231
    -3.9897  -3.9897  -3.9146  -3.9146  -3.9044  -3.9044  -3.9044  -3.9043
    -3.8169  -3.8168  -3.7488  -3.7488  -3.7487  -3.7487  -3.7344  -3.7343
    -3.6768  -3.6768  -3.6768  -3.6768  -3.6582  -3.6580  -3.6258  -3.6257
    -3.6234  -3.6234  -3.6178  -3.6178  -3.6177  -3.6177  -3.5694  -3.5693
    -3.5091  -3.5090  -3.5090  -3.5089  -3.5012  -3.5012  -3.4716  -3.4714
    -3.4628  -3.4628  -3.4249  -3.4248  -3.4247  -3.4245  -3.4124  -3.4123
    -3.3923  -3.3922  -3.3880  -3.3880  -3.3533  -3.3533  -3.3533  -3.3527
    -3.3484  -3.3483  -3.3159  -3.3159  -3.2516  -3.2516  -3.2516  -3.2515
    -3.2509  -3.2508  -3.2197  -3.2196  -3.1822  -3.1821  -3.1620  -3.1619
    -3.1618  -3.1617  -3.1597  -3.1596  -3.1212  -3.1212  -3.1122  -3.1122
    -3.0939  -3.0937  -3.0678  -3.0678  -3.0677  -3.0675  -3.0374  -3.0372
    -3.0065  -3.0065  -2.9982  -2.9982  -2.9980  -2.9976  -2.9532  -2.9531
    -2.9531  -2.9530  -2.9463  -2.9440  -2.8749  -2.8743  -2.8217  -2.8217
    -2.7978  -2.7978  -2.7714  -2.7713  -2.7713  -2.7639  -2.7140  -2.7140
    -2.6315  -2.6311  -2.6310  -2.6252  -2.6251

          k =-0.5000-0.2887 0.0000 (321564 PWs)   bands (ev):

   -66.8367 -66.8367 -66.8262 -66.8262 -66.8112 -66.8112 -66.8112 -66.8112
   -66.8068 -66.8068 -66.8006 -66.8006 -66.8006 -66.8006 -66.7962 -66.7962
   -66.7720 -66.7720 -66.7615 -66.7615 -66.7465 -66.7465 -66.7465 -66.7465
   -66.7421 -66.7421 -66.7359 -66.7359 -66.7359 -66.7359 -66.7315 -66.7315
   -66.7026 -66.7026 -66.6921 -66.6921 -66.6771 -66.6771 -66.6771 -66.6771
   -66.6727 -66.6727 -66.6665 -66.6665 -66.6665 -66.6665 -66.6621 -66.6621
   -41.1378 -41.1378 -41.1378 -41.1378 -41.1111 -41.1111 -41.0992 -41.0992
   -41.0736 -41.0736 -41.0736 -41.0736 -41.0488 -41.0488 -41.0488 -41.0488
   -41.0470 -41.0470 -41.0350 -41.0350 -41.0038 -41.0038 -41.0038 -41.0038
   -40.9908 -40.9908 -40.9846 -40.9846 -40.9846 -40.9846 -40.9809 -40.9809
   -40.9772 -40.9772 -40.9701 -40.9701 -40.9653 -40.9653 -40.9407 -40.9407
   -40.9407 -40.9407 -40.9320 -40.9320 -40.9273 -40.9273 -40.9199 -40.9199
   -40.9198 -40.9198 -40.9198 -40.9198 -40.9166 -40.9166 -40.9148 -40.9148
   -40.9148 -40.9148 -40.9112 -40.9112 -40.9066 -40.9066 -40.8891 -40.8891
   -40.8891 -40.8891 -40.8771 -40.8771 -40.8771 -40.8771 -40.8685 -40.8684
   -40.8567 -40.8567 -40.8562 -40.8562 -40.8562 -40.8562 -40.8556 -40.8556
   -40.8546 -40.8546 -40.8546 -40.8546 -40.8476 -40.8476 -40.8469 -40.8469
   -40.8425 -40.8425 -40.8360 -40.8359 -40.8248 -40.8248 -40.8248 -40.8248
   -40.8234 -40.8233 -40.8065 -40.8065 -40.8065 -40.8065 -40.8065 -40.8065
   -40.7979 -40.7978 -40.7903 -40.7903 -40.7903 -40.7903 -40.7859 -40.7859
   -40.7856 -40.7856 -40.7856 -40.7856 -40.7782 -40.7782 -40.7770 -40.7770
   -40.7760 -40.7760 -40.7590 -40.7590 -40.7551 -40.7551 -40.7551 -40.7551
   -40.7421 -40.7421 -40.7206 -40.7206 -40.7206 -40.7206 -40.7116 -40.7116
   -40.7086 -40.7086 -40.6894 -40.6894 -40.6725 -40.6725 -40.6420 -40.6420
   -20.0395 -20.0395 -19.9139 -19.9139 -19.7790 -19.7790 -19.6049 -19.6049
   -19.4849 -19.4849 -19.3531 -19.3531 -18.8992 -18.8992 -18.8969 -18.8969
   -18.8969 -18.8969 -18.7943 -18.7943 -18.7943 -18.7943 -18.7069 -18.7069
   -18.6963 -18.6963 -18.6750 -18.6750 -18.6750 -18.6750 -18.6492 -18.6492
   -18.5579 -18.5579 -18.5417 -18.5416 -18.5268 -18.5268 -18.4480 -18.4480
   -18.3816 -18.3816 -18.3663 -18.3663 -18.3663 -18.3663 -18.2842 -18.2842
   -18.2842 -18.2842 -18.2608 -18.2608 -18.2405 -18.2405 -18.2405 -18.2405
   -18.2125 -18.2125 -18.2125 -18.2125 -18.1563 -18.1563 -18.1283 -18.1283
   -18.1283 -18.1283 -18.1280 -18.1280 -18.1280 -18.1280 -18.0779 -18.0779
   -18.0779 -18.0779 -18.0565 -18.0565 -18.0195 -18.0195 -18.0118 -18.0118
   -18.0118 -18.0118 -17.9647 -17.9647 -17.9454 -17.9453 -17.9267 -17.9267
   -17.9267 -17.9267 -17.9069 -17.9069 -17.8677 -17.8677 -17.8068 -17.8068
   -11.8263 -11.8263 -11.6320 -11.6320 -11.6320 -11.6320 -11.6088 -11.6088
   -11.5479 -11.5479 -11.5479 -11.5479 -11.4950 -11.4950 -11.4424 -11.4424
   -11.4361 -11.4361 -11.4354 -11.4354 -11.4354 -11.4354 -11.4119 -11.4119
   -11.3747 -11.3747 -11.3730 -11.3730 -11.3102 -11.3102 -11.3102 -11.3102
   -11.2870 -11.2870 -11.1273 -11.1273 -11.1273 -11.1273 -11.0910 -11.0910
   -11.0691 -11.0691 -11.0217 -11.0217 -11.0069 -11.0069 -10.9864 -10.9863
   -10.9863 -10.9863 -10.9546 -10.9546 -10.9546 -10.9546 -10.9249 -10.9249
   -10.9249 -10.9249 -10.9023 -10.9023 -10.8101 -10.8101 -10.8101 -10.8101
   -10.7037 -10.7037 -10.6454 -10.6454 -10.5202 -10.5201 -10.3549 -10.3549
   -10.2767 -10.2767 -10.2767 -10.2767 -10.1760 -10.1760 -10.1760 -10.1760
   -10.0917 -10.0917 -10.0917 -10.0917 -10.0545 -10.0545 -10.0475 -10.0475
   -10.0475 -10.0475 -10.0469 -10.0469  -9.9395  -9.9395  -9.9394  -9.9394
    -9.8994  -9.8994  -9.8933  -9.8933  -9.8636  -9.8636  -9.8636  -9.8636
    -9.7835  -9.7835  -9.7807  -9.7807  -9.7807  -9.7807  -9.7622  -9.7622
    -9.7622  -9.7622  -9.7370  -9.7370  -9.6823  -9.6822  -9.6320  -9.6320
    -9.6108  -9.6108  -9.6108  -9.6108  -9.5614  -9.5614  -9.4355  -9.4355
    -9.3908  -9.3908  -9.2886  -9.2886  -9.2886  -9.2886  -9.2799  -9.2799
    -9.2799  -9.2799  -9.2541  -9.2541  -9.1593  -9.1593  -9.1593  -9.1593
    -9.1346  -9.1346  -9.1075  -9.1075  -9.1075  -9.1075  -9.0853  -9.0853
    -9.0795  -9.0795  -9.0539  -9.0539  -9.0539  -9.0539  -9.0515  -9.0515
    -9.0302  -9.0302  -9.0117  -9.0117  -8.9955  -8.9954  -8.9643  -8.9643
    -8.9643  -8.9643  -8.9396  -8.9396  -8.9310  -8.9310  -8.9308  -8.9308
    -8.8767  -8.8767  -8.8640  -8.8640  -8.8471  -8.8471  -8.6680  -8.6680
    -8.5968  -8.5968  -8.5418  -8.5418  -8.5224  -8.5224  -8.3482  -8.3482
    -8.2899  -8.2899  -8.2321  -8.2321  -8.2128  -8.2128  -8.0881  -8.0881
    -8.0219  -8.0219  -8.0219  -8.0219  -8.0017  -8.0017  -8.0007  -8.0007
    -7.9936  -7.9936  -7.9563  -7.9563  -7.9563  -7.9563  -7.9437  -7.9437
    -7.9135  -7.9135  -7.9135  -7.9135  -7.9024  -7.9024  -7.8874  -7.8874
    -7.8874  -7.8874  -7.8620  -7.8620  -7.8495  -7.8494  -7.8494  -7.8494
    -7.8167  -7.8167  -7.7972  -7.7972  -7.7972  -7.7972  -7.7879  -7.7879
    -7.7879  -7.7879  -7.7567  -7.7567  -7.7333  -7.7333  -7.7199  -7.7199
    -7.7199  -7.7199  -7.6766  -7.6766  -7.5864  -7.5864  -7.5864  -7.5864
    -7.4698  -7.4698  -7.3914  -7.3914  -7.3914  -7.3914  -7.2712  -7.2712
    -7.2501  -7.2501  -7.2501  -7.2501  -7.1701  -7.1701  -7.0922  -7.0922
    -7.0904  -7.0904  -7.0904  -7.0904  -7.0845  -7.0845  -7.0631  -7.0631
    -6.9887  -6.9887  -6.9823  -6.9823  -6.9092  -6.9092  -6.8596  -6.8596
    -6.8132  -6.8132  -6.8132  -6.8132  -6.7610  -6.7610  -6.7505  -6.7505
    -6.7505  -6.7505  -6.6712  -6.6712  -6.6712  -6.6712  -6.6521  -6.6521
    -6.6452  -6.6452  -6.5384  -6.5384  -6.4821  -6.4821  -6.4821  -6.4821
    -6.4139  -6.4139  -6.4071  -6.4071  -6.4071  -6.4071  -6.3394  -6.3394
    -6.3235  -6.3235  -6.3235  -6.3235  -6.3067  -6.3066  -6.1331  -6.1331
    -6.0622  -6.0622  -5.9825  -5.9825  -5.8850  -5.8850  -5.7038  -5.7038
    -4.1641  -4.1641  -4.1641  -4.1640  -4.0486  -4.0485  -4.0231  -4.0231
    -3.9898  -3.9897  -3.9146  -3.9146  -3.9043  -3.9043  -3.9043  -3.9042
    -3.8168  -3.8168  -3.7489  -3.7489  -3.7489  -3.7488  -3.7344  -3.7343
    -3.6768  -3.6768  -3.6768  -3.6768  -3.6582  -3.6582  -3.6257  -3.6257
    -3.6234  -3.6234  -3.6179  -3.6178  -3.6178  -3.6178  -3.5694  -3.5694
    -3.5091  -3.5091  -3.5090  -3.5089  -3.5012  -3.5012  -3.4716  -3.4716
    -3.4628  -3.4628  -3.4249  -3.4249  -3.4249  -3.4240  -3.4124  -3.4123
    -3.3923  -3.3922  -3.3880  -3.3880  -3.3533  -3.3533  -3.3532  -3.3519
    -3.3484  -3.3484  -3.3159  -3.3158  -3.2516  -3.2515  -3.2515  -3.2514
    -3.2510  -3.2508  -3.2197  -3.2194  -3.1822  -3.1821  -3.1621  -3.1619
    -3.1619  -3.1618  -3.1596  -3.1594  -3.1212  -3.1212  -3.1121  -3.1121
    -3.0941  -3.0941  -3.0677  -3.0676  -3.0676  -3.0675  -3.0374  -3.0374
    -3.0066  -3.0065  -2.9983  -2.9983  -2.9981  -2.9973  -2.9533  -2.9532
    -2.9530  -2.9530  -2.9405  -2.9402  -2.8231  -2.8227  -2.7978  -2.7978
    -2.7713  -2.7712  -2.7711  -2.7592  -2.7140  -2.7140  -2.6313  -2.6310
    -2.6308  -2.6252  -2.6251  -2.5089  -2.4880

          k =-0.5000-0.8660 0.0000 (321564 PWs)   bands (ev):

   -66.8367 -66.8367 -66.8262 -66.8262 -66.8112 -66.8112 -66.8112 -66.8112
   -66.8068 -66.8068 -66.8006 -66.8006 -66.8006 -66.8006 -66.7962 -66.7962
   -66.7721 -66.7720 -66.7615 -66.7615 -66.7465 -66.7465 -66.7465 -66.7465
   -66.7421 -66.7421 -66.7359 -66.7359 -66.7359 -66.7359 -66.7315 -66.7315
   -66.7026 -66.7026 -66.6921 -66.6921 -66.6771 -66.6771 -66.6771 -66.6771
   -66.6727 -66.6727 -66.6665 -66.6665 -66.6665 -66.6665 -66.6621 -66.6621
   -41.1378 -41.1378 -41.1378 -41.1378 -41.1111 -41.1111 -41.0992 -41.0992
   -41.0736 -41.0736 -41.0736 -41.0736 -41.0488 -41.0488 -41.0488 -41.0488
   -41.0470 -41.0470 -41.0350 -41.0350 -41.0038 -41.0038 -41.0038 -41.0038
   -40.9908 -40.9908 -40.9846 -40.9846 -40.9846 -40.9846 -40.9809 -40.9809
   -40.9772 -40.9772 -40.9701 -40.9701 -40.9653 -40.9653 -40.9407 -40.9407
   -40.9407 -40.9407 -40.9320 -40.9320 -40.9273 -40.9273 -40.9199 -40.9199
   -40.9198 -40.9198 -40.9198 -40.9198 -40.9166 -40.9166 -40.9148 -40.9148
   -40.9148 -40.9148 -40.9112 -40.9112 -40.9066 -40.9066 -40.8891 -40.8891
   -40.8891 -40.8891 -40.8771 -40.8771 -40.8771 -40.8771 -40.8685 -40.8684
   -40.8567 -40.8567 -40.8562 -40.8562 -40.8562 -40.8562 -40.8556 -40.8556
   -40.8546 -40.8546 -40.8546 -40.8546 -40.8476 -40.8476 -40.8469 -40.8469
   -40.8425 -40.8425 -40.8360 -40.8359 -40.8248 -40.8248 -40.8248 -40.8248
   -40.8234 -40.8233 -40.8065 -40.8065 -40.8065 -40.8065 -40.8065 -40.8065
   -40.7979 -40.7978 -40.7903 -40.7903 -40.7903 -40.7903 -40.7859 -40.7859
   -40.7856 -40.7856 -40.7856 -40.7856 -40.7782 -40.7782 -40.7770 -40.7770
   -40.7760 -40.7760 -40.7590 -40.7590 -40.7551 -40.7551 -40.7551 -40.7551
   -40.7421 -40.7421 -40.7206 -40.7206 -40.7206 -40.7206 -40.7116 -40.7116
   -40.7086 -40.7086 -40.6894 -40.6894 -40.6725 -40.6725 -40.6420 -40.6420
   -20.0395 -20.0395 -19.9139 -19.9139 -19.7790 -19.7790 -19.6049 -19.6049
   -19.4849 -19.4849 -19.3531 -19.3531 -18.8992 -18.8992 -18.8969 -18.8969
   -18.8969 -18.8969 -18.7943 -18.7943 -18.7943 -18.7943 -18.7069 -18.7069
   -18.6963 -18.6963 -18.6750 -18.6750 -18.6750 -18.6750 -18.6492 -18.6492
   -18.5579 -18.5579 -18.5417 -18.5416 -18.5268 -18.5268 -18.4480 -18.4480
   -18.3816 -18.3816 -18.3663 -18.3663 -18.3663 -18.3663 -18.2842 -18.2842
   -18.2842 -18.2842 -18.2608 -18.2608 -18.2405 -18.2405 -18.2405 -18.2405
   -18.2125 -18.2125 -18.2125 -18.2125 -18.1563 -18.1563 -18.1283 -18.1283
   -18.1283 -18.1283 -18.1280 -18.1280 -18.1280 -18.1280 -18.0779 -18.0779
   -18.0779 -18.0779 -18.0565 -18.0565 -18.0195 -18.0195 -18.0118 -18.0118
   -18.0118 -18.0118 -17.9647 -17.9647 -17.9454 -17.9454 -17.9267 -17.9267
   -17.9267 -17.9267 -17.9069 -17.9069 -17.8677 -17.8677 -17.8068 -17.8068
   -11.8263 -11.8263 -11.6320 -11.6320 -11.6320 -11.6320 -11.6088 -11.6088
   -11.5479 -11.5479 -11.5479 -11.5479 -11.4950 -11.4950 -11.4424 -11.4424
   -11.4361 -11.4361 -11.4354 -11.4354 -11.4354 -11.4354 -11.4119 -11.4119
   -11.3747 -11.3747 -11.3730 -11.3730 -11.3102 -11.3102 -11.3102 -11.3102
   -11.2870 -11.2870 -11.1273 -11.1273 -11.1273 -11.1273 -11.0910 -11.0910
   -11.0691 -11.0691 -11.0217 -11.0217 -11.0068 -11.0068 -10.9864 -10.9863
   -10.9863 -10.9863 -10.9546 -10.9546 -10.9546 -10.9546 -10.9249 -10.9249
   -10.9249 -10.9249 -10.9023 -10.9023 -10.8101 -10.8101 -10.8101 -10.8101
   -10.7037 -10.7037 -10.6454 -10.6454 -10.5201 -10.5201 -10.3549 -10.3549
   -10.2767 -10.2767 -10.2767 -10.2767 -10.1760 -10.1760 -10.1760 -10.1760
   -10.0917 -10.0917 -10.0917 -10.0917 -10.0545 -10.0545 -10.0475 -10.0475
   -10.0475 -10.0475 -10.0469 -10.0469  -9.9395  -9.9395  -9.9395  -9.9394
    -9.8994  -9.8994  -9.8933  -9.8933  -9.8636  -9.8636  -9.8636  -9.8636
    -9.7835  -9.7835  -9.7807  -9.7807  -9.7807  -9.7807  -9.7622  -9.7622
    -9.7622  -9.7622  -9.7370  -9.7370  -9.6823  -9.6822  -9.6320  -9.6320
    -9.6108  -9.6108  -9.6108  -9.6108  -9.5614  -9.5614  -9.4355  -9.4355
    -9.3908  -9.3908  -9.2886  -9.2886  -9.2886  -9.2886  -9.2800  -9.2799
    -9.2799  -9.2799  -9.2542  -9.2541  -9.1593  -9.1593  -9.1593  -9.1593
    -9.1346  -9.1346  -9.1075  -9.1075  -9.1075  -9.1075  -9.0853  -9.0853
    -9.0795  -9.0795  -9.0539  -9.0539  -9.0539  -9.0539  -9.0515  -9.0515
    -9.0302  -9.0302  -9.0117  -9.0117  -8.9954  -8.9954  -8.9643  -8.9643
    -8.9643  -8.9643  -8.9396  -8.9396  -8.9310  -8.9310  -8.9308  -8.9308
    -8.8767  -8.8767  -8.8640  -8.8640  -8.8470  -8.8470  -8.6680  -8.6680
    -8.5968  -8.5968  -8.5418  -8.5418  -8.5224  -8.5224  -8.3482  -8.3482
    -8.2899  -8.2899  -8.2321  -8.2321  -8.2128  -8.2128  -8.0881  -8.0881
    -8.0219  -8.0219  -8.0219  -8.0219  -8.0017  -8.0017  -8.0007  -8.0007
    -7.9936  -7.9936  -7.9563  -7.9563  -7.9563  -7.9563  -7.9437  -7.9437
    -7.9135  -7.9135  -7.9135  -7.9135  -7.9024  -7.9024  -7.8874  -7.8874
    -7.8874  -7.8874  -7.8620  -7.8620  -7.8494  -7.8494  -7.8494  -7.8494
    -7.8167  -7.8167  -7.7972  -7.7972  -7.7972  -7.7972  -7.7879  -7.7879
    -7.7879  -7.7879  -7.7567  -7.7567  -7.7333  -7.7333  -7.7199  -7.7199
    -7.7199  -7.7199  -7.6766  -7.6766  -7.5864  -7.5864  -7.5864  -7.5864
    -7.4698  -7.4698  -7.3914  -7.3914  -7.3914  -7.3914  -7.2712  -7.2712
    -7.2501  -7.2501  -7.2501  -7.2501  -7.1701  -7.1701  -7.0922  -7.0922
    -7.0904  -7.0904  -7.0904  -7.0904  -7.0845  -7.0845  -7.0631  -7.0631
    -6.9887  -6.9887  -6.9823  -6.9823  -6.9092  -6.9092  -6.8596  -6.8596
    -6.8132  -6.8132  -6.8132  -6.8132  -6.7610  -6.7610  -6.7505  -6.7505
    -6.7505  -6.7505  -6.6712  -6.6712  -6.6712  -6.6712  -6.6521  -6.6521
    -6.6452  -6.6452  -6.5384  -6.5384  -6.4821  -6.4821  -6.4821  -6.4821
    -6.4139  -6.4139  -6.4072  -6.4071  -6.4071  -6.4071  -6.3394  -6.3394
    -6.3235  -6.3235  -6.3235  -6.3235  -6.3067  -6.3067  -6.1331  -6.1331
    -6.0622  -6.0622  -5.9825  -5.9825  -5.8850  -5.8850  -5.7038  -5.7038
    -4.1641  -4.1640  -4.1640  -4.1640  -4.0486  -4.0486  -4.0231  -4.0230
    -3.9897  -3.9897  -3.9146  -3.9146  -3.9043  -3.9043  -3.9043  -3.9042
    -3.8167  -3.8166  -3.7489  -3.7489  -3.7489  -3.7489  -3.7345  -3.7345
    -3.6768  -3.6768  -3.6765  -3.6765  -3.6581  -3.6581  -3.6258  -3.6257
    -3.6234  -3.6234  -3.6179  -3.6179  -3.6178  -3.6178  -3.5693  -3.5693
    -3.5091  -3.5091  -3.5090  -3.5089  -3.5012  -3.5012  -3.4716  -3.4716
    -3.4628  -3.4628  -3.4248  -3.4247  -3.4247  -3.4240  -3.4123  -3.4123
    -3.3923  -3.3923  -3.3880  -3.3880  -3.3533  -3.3531  -3.3531  -3.3522
    -3.3484  -3.3484  -3.3159  -3.3159  -3.2516  -3.2514  -3.2514  -3.2513
    -3.2510  -3.2510  -3.2198  -3.2198  -3.1820  -3.1820  -3.1621  -3.1620
    -3.1620  -3.1620  -3.1595  -3.1594  -3.1212  -3.1212  -3.1122  -3.1121
    -3.0941  -3.0941  -3.0679  -3.0678  -3.0677  -3.0674  -3.0375  -3.0374
    -3.0065  -3.0065  -2.9984  -2.9984  -2.9983  -2.9977  -2.9532  -2.9531
    -2.9530  -2.9530  -2.9426  -2.9409  -2.8231  -2.8226  -2.7978  -2.7978
    -2.7714  -2.7713  -2.7712  -2.7589  -2.7140  -2.7139  -2.6318  -2.6314
    -2.6312  -2.6252  -2.6251  -2.5159  -2.4731

     the Fermi energy is    -4.7544 ev

!    total energy              =  -23845.22457933 Ry
     total all-electron energy =   -465365.074716 Ry
     estimated scf accuracy    <       0.00000064 Ry
     smearing contrib. (-TS)   =      -0.00000000 Ry
     internal energy E=F+TS    =  -23845.22457933 Ry

     The total energy is F=E-TS. E is the sum of the following terms:
     one-electron contribution =  439053.31949300 Ry
     hartree contribution      = -219634.13241519 Ry
     xc contribution           =   -1428.00725876 Ry
     ewald contribution        = -226489.85729527 Ry
     DFT-D3 Dispersion         =      -3.94380428 Ry
     one-center paw contrib.   =  -15342.60329882 Ry

     convergence has been achieved in  36 iterations

     negative rho (up, down):  8.767E-04 0.000E+00

     Forces acting on atoms (cartesian axes, Ry/au):

     atom    1 type  1   force =     0.00000550    0.00001336   -0.00099164
     atom    2 type  1   force =     0.00000759   -0.00000495    0.00192276
     atom    3 type  1   force =     0.00000568    0.00000110   -0.00007077
     atom    4 type  2   force =    -0.00000016   -0.00000178   -0.00321945
     atom    5 type  2   force =     0.00000142    0.00000113   -0.00146811
     atom    6 type  2   force =    -0.00000210    0.00000111   -0.00178892
     atom    7 type  2   force =    -0.00000084   -0.00000042    0.00143260
     atom    8 type  2   force =     0.00000409    0.00000029    0.00153580
     atom    9 type  2   force =    -0.00000183    0.00000466    0.00267449
     atom   10 type  1   force =     0.00000639   -0.00000162   -0.00099388
     atom   11 type  1   force =    -0.00000723    0.00001230    0.00191983
     atom   12 type  1   force =    -0.00001439    0.00001339   -0.00006967
     atom   13 type  2   force =    -0.00000102    0.00000218   -0.00321259
     atom   14 type  2   force =    -0.00000022   -0.00000032   -0.00146769
     atom   15 type  2   force =    -0.00000549   -0.00000405   -0.00178779
     atom   16 type  2   force =    -0.00000175    0.00000274    0.00142990
     atom   17 type  2   force =    -0.00000036   -0.00000033    0.00152907
     atom   18 type  2   force =    -0.00000492   -0.00000388    0.00267209
     atom   19 type  1   force =    -0.00000231    0.00001029   -0.00100146
     atom   20 type  1   force =    -0.00000729   -0.00000289    0.00192080
     atom   21 type  1   force =    -0.00000637    0.00000363   -0.00006746
     atom   22 type  2   force =    -0.00000205    0.00000089   -0.00320151
     atom   23 type  2   force =    -0.00000390    0.00000024   -0.00145900
     atom   24 type  2   force =    -0.00000645   -0.00000010   -0.00178064
     atom   25 type  2   force =    -0.00000439    0.00000139    0.00143142
     atom   26 type  2   force =    -0.00000389   -0.00000129    0.00152141
     atom   27 type  2   force =    -0.00000618   -0.00000048    0.00267232
     atom   28 type  1   force =     0.00001284    0.00000047   -0.00100294
     atom   29 type  1   force =    -0.00000539   -0.00000851    0.00191904
     atom   30 type  1   force =     0.00001640   -0.00002435   -0.00007508
     atom   31 type  2   force =    -0.00000041   -0.00000407   -0.00320129
     atom   32 type  2   force =    -0.00000417   -0.00000091   -0.00145985
     atom   33 type  2   force =     0.00000606   -0.00000310   -0.00179297
     atom   34 type  2   force =    -0.00000116   -0.00000533    0.00143111
     atom   35 type  2   force =    -0.00000433   -0.00000322    0.00152212
     atom   36 type  2   force =     0.00000335   -0.00000438    0.00268007
     atom   37 type  1   force =     0.00000069    0.00000273   -0.00099379
     atom   38 type  1   force =    -0.00000094    0.00000103    0.00191980
     atom   39 type  1   force =     0.00001244   -0.00000507   -0.00007190
     atom   40 type  2   force =     0.00000032    0.00000078   -0.00320932
     atom   41 type  2   force =    -0.00000497    0.00000270   -0.00146224
     atom   42 type  2   force =     0.00000143   -0.00000204   -0.00179104
     atom   43 type  2   force =    -0.00000209   -0.00000023    0.00142713
     atom   44 type  2   force =    -0.00000429    0.00000345    0.00152861
     atom   45 type  2   force =     0.00000013    0.00000033    0.00267483
     atom   46 type  1   force =    -0.00000308   -0.00000874   -0.00099479
     atom   47 type  1   force =     0.00000912   -0.00000144    0.00192120
     atom   48 type  1   force =     0.00000227   -0.00000753   -0.00007387
     atom   49 type  2   force =     0.00000229    0.00000124   -0.00321764
     atom   50 type  2   force =    -0.00000166   -0.00000133   -0.00146416
     atom   51 type  2   force =    -0.00000038   -0.00000400   -0.00178254
     atom   52 type  2   force =    -0.00000064    0.00000293    0.00143195
     atom   53 type  2   force =     0.00000251   -0.00000249    0.00152647
     atom   54 type  2   force =    -0.00000268   -0.00000423    0.00266387
     atom   55 type  1   force =    -0.00000473    0.00000788   -0.00099516
     atom   56 type  1   force =    -0.00000500    0.00000611    0.00192190
     atom   57 type  1   force =    -0.00001672    0.00000183   -0.00006851
     atom   58 type  2   force =    -0.00000163   -0.00000144   -0.00320431
     atom   59 type  2   force =    -0.00000421   -0.00000371   -0.00146843
     atom   60 type  2   force =    -0.00000378    0.00000022   -0.00178878
     atom   61 type  2   force =    -0.00000133   -0.00000267    0.00142608
     atom   62 type  2   force =    -0.00000130   -0.00000360    0.00152996
     atom   63 type  2   force =    -0.00000127    0.00000210    0.00267804
     atom   64 type  1   force =    -0.00000352   -0.00000240   -0.00099838
     atom   65 type  1   force =     0.00000361   -0.00000454    0.00191864
     atom   66 type  1   force =    -0.00001121   -0.00000784   -0.00007361
     atom   67 type  2   force =    -0.00000477   -0.00000437   -0.00320542
     atom   68 type  2   force =    -0.00000635   -0.00000211   -0.00146411
     atom   69 type  2   force =    -0.00000571    0.00000138   -0.00178927
     atom   70 type  2   force =    -0.00000546   -0.00000499    0.00143016
     atom   71 type  2   force =    -0.00000263   -0.00000262    0.00152843
     atom   72 type  2   force =    -0.00000173    0.00000148    0.00267553
     atom   73 type  1   force =    -0.00000593    0.00001074   -0.00099689
     atom   74 type  1   force =     0.00000163    0.00000732    0.00192347
     atom   75 type  1   force =    -0.00000400    0.00000607   -0.00006369
     atom   76 type  2   force =     0.00000018    0.00000228   -0.00321357
     atom   77 type  2   force =    -0.00000123    0.00000839   -0.00147087
     atom   78 type  2   force =     0.00000010    0.00000351   -0.00178609
     atom   79 type  2   force =    -0.00000011    0.00000409    0.00142881
     atom   80 type  2   force =    -0.00000245    0.00000609    0.00153714
     atom   81 type  2   force =     0.00000306    0.00000332    0.00267122
     atom   82 type  1   force =     0.00001165   -0.00000744   -0.00099700
     atom   83 type  1   force =     0.00000482    0.00000204    0.00192454
     atom   84 type  1   force =     0.00002379    0.00000080   -0.00006772
     atom   85 type  2   force =     0.00000008    0.00000107   -0.00320915
     atom   86 type  2   force =     0.00000107    0.00000554   -0.00146595
     atom   87 type  2   force =     0.00000534   -0.00000537   -0.00178478
     atom   88 type  2   force =     0.00000032    0.00000173    0.00142633
     atom   89 type  2   force =    -0.00000235    0.00000376    0.00152232
     atom   90 type  2   force =     0.00000477   -0.00000540    0.00266534
     atom   91 type  1   force =     0.00000022    0.00000020   -0.00099631
     atom   92 type  1   force =     0.00001119   -0.00000050    0.00192242
     atom   93 type  1   force =     0.00001046   -0.00000232   -0.00007021
     atom   94 type  2   force =     0.00000259   -0.00000407   -0.00321091
     atom   95 type  2   force =     0.00000592   -0.00000292   -0.00146209
     atom   96 type  2   force =    -0.00000129    0.00000135   -0.00178740
     atom   97 type  2   force =     0.00000103   -0.00000172    0.00143042
     atom   98 type  2   force =     0.00000677   -0.00000447    0.00152204
     atom   99 type  2   force =    -0.00000030    0.00000452    0.00267120
     atom  100 type  1   force =    -0.00001050   -0.00000023   -0.00099843
     atom  101 type  1   force =    -0.00000508   -0.00000313    0.00191926
     atom  102 type  1   force =    -0.00000848   -0.00000469   -0.00006709
     atom  103 type  2   force =    -0.00000053   -0.00000005   -0.00320813
     atom  104 type  2   force =     0.00000292   -0.00000257   -0.00147140
     atom  105 type  2   force =    -0.00000141    0.00000081   -0.00179024
     atom  106 type  2   force =    -0.00000001   -0.00000176    0.00142856
     atom  107 type  2   force =     0.00000279   -0.00000523    0.00153349
     atom  108 type  2   force =    -0.00000260    0.00000198    0.00267799
     atom  109 type  1   force =    -0.00000436    0.00000473   -0.00099116
     atom  110 type  1   force =    -0.00000604    0.00000248    0.00192007
     atom  111 type  1   force =    -0.00000725    0.00001506   -0.00006645
     atom  112 type  2   force =    -0.00000062    0.00000295   -0.00321625
     atom  113 type  2   force =     0.00000476    0.00000806   -0.00147310
     atom  114 type  2   force =    -0.00000363    0.00000500   -0.00178659
     atom  115 type  2   force =    -0.00000133    0.00000331    0.00142919
     atom  116 type  2   force =     0.00000396    0.00000392    0.00153715
     atom  117 type  2   force =    -0.00000247    0.00000735    0.00267200
     atom  118 type  1   force =    -0.00001951   -0.00000320   -0.00099802
     atom  119 type  1   force =    -0.00000506    0.00000584    0.00191843
     atom  120 type  1   force =     0.00000218    0.00000914   -0.00006901
     atom  121 type  2   force =     0.00000086    0.00000415   -0.00320466
     atom  122 type  2   force =    -0.00000049    0.00000473   -0.00146149
     atom  123 type  2   force =    -0.00000059    0.00000072   -0.00177495
     atom  124 type  2   force =    -0.00000175    0.00000339    0.00142875
     atom  125 type  2   force =    -0.00000229    0.00000468    0.00152076
     atom  126 type  2   force =     0.00000231   -0.00000059    0.00265752
     atom  127 type  1   force =     0.00000518   -0.00001173   -0.00099986
[...]
     atom   59 type  2   force =     0.00000001   -0.00000001   -0.00004794
     atom   60 type  2   force =     0.00000000   -0.00000001   -0.00020163
     atom   61 type  2   force =     0.00000001   -0.00000001    0.00023483
     atom   62 type  2   force =    -0.00000000   -0.00000001    0.00008468
     atom   63 type  2   force =    -0.00000000   -0.00000000   -0.00441433
     atom   64 type  1   force =    -0.00000001    0.00000000   -0.00263903
     atom   65 type  1   force =     0.00000000   -0.00000000    0.00260428
     atom   66 type  1   force =     0.00000001    0.00000001   -0.00003331
     atom   67 type  2   force =     0.00000000    0.00000000    0.00441245
     atom   68 type  2   force =     0.00000002   -0.00000000   -0.00004795
     atom   69 type  2   force =     0.00000000    0.00000000   -0.00020162
     atom   70 type  2   force =     0.00000000   -0.00000000    0.00023482
     atom   71 type  2   force =     0.00000001   -0.00000001    0.00008469
     atom   72 type  2   force =    -0.00000000    0.00000000   -0.00441434
     atom   73 type  1   force =    -0.00000000    0.00000001   -0.00263903
     atom   74 type  1   force =     0.00000000   -0.00000000    0.00260429
     atom   75 type  1   force =    -0.00000000    0.00000000   -0.00003332
     atom   76 type  2   force =     0.00000000    0.00000000    0.00441245
     atom   77 type  2   force =     0.00000001   -0.00000000   -0.00004795
     atom   78 type  2   force =    -0.00000000    0.00000001   -0.00020162
     atom   79 type  2   force =     0.00000000    0.00000000    0.00023482
     atom   80 type  2   force =     0.00000001   -0.00000000    0.00008469
     atom   81 type  2   force =    -0.00000000    0.00000000   -0.00441433
     atom   82 type  1   force =     0.00000000   -0.00000001   -0.00263903
     atom   83 type  1   force =    -0.00000000   -0.00000000    0.00260429
     atom   84 type  1   force =    -0.00000004   -0.00000001   -0.00003332
     atom   85 type  2   force =     0.00000000    0.00000000    0.00441245
     atom   86 type  2   force =    -0.00000000   -0.00000001   -0.00004795
     atom   87 type  2   force =    -0.00000001   -0.00000000   -0.00020163
     atom   88 type  2   force =    -0.00000001    0.00000000    0.00023483
     atom   89 type  2   force =    -0.00000000   -0.00000001    0.00008469
     atom   90 type  2   force =     0.00000000    0.00000000   -0.00441433
     atom   91 type  1   force =     0.00000000   -0.00000001   -0.00263903
     atom   92 type  1   force =    -0.00000001   -0.00000000    0.00260429
     atom   93 type  1   force =    -0.00000001   -0.00000001   -0.00003332
     atom   94 type  2   force =     0.00000000    0.00000000    0.00441245
     atom   95 type  2   force =    -0.00000001    0.00000000   -0.00004794
     atom   96 type  2   force =    -0.00000000   -0.00000001   -0.00020163
     atom   97 type  2   force =    -0.00000001   -0.00000000    0.00023483
     atom   98 type  2   force =    -0.00000001   -0.00000000    0.00008468
     atom   99 type  2   force =     0.00000000   -0.00000000   -0.00441433
     atom  100 type  1   force =    -0.00000000    0.00000001   -0.00263903
     atom  101 type  1   force =    -0.00000000    0.00000000    0.00260429
     atom  102 type  1   force =     0.00000002   -0.00000000   -0.00003333
     atom  103 type  2   force =     0.00000000    0.00000000    0.00441245
     atom  104 type  2   force =     0.00000001    0.00000000   -0.00004795
     atom  105 type  2   force =     0.00000000    0.00000000   -0.00020163
     atom  106 type  2   force =     0.00000001   -0.00000000    0.00023483
     atom  107 type  2   force =     0.00000000   -0.00000001    0.00008468
     atom  108 type  2   force =     0.00000000    0.00000000   -0.00441433
     atom  109 type  1   force =     0.00000000    0.00000000   -0.00263904
     atom  110 type  1   force =    -0.00000000   -0.00000000    0.00260430
     atom  111 type  1   force =     0.00000002   -0.00000001   -0.00003332
     atom  112 type  2   force =     0.00000000    0.00000000    0.00441245
     atom  113 type  2   force =     0.00000001    0.00000000   -0.00004795
     atom  114 type  2   force =     0.00000001    0.00000001   -0.00020163
     atom  115 type  2   force =     0.00000000   -0.00000000    0.00023483
     atom  116 type  2   force =     0.00000000    0.00000001    0.00008468
     atom  117 type  2   force =     0.00000000    0.00000000   -0.00441433
     atom  118 type  1   force =    -0.00000000   -0.00000000   -0.00263902
     atom  119 type  1   force =     0.00000000   -0.00000001    0.00260429
     atom  120 type  1   force =    -0.00000000   -0.00000002   -0.00003331
     atom  121 type  2   force =     0.00000000    0.00000000    0.00441245
     atom  122 type  2   force =     0.00000001   -0.00000001   -0.00004795
     atom  123 type  2   force =     0.00000000   -0.00000000   -0.00020162
     atom  124 type  2   force =     0.00000000   -0.00000000    0.00023482
     atom  125 type  2   force =     0.00000001   -0.00000001    0.00008469
     atom  126 type  2   force =     0.00000000    0.00000000   -0.00441434
     atom  127 type  1   force =     0.00000000   -0.00000000   -0.00263902
     atom  128 type  1   force =    -0.00000000   -0.00000000    0.00260428
     atom  129 type  1   force =    -0.00000003    0.00000001   -0.00003332
     atom  130 type  2   force =     0.00000000    0.00000000    0.00441245
     atom  131 type  2   force =    -0.00000000   -0.00000000   -0.00004795
     atom  132 type  2   force =    -0.00000000    0.00000000   -0.00020162
     atom  133 type  2   force =    -0.00000001   -0.00000000    0.00023482
     atom  134 type  2   force =    -0.00000000   -0.00000001    0.00008469
     atom  135 type  2   force =     0.00000000   -0.00000000   -0.00441433
     atom  136 type  1   force =     0.00000001    0.00000001   -0.00263903
     atom  137 type  1   force =    -0.00000001    0.00000000    0.00260429
     atom  138 type  1   force =    -0.00000001    0.00000001   -0.00003332
     atom  139 type  2   force =     0.00000000    0.00000000    0.00441245
     atom  140 type  2   force =    -0.00000001    0.00000001   -0.00004795
     atom  141 type  2   force =     0.00000000    0.00000001   -0.00020163
     atom  142 type  2   force =    -0.00000001    0.00000000    0.00023483
     atom  143 type  2   force =    -0.00000001    0.00000000    0.00008469
     atom  144 type  2   force =     0.00000001    0.00000000   -0.00441433

     Total force =     0.000314     Total SCF correction =     0.000168
     SCF correction compared to forces is large: reduce conv_thr to get better values
     Energy error            =      4.4E-06 Ry
     Gradient error          =      6.4E-05 Ry/Bohr

     bfgs converged in   4 scf cycles and   3 bfgs steps
     (criteria: energy <  1.0E-04 Ry, force <  1.0E-03 Ry/Bohr)

     End of BFGS Geometry Optimization

     Final energy             =  -23845.2249042397 Ry

     File ./outdir/pwscf.bfgs deleted, as requested
Begin final coordinates

ATOMIC_POSITIONS (angstrom)
Mo            1.5768940032        2.7312805631        6.0850343866
Mo            1.5769197498        0.9104407117       -6.0872367793    0   0   0
Mo           -0.0000233445        1.8208669809       -0.0009470481
S             0.0000044503        0.0000077495       -7.6506323570    0   0   0
S             1.5768927757        0.9104377874       -1.5664076215
S            -0.0000207017        1.8208507346        4.5193521109
S             0.0000053241        0.0000068460       -4.5222282367    0   0   0
S             1.5768922396        0.9104368700        1.5662555513
S            -0.0000192510        1.8208503352        7.6539693938
Mo           -0.0000269593        5.4625800512        6.0850349504
Mo            0.0000011799        3.6417399547       -6.0872367793    0   0   0
Mo           -1.5769270739        4.5521531230       -0.0009381365
S            -1.5769141197        2.7313069925       -7.6506323570    0   0   0
S            -0.0000215810        3.6417320970       -1.5664027742
S            -1.5769403614        4.5521473973        4.5193510659
S            -1.5769132459        2.7313060890       -4.5222282367    0   0   0
S            -0.0000214467        3.6417303437        1.5662570089
S            -1.5769405859        4.5521476392        7.6539681659
Mo           -1.5769462962        8.1938794653        6.0850349312
Mo           -1.5769173901        6.3730391977       -6.0872367793    0   0   0
Mo           -3.1538549751        7.2834589383       -0.0009417400
S            -3.1538326896        5.4626062355       -7.6506323570    0   0   0
S            -1.5769393687        6.3730269350       -1.5663925213
S            -3.1538599948        7.2834463591        4.5193507939
S            -3.1538318159        5.4626053320       -4.5222282367    0   0   0
S            -1.5769412425        6.3730281908        1.5662529785
S            -3.1538593942        7.2834457152        7.6539698156
Mo            3.1538114375       -0.0000171003        6.0850365924
Mo           -3.1538359601        9.1043384407       -6.0872367793    0   0   0
Mo           -4.7307896871       10.0147837294       -0.0009469942
S            -4.7307512596        8.1939054785       -7.6506323570    0   0   0
S            -3.1538607715        9.1043306738       -1.5663929214
S            -4.7307744980       10.0147454947        4.5193511772
S            -4.7307503859        8.1939045750       -4.5222282367    0   0   0
S            -3.1538655210        9.1043316960        1.5662483739
S            -4.7307748145       10.0147446340        7.6539676321
Mo            4.7307224729        2.7312807495        6.0850327259
Mo            4.7307503218        0.9104407117       -6.0872367793    0   0   0
Mo            3.1537958906        1.8208723636       -0.0009456604
S             3.1538350223        0.0000077495       -7.6506323570    0   0   0
S             4.7307230907        0.9104342803       -1.5663992515
S             3.1538096374        1.8208495678        4.5193503370
S             3.1538358961        0.0000068460       -4.5222282367    0   0   0
S             4.7307225368        0.9104377585        1.5662530771
S             3.1538098883        1.8208494092        7.6539699956
Mo            3.1538061406        5.4625793351        6.0850340875
Mo            3.1538317519        3.6417399547       -6.0872367793    0   0   0
Mo            1.5768879520        4.5521703481       -0.0009425406
S             1.5769164523        2.7313069925       -7.6506323570    0   0   0
S             3.1538019528        3.6417333563       -1.5664035807
S             1.5768913355        4.5521467790        4.5193514353
S             1.5769173261        2.7313060890       -4.5222282367    0   0   0
S             3.1538024768        3.6417327685        1.5662556465
S             1.5768916335        4.5521469018        7.6539682549
Mo            1.5768849201        8.1938799791        6.0850361581
Mo            1.5769131819        6.3730391977       -6.0872367793    0   0   0
Mo           -0.0000138117        7.2834593190       -0.0009405243
S            -0.0000021176        5.4626062355       -7.6506323570    0   0   0
S             1.5768881234        6.3730290062       -1.5664032417
S            -0.0000286893        7.2834455104        4.5193515191
S            -0.0000012439        5.4626053320       -4.5222282367    0   0   0
S             1.5768896300        6.3730287574        1.5662595446
S            -0.0000283841        7.2834455489        7.6539698173
Mo            6.3076401495       -0.0000179994        6.0850346946
Mo           -0.0000053881        9.1043384407       -6.0872367793    0   0   0
Mo           -1.5769395100       10.0147690765       -0.0009383352
S            -1.5769206876        8.1939054785       -7.6506323570    0   0   0
S            -0.0000297095        9.1043280833       -1.5663987461
S            -1.5769483222       10.0147472265        4.5193483619
S            -1.5769198139        8.1939045750       -4.5222282367    0   0   0
S            -0.0000273373        9.1043301495        1.5662546074
S            -1.5769466686       10.0147454643        7.6539727826
Mo            7.8845545106        2.7312835742        6.0850356724
Mo            7.8845808939        0.9104407117       -6.0872367793    0   0   0
Mo            6.3076423920        1.8208645929       -0.0009468898
S             6.3076655943        0.0000077495       -7.6506323570    0   0   0
S             7.8845577023        0.9104350856       -1.5664053009
S             6.3076389070        1.8208501475        4.5193507588
S             6.3076664681        0.0000068460       -4.5222282367    0   0   0
S             7.8845561385        0.9104347220        1.5662556208
S             6.3076398546        1.8208493045        7.6539687771
Mo            6.3076371532        5.4625806349        6.0850375262
Mo            6.3076623239        3.6417399547       -6.0872367793    0   0   0
Mo            4.7307004013        4.5521643710       -0.0009444785
S             4.7307470244        2.7313069925       -7.6506323570    0   0   0
S             6.3076332968        3.6417343043       -1.5663970520
S             4.7307230102        4.5521470754        4.5193509998
S             4.7307478981        2.7313060890       -4.5222282367    0   0   0
S             6.3076317544        3.6417337908        1.5662504879
S             4.7307222130        4.5521451437        7.6539681640
Mo            4.7307201306        8.1938793169        6.0850352153
Mo            4.7307437539        6.3730391977       -6.0872367793    0   0   0
Mo            3.1537938761        7.2834621111       -0.0009433724
S             3.1538284544        5.4626062355       -7.6506323570    0   0   0
S             4.7307155085        6.3730292381       -1.5664021037
S             3.1538030619        7.2834455507        4.5193516628
S             3.1538293281        5.4626053320       -4.5222282367    0   0   0
S             4.7307167100        6.3730298054        1.5662526739
S             3.1538033893        7.2834450609        7.6539682695
Mo            9.4614730886       -0.0000152585        6.0850373749
Mo            3.1538251839        9.1043384407       -6.0872367793    0   0   0
Mo            1.5768901884       10.0147684087       -0.0009485224
S             1.5769098844        8.1939054785       -7.6506323570    0   0   0
S             3.1538009488        9.1043280880       -1.5664050329
S             1.5768835215       10.0147469608        4.5193498872
S             1.5769107581        8.1939045750       -4.5222282367    0   0   0
S             3.1538000160        9.1043291329        1.5662551005
S             1.5768830454       10.0147469187        7.6539728461
Mo           -1.5769363531        2.7312826278        6.0850343829
Mo           11.0384114659        0.9104407117       -6.0872367793    0   0   0
Mo            9.4614771618        1.8208562479       -0.0009444676
S             9.4614961663        0.0000077495       -7.6506323570    0   0   0
S            11.0383873197        0.9104350036       -1.5664079029
S             9.4614699261        1.8208506249        4.5193524470
S             9.4614970401        0.0000068460       -4.5222282367    0   0   0
S            11.0383882338        0.9104349322        1.5662571620
S             9.4614701778        1.8208514028        7.6539688698
Mo           -3.1538548371        5.4625824522        6.0850334205
Mo            9.4614928959        3.6417399547       -6.0872367793    0   0   0
Mo            7.8845487894        4.5521597617       -0.0009422736
S             7.8845775964        2.7313069925       -7.6506323570    0   0   0
S             9.4614701108        3.6417310217       -1.5663953751
S             7.8845506202        4.5521488753        4.5193506083
S             7.8845784701        2.7313060890       -4.5222282367    0   0   0
S             9.4614675156        3.6417305210        1.5662519447
S             7.8845534191        4.5521482539        7.6539704148
Mo           -4.7307722874        8.1938804471        6.0850344913
Mo            7.8845743259        6.3730391977       -6.0872367793    0   0   0
Mo            6.3076213959        7.2834677727       -0.0009482942
S             6.3076590264        5.4626062355       -7.6506323570    0   0   0
S             7.8845487285        6.3730298581       -1.5663942010
S             6.3076355794        7.2834444566        4.5193523836
S             6.3076599001        5.4626053320       -4.5222282367    0   0   0
S             7.8845453570        6.3730307392        1.5662478831
S             6.3076368181        7.2834451223        7.6539696165
Mo           -0.0000153734       -0.0000163511        6.0850349431
Mo            6.3076557559        9.1043384407       -6.0872367793    0   0   0
Mo            4.7307066983       10.0147739622       -0.0009450354
S             4.7307404564        8.1939054785       -7.6506323570    0   0   0
S             6.3076275330        9.1043314330       -1.5664018173
S             4.7307152859       10.0147468205        4.5193514102
S             4.7307413301        8.1939045750       -4.5222282367    0   0   0
S             6.3076282294        9.1043313762        1.5662500026
S             4.7307156940       10.0147457023        7.6539702304
End final coordinates



     Writing all to output data dir ./outdir/pwscf.save/
 
     init_run     :     65.51s CPU     66.76s WALL (       1 calls)
     electrons    :  17735.46s CPU  17890.95s WALL (       4 calls)
     update_pot   :     10.41s CPU     10.51s WALL (       3 calls)
     forces       :    195.26s CPU    198.72s WALL (       4 calls)
     force_dftd3  :      1.31s CPU      1.38s WALL (       4 calls)

     Called by init_run:
     wfcinit      :     51.46s CPU     52.27s WALL (       1 calls)
     potinit      :      1.47s CPU      1.51s WALL (       1 calls)
     hinit0       :      8.01s CPU      8.05s WALL (       1 calls)

     Called by electrons:
     c_bands      :  16076.00s CPU  16180.23s WALL (      70 calls)
     sum_band     :   1498.94s CPU   1527.04s WALL (      70 calls)
     v_of_rho     :     17.55s CPU     18.64s WALL (      70 calls)
     newd         :    107.19s CPU    128.48s WALL (      70 calls)
     PAW_pot      :     29.29s CPU     29.38s WALL (      73 calls)
     mix_rho      :      4.63s CPU      5.00s WALL (      70 calls)
     energy_dftd3 :      0.73s CPU      0.73s WALL (       4 calls)

     Called by c_bands:
     init_us_2    :     64.56s CPU     64.97s WALL (     592 calls)
     init_us_2:cp :     64.56s CPU     64.97s WALL (     592 calls)
     cegterg      :  15755.33s CPU  15855.53s WALL (     294 calls)

     Called by *egterg:
     cdiaghg      :    526.60s CPU    528.30s WALL (    3148 calls)
     h_psi        :   7508.29s CPU   7557.37s WALL (    3180 calls)
     s_psi        :   1651.89s CPU   1656.56s WALL (    3180 calls)
     g_psi        :     18.09s CPU     18.15s WALL (    2882 calls)

     Called by h_psi:
     h_psi:calbec :   1832.86s CPU   1839.37s WALL (    3180 calls)
     vloc_psi     :   3973.28s CPU   3993.93s WALL (    3180 calls)
     add_vuspsi   :   1669.75s CPU   1678.34s WALL (    3180 calls)

     General routines
     calbec       :   2450.85s CPU   2459.38s WALL (    3536 calls)
     fft          :     55.13s CPU     57.01s WALL (     953 calls)
     ffts         :      0.70s CPU      0.83s WALL (     140 calls)
     fftw         :   3314.12s CPU   3330.94s WALL ( 1697914 calls)
     interpolate  :      1.42s CPU      1.61s WALL (      70 calls)
 
     Parallel routines
 
     PWSCF        :      5h 1m CPU      5h 5m WALL

 
   This run was terminated on:  13:40:48   4Aug2023            

=------------------------------------------------------------------------------=
   JOB DONE.
=------------------------------------------------------------------------------=
