
     Program PWSCF v.7.3 starts on  9Mar2024 at 11:30:22 

     This program is part of the open-source Quantum ESPRESSO suite
     for quantum simulation of materials; please cite
         "P. Giannozzi et al., J. Phys.:Condens. Matter 21 395502 (2009);
         "P. Giannozzi et al., J. Phys.:Condens. Matter 29 465901 (2017);
         "P. Giannozzi et al., J. Chem. Phys. 152 154105 (2020);
          URL http://www.quantum-espresso.org", 
     in publications or presentations arising from this work. More details at
     http://www.quantum-espresso.org/quote

     Parallel version (MPI & OpenMP), running on      36 processor cores
     Number of MPI processes:                36
     Threads/MPI process:                     1

     MPI processes distributed on     1 nodes
     561068 MiB available memory on the printing compute node when the environment starts
 
     Waiting for input...
     Reading input from standard input
Warning: card &CELL ignored
Warning: card / ignored

     Current dimensions of program PWSCF are:
     Max number of different atomic species (ntypx) = 10
     Max number of k-points (npk) =  40000
     Max angular momentum in pseudopotentials (lmaxx) =  4
     file Mo.pbe-spn-kjpaw_psl.1.0.0.UPF: wavefunction(s)  4S 4D renormalized
     file S.pbe-n-kjpaw_psl.1.0.0.UPF: wavefunction(s)  3S 3P renormalized
     file Pt.pbe-spfn-kjpaw_psl.1.0.0.UPF: wavefunction(s)  5P 4F renormalized
     file Pd.pbe-spn-kjpaw_psl.1.0.0.UPF: wavefunction(s)  4S 5S 4D renormalized
 
     R & G space division:  proc/nbgrp/npool/nimage =      36
     Subspace diagonalization in iterative solution of the eigenvalue problem:
     one sub-group per band group will be used
     scalapack distributed-memory algorithm (size of sub-group:  6*  6 procs)

 
     Parallelization info
     --------------------
     sticks:   dense  smooth     PW     G-vecs:    dense   smooth      PW
     Min         586     335     89               165416    71459    9765
     Max         587     337     90               165425    71461    9778
     Sum       21109   12085   3205              5955087  2572543  351657
 
     Using Slab Decomposition
 


     bravais-lattice index     =            0
     lattice parameter (alat)  =      23.8395  a.u.
     unit-cell volume          =   28182.8498 (a.u.)^3
     number of atoms/cell      =          146
     number of atomic types    =            4
     number of electrons       =      1298.00
     number of Kohn-Sham states=          779
     kinetic-energy cutoff     =      77.0000  Ry
     charge density cutoff     =     539.0000  Ry
     scf convergence threshold =      1.0E-06
     mixing beta               =       0.2000
     number of iterations used =            8  plain     mixing
     energy convergence thresh.=      1.0E-04
     force convergence thresh. =      1.0E-03
     Exchange-correlation= SLA  PW   PBX  PBC
                           (   1   4   3   4   0   0   0)
     nstep                     =         1000


     Effective Screening Medium Method
     =================================
     Boundary Conditions: Vacuum-Slab-Vacuum
     total charge in unit cell        =   0.0000
     grid points for fit at edges     =        4 
 

     celldm(1)=  23.839504  celldm(2)=   0.000000  celldm(3)=   0.000000
     celldm(4)=   0.000000  celldm(5)=   0.000000  celldm(6)=   0.000000

     crystal axes: (cart. coord. in units of alat)
               a(1) = (   1.000000   0.000000   0.000000 )  
               a(2) = (  -0.500001   0.866026   0.000000 )  
               a(3) = (   0.000000   0.000000   2.401941 )  

     reciprocal axes: (cart. coord. in units 2 pi/alat)
               b(1) = (  1.000000  0.577351  0.000000 )  
               b(2) = (  0.000000  1.154700  0.000000 )  
               b(3) = (  0.000000  0.000000  0.416330 )  


     PseudoPot. # 1 for Mo read from file:
     ./pseudo/Mo.pbe-spn-kjpaw_psl.1.0.0.UPF
     MD5 check sum: 317bf72632116215fd98f72de1686f13
     Pseudo is Projector augmented-wave + core cor, Zval = 14.0
     Generated using 'atomic' code by A. Dal Corso  v.7.2
     Shape of augmentation charge: PSQ
     Using radial grid of 1229 points,  6 beta functions with: 
                l(1) =   0
                l(2) =   0
                l(3) =   1
                l(4) =   1
                l(5) =   2
                l(6) =   2
     Q(r) pseudized with 0 coefficients 


     PseudoPot. # 2 for S  read from file:
     ./pseudo/S.pbe-n-kjpaw_psl.1.0.0.UPF
     MD5 check sum: 8b7b5302570d38d5e87fed6a1065abda
     Pseudo is Projector augmented-wave + core cor, Zval =  6.0
     Generated using 'atomic' code by A. Dal Corso  v.7.2
     Shape of augmentation charge: PSQ
     Using radial grid of 1151 points,  6 beta functions with: 
                l(1) =   0
                l(2) =   0
                l(3) =   1
                l(4) =   1
                l(5) =   2
                l(6) =   2
     Q(r) pseudized with 0 coefficients 


     PseudoPot. # 3 for Pt read from file:
     ./pseudo/Pt.pbe-spfn-kjpaw_psl.1.0.0.UPF
     MD5 check sum: 620096ebf4e6ebacc94de60fd67efcb5
     Pseudo is Projector augmented-wave + core cor, Zval = 32.0
     Generated using 'atomic' code by A. Dal Corso  v.7.2
     Shape of augmentation charge: PSQ
     Using radial grid of 1277 points,  8 beta functions with: 
                l(1) =   0
                l(2) =   0
                l(3) =   1
                l(4) =   1
                l(5) =   2
                l(6) =   2
                l(7) =   3
                l(8) =   3
     Q(r) pseudized with 0 coefficients 


     PseudoPot. # 4 for Pd read from file:
     ./pseudo/Pd.pbe-spn-kjpaw_psl.1.0.0.UPF
     MD5 check sum: a60571a671f2502b8a6a4569d20a6edb
     Pseudo is Projector augmented-wave + core cor, Zval = 18.0
     Generated using 'atomic' code by A. Dal Corso  v.7.2
     Shape of augmentation charge: PSQ
     Using radial grid of 1235 points,  6 beta functions with: 
                l(1) =   0
                l(2) =   0
                l(3) =   1
                l(4) =   1
                l(5) =   2
                l(6) =   2
     Q(r) pseudized with 0 coefficients 


     atomic species   valence    mass     pseudopotential
     Mo               14.00    95.95000     Mo( 1.00)
     S                 6.00    32.06000     S ( 1.00)
     Pt               32.00   195.08400     Pt( 1.00)
     Pd               18.00   106.42000     Pd( 1.00)

     No symmetry found



   Cartesian axes

     site n.     atom                  positions (alat units)
         1        Mo     tau(   1) = (   0.1245066   0.2151403   0.4829270  )
         2        Mo     tau(   2) = (   0.1250004   0.0721694  -0.4825273  )
         3        Mo     tau(   3) = (   0.0000143   0.1443586  -0.0000404  )
         4        S      tau(   4) = (   0.0000004   0.0000006  -0.6064556  )
         5        S      tau(   5) = (   0.1249859   0.0722111  -0.1241825  )
         6        S      tau(   6) = (   0.0002990   0.1445714   0.3572522  )
         7        S      tau(   7) = (   0.0000004   0.0000005  -0.3584711  )
         8        S      tau(   8) = (   0.1250243   0.0721377   0.1241202  )
         9        S      tau(   9) = (  -0.0011552   0.1430195   0.6061730  )
        10        Mo     tau(  10) = (  -0.0014303   0.4332690   0.4829269  )
        11        Mo     tau(  11) = (   0.0000001   0.2886759  -0.4825273  )
        12        Mo     tau(  12) = (  -0.1249759   0.3608474  -0.0000404  )
        13        S      tau(  13) = (  -0.1249999   0.2165071  -0.6064556  )
        14        S      tau(  14) = (   0.0000250   0.2886908  -0.1241273  )
        15        S      tau(  15) = (  -0.1246483   0.3609863   0.3572522  )
        16        S      tau(  16) = (  -0.1249998   0.2165070  -0.3584711  )
        17        S      tau(  17) = (   0.0000923   0.2887297   0.1242244  )
        18        S      tau(  18) = (  -0.1267194   0.3605027   0.6061730  )
        19        Mo     tau(  19) = (  -0.1251617   0.6496109   0.4820319  )
        20        Mo     tau(  20) = (  -0.1250002   0.5051824  -0.4825273  )
        21        Mo     tau(  21) = (  -0.2500022   0.5773395  -0.0001503  )
        22        S      tau(  22) = (  -0.2500002   0.4330136  -0.6064556  )
        23        S      tau(  23) = (  -0.1249718   0.5051500  -0.1241823  )
        24        S      tau(  24) = (  -0.2500018   0.5776353   0.3574746  )
        25        S      tau(  25) = (  -0.2500001   0.4330135  -0.3584711  )
        26        S      tau(  26) = (  -0.1250162   0.5052198   0.1241203  )
        27        S      tau(  27) = (  -0.2500018   0.5771316   0.6060170  )
        28        Mo     tau(  28) = (   0.2499988  -0.0001852   0.4820322  )
        29        Mo     tau(  29) = (  -0.2500004   0.7216889  -0.4825273  )
        30        Mo     tau(  30) = (  -0.3750121   0.7938628  -0.0001504  )
        31        S      tau(  31) = (  -0.3750004   0.6495201  -0.6064556  )
        32        S      tau(  32) = (  -0.2500022   0.7216884  -0.1242395  )
        33        S      tau(  33) = (  -0.3747547   0.7937137   0.3574746  )
        34        S      tau(  34) = (  -0.3750004   0.6495200  -0.3584711  )
        35        S      tau(  35) = (  -0.2500023   0.7216883   0.1240244  )
        36        S      tau(  36) = (  -0.3751912   0.7939655   0.6060169  )
        37        Mo     tau(  37) = (   0.3754907   0.2151405   0.4829271  )
        38        Mo     tau(  38) = (   0.3750004   0.0721694  -0.4825273  )
        39        Mo     tau(  39) = (   0.2499984   0.1443573  -0.0000731  )
        40        S      tau(  40) = (   0.2500004   0.0000006  -0.6064556  )
        41        S      tau(  41) = (   0.3750112   0.0722112  -0.1241824  )
        42        S      tau(  42) = (   0.2499987   0.1444686   0.3583292  )
        43        S      tau(  43) = (   0.2500004   0.0000005  -0.3584711  )
        44        S      tau(  44) = (   0.3749727   0.0721378   0.1241202  )
        45        S      tau(  45) = (   0.2499989   0.1436262   0.6067914  )
        46        Mo     tau(  46) = (   0.2499982   0.4330120   0.4873213  )
        47        Mo     tau(  47) = (   0.2500001   0.2886759  -0.4825273  )
        48        Mo     tau(  48) = (   0.1250313   0.3608632  -0.0000369  )
        49        S      tau(  49) = (   0.1250001   0.2165071  -0.6064556  )
        50        S      tau(  50) = (   0.2499984   0.2886902  -0.1241509  )
        51        S      tau(  51) = (   0.1269276   0.3619573   0.3622727  )
        52        S      tau(  52) = (   0.1250002   0.2165070  -0.3584711  )
        53        S      tau(  53) = (   0.2499983   0.2886817   0.1242427  )
        54        S      tau(  54) = (   0.1143670   0.3547054   0.6129634  )
        55        Mo     tau(  55) = (   0.1240620   0.6506275   0.4829270  )
        56        Mo     tau(  56) = (   0.1249998   0.5051824  -0.4825273  )
        57        Mo     tau(  57) = (   0.0000150   0.5773409  -0.0000731  )
        58        S      tau(  58) = (  -0.0000002   0.4330136  -0.6064556  )
        59        S      tau(  59) = (   0.1250108   0.5051746  -0.1241509  )
        60        S      tau(  60) = (   0.0001121   0.5772840   0.3583290  )
        61        S      tau(  61) = (  -0.0000001   0.4330135  -0.3584711  )
        62        S      tau(  62) = (   0.1250034   0.5051788   0.1242428  )
        63        S      tau(  63) = (  -0.0006172   0.5777056   0.6067911  )
        64        Mo     tau(  64) = (   0.5000733   0.0000423   0.4811256  )
        65        Mo     tau(  65) = (  -0.0000004   0.7216889  -0.4825273  )
        66        Mo     tau(  66) = (  -0.1249927   0.7938628  -0.0001503  )
        67        S      tau(  67) = (  -0.1250004   0.6495201  -0.6064556  )
        68        S      tau(  68) = (   0.0000406   0.7216783  -0.1241824  )
        69        S      tau(  69) = (  -0.1252496   0.7937135   0.3574746  )
        70        S      tau(  70) = (  -0.1250004   0.6495200  -0.3584711  )
        71        S      tau(  71) = (  -0.0000422   0.7216817   0.1241204  )
        72        S      tau(  72) = (  -0.1248129   0.7939655   0.6060170  )
        73        Mo     tau(  73) = (   0.6251034   0.2164454   0.4813717  )
        74        Mo     tau(  74) = (   0.6250004   0.0721694  -0.4825273  )
        75        Mo     tau(  75) = (   0.4999826   0.1443587  -0.0000403  )
        76        S      tau(  76) = (   0.5000004   0.0000006  -0.6064556  )
        77        S      tau(  77) = (   0.6249765   0.0721563  -0.1241436  )
        78        S      tau(  78) = (   0.4996985   0.1445712   0.3572516  )
        79        S      tau(  79) = (   0.5000004   0.0000005  -0.3584711  )
        80        S      tau(  80) = (   0.6250052   0.0721729   0.1241442  )
        81        S      tau(  81) = (   0.5011529   0.1430194   0.6061729  )
        82        Mo     tau(  82) = (   0.5014272   0.4332689   0.4829269  )
        83        Mo     tau(  83) = (   0.5000001   0.2886759  -0.4825273  )
        84        Mo     tau(  84) = (   0.3749652   0.3608633  -0.0000370  )
        85        S      tau(  85) = (   0.3750001   0.2165071  -0.6064556  )
        86        S      tau(  86) = (   0.4999715   0.2886908  -0.1241272  )
        87        S      tau(  87) = (   0.3730698   0.3619571   0.3622724  )
        88        S      tau(  88) = (   0.3750002   0.2165070  -0.3584711  )
        89        S      tau(  89) = (   0.4999043   0.2887298   0.1242243  )
        90        S      tau(  90) = (   0.3856284   0.3547066   0.6129638  )
        91        Mo     tau(  91) = (   0.3759345   0.6506277   0.4829270  )
        92        Mo     tau(  92) = (   0.3749998   0.5051824  -0.4825273  )
        93        Mo     tau(  93) = (   0.2499980   0.5773127  -0.0000370  )
        94        S      tau(  94) = (   0.2499998   0.4330136  -0.6064556  )
        95        S      tau(  95) = (   0.3749852   0.5051745  -0.1241508  )
        96        S      tau(  96) = (   0.2499983   0.5751230   0.3622722  )
        97        S      tau(  97) = (   0.2499999   0.4330135  -0.3584711  )
        98        S      tau(  98) = (   0.3749925   0.5051788   0.1242430  )
        99        S      tau(  99) = (   0.2499985   0.5896211   0.6129642  )
       100        Mo     tau( 100) = (   0.7499990   0.0001203   0.4813716  )
       101        Mo     tau( 101) = (   0.2499996   0.7216889  -0.4825273  )
       102        Mo     tau( 102) = (   0.1250080   0.7938333  -0.0000403  )
       103        S      tau( 103) = (   0.1249996   0.6495201  -0.6064556  )
       104        S      tau( 104) = (   0.2499977   0.7216576  -0.1241273  )
       105        S      tau( 105) = (   0.1250507   0.7934796   0.3572514  )
       106        S      tau( 106) = (   0.1249996   0.6495200  -0.3584711  )
       107        S      tau( 107) = (   0.2499978   0.7215798   0.1242243  )
       108        S      tau( 108) = (   0.1244341   0.7955149   0.6061727  )
       109        Mo     tau( 109) = (  -0.1251058   0.2164455   0.4813720  )
       110        Mo     tau( 110) = (   0.8750004   0.0721694  -0.4825273  )
       111        Mo     tau( 111) = (   0.7499984   0.1443377  -0.0000951  )
       112        S      tau( 112) = (   0.7500004   0.0000006  -0.6064556  )
       113        S      tau( 113) = (   0.8750204   0.0721563  -0.1241436  )
       114        S      tau( 114) = (   0.7499989   0.1443372   0.3571897  )
       115        S      tau( 115) = (   0.7500004   0.0000005  -0.3584711  )
       116        S      tau( 116) = (   0.8749917   0.0721728   0.1241442  )
       117        S      tau( 117) = (   0.7499986   0.1443371   0.6056765  )
       118        Mo     tau( 118) = (  -0.2500015   0.4329261   0.4811261  )
       119        Mo     tau( 119) = (   0.7500001   0.2886759  -0.4825273  )
       120        Mo     tau( 120) = (   0.6249722   0.3608476  -0.0000403  )
       121        S      tau( 121) = (   0.6250001   0.2165071  -0.6064556  )
       122        S      tau( 122) = (   0.7499981   0.2887008  -0.1241435  )
       123        S      tau( 123) = (   0.6246456   0.3609863   0.3572519  )
       124        S      tau( 124) = (   0.6250002   0.2165070  -0.3584711  )
       125        S      tau( 125) = (   0.7499982   0.2886677   0.1241441  )
       126        S      tau( 126) = (   0.6267164   0.3605023   0.6061731  )
       127        Mo     tau( 127) = (  -0.3748420   0.6496111   0.4820319  )
       128        Mo     tau( 128) = (   0.6249998   0.5051824  -0.4825273  )
       129        Mo     tau( 129) = (   0.4999808   0.5773409  -0.0000733  )
       130        S      tau( 130) = (   0.4999998   0.4330136  -0.6064556  )
       131        S      tau( 131) = (   0.6249676   0.5051499  -0.1241823  )
       132        S      tau( 132) = (   0.4998845   0.5772841   0.3583289  )
       133        S      tau( 133) = (   0.4999999   0.4330135  -0.3584711  )
       134        S      tau( 134) = (   0.6250119   0.5052197   0.1241202  )
       135        S      tau( 135) = (   0.5006138   0.5777054   0.6067911  )
       136        Mo     tau( 136) = (  -0.0000756   0.0000425   0.4811258  )
       137        Mo     tau( 137) = (   0.4999996   0.7216889  -0.4825273  )
       138        Mo     tau( 138) = (   0.3749875   0.7938333  -0.0000404  )
       139        S      tau( 139) = (   0.3749996   0.6495201  -0.6064556  )
       140        S      tau( 140) = (   0.4999549   0.7216781  -0.1241825  )
       141        S      tau( 141) = (   0.3749453   0.7934797   0.3572516  )
       142        S      tau( 142) = (   0.3749996   0.6495200  -0.3584711  )
       143        S      tau( 143) = (   0.5000375   0.7216816   0.1241203  )
       144        S      tau( 144) = (   0.3755618   0.7955149   0.6061729  )
       145        Pt     tau( 145) = (   0.2499972   0.4330095   0.7045710  )
       146        Pd     tau( 146) = (   0.7499610   0.0001585   0.7325219  )

     --------------------------------------------
     DFT-D3 Dispersion Correction (3-body terms):
     --------------------------------------------
       Reference C6 values for interpolation: 

         atom   Coordination number   C6
         S          0.000           268.01
         S          0.995           261.99
         S          1.990           251.62
         Mo         0.000          1691.79
         Mo         1.942          1004.01
         Mo        11.056           674.22
         Pd         0.000          1217.01
         Pd         1.863           573.90
         Pd         5.710           531.75
         Pt         0.000           782.29
         Pt         1.919           692.72
         Pt         6.667           673.75

       Values used:

         atom   Coordination number  R0_AB[au]  C6      C8
         Mo        10.173            3.547    674.22  77634.20
         Mo        10.189            3.547    674.22  77634.20
         Mo        10.200            3.547    674.22  77634.20
         S          3.753            3.128    251.62  12327.25
         S          3.858            3.128    251.62  12327.25
         S          3.846            3.128    251.62  12327.25
         S          3.859            3.128    251.62  12327.25
         S          3.860            3.128    251.62  12327.25
         S          3.830            3.128    251.62  12327.25
         Mo        10.173            3.547    674.22  77634.20
         Mo        10.189            3.547    674.22  77634.20
         Mo        10.200            3.547    674.22  77634.20
         S          3.753            3.128    251.62  12327.25
         S          3.859            3.128    251.62  12327.25
         S          3.845            3.128    251.62  12327.25
         S          3.858            3.128    251.62  12327.25
         S          3.855            3.128    251.62  12327.25
         S          3.822            3.128    251.62  12327.25
         Mo        10.217            3.547    674.22  77634.20
         Mo        10.189            3.547    674.22  77634.20
         Mo        10.200            3.547    674.22  77634.20
         S          3.753            3.128    251.62  12327.25
         S          3.858            3.128    251.62  12327.25
         S          3.861            3.128    251.62  12327.25
         S          3.859            3.128    251.62  12327.25
         S          3.860            3.128    251.62  12327.25
         S          3.762            3.128    251.62  12327.25
         Mo        10.217            3.547    674.22  77634.20
         Mo        10.189            3.547    674.22  77634.20
         Mo        10.200            3.547    674.22  77634.20
         S          3.753            3.128    251.62  12327.25
         S          3.858            3.128    251.62  12327.25
         S          3.861            3.128    251.62  12327.25
         S          3.859            3.128    251.62  12327.25
         S          3.863            3.128    251.62  12327.25
         S          3.763            3.128    251.62  12327.25
         Mo        10.173            3.547    674.22  77634.20
         Mo        10.189            3.547    674.22  77634.20
         Mo        10.202            3.547    674.22  77634.20
         S          3.753            3.128    251.62  12327.25
         S          3.858            3.128    251.62  12327.25
         S          3.858            3.128    251.62  12327.25
         S          3.859            3.128    251.62  12327.25
         S          3.860            3.128    251.62  12327.25
         S          3.752            3.128    251.62  12327.25
         Mo        10.888            3.547    674.22  77634.20
         Mo        10.189            3.547    674.22  77634.20
         Mo        10.203            3.547    674.22  77634.20
         S          3.753            3.128    251.62  12327.25
         S          3.859            3.128    251.62  12327.25
         S          3.864            3.128    251.62  12327.25
         S          3.859            3.128    251.62  12327.25
         S          3.851            3.128    251.62  12327.25
         S          4.653            3.128    251.62  12327.25
         Mo        10.180            3.547    674.22  77634.20
         Mo        10.189            3.547    674.22  77634.20
         Mo        10.201            3.547    674.22  77634.20
         S          3.753            3.128    251.62  12327.25
         S          3.859            3.128    251.62  12327.25
         S          3.858            3.128    251.62  12327.25
         S          3.859            3.128    251.62  12327.25
         S          3.851            3.128    251.62  12327.25
         S          3.752            3.128    251.62  12327.25
         Mo        10.237            3.547    674.22  77634.20
         Mo        10.189            3.547    674.22  77634.20
         Mo        10.200            3.547    674.22  77634.20
         S          3.753            3.128    251.62  12327.25
         S          3.858            3.128    251.62  12327.25
         S          3.861            3.128    251.62  12327.25
         S          3.859            3.128    251.62  12327.25
         S          3.860            3.128    251.62  12327.25
         S          3.763            3.128    251.62  12327.25
         Mo        10.222            3.547    674.22  77634.20
         Mo        10.189            3.547    674.22  77634.20
         Mo        10.200            3.547    674.22  77634.20
         S          3.753            3.128    251.62  12327.25
         S          3.858            3.128    251.62  12327.25
         S          3.846            3.128    251.62  12327.25
         S          3.859            3.128    251.62  12327.25
         S          3.860            3.128    251.62  12327.25
         S          3.830            3.128    251.62  12327.25
         Mo        10.173            3.547    674.22  77634.20
         Mo        10.189            3.547    674.22  77634.20
         Mo        10.203            3.547    674.21  77634.20
         S          3.753            3.128    251.62  12327.25
         S          3.859            3.128    251.62  12327.25
         S          3.864            3.128    251.62  12327.25
         S          3.859            3.128    251.62  12327.25
         S          3.855            3.128    251.62  12327.25
         S          4.653            3.128    251.62  12327.25
         Mo        10.180            3.547    674.22  77634.20
         Mo        10.189            3.547    674.22  77634.20
         Mo        10.203            3.547    674.22  77634.20
         S          3.753            3.128    251.62  12327.25
         S          3.859            3.128    251.62  12327.25
         S          3.865            3.128    251.62  12327.25
         S          3.859            3.128    251.62  12327.25
         S          3.851            3.128    251.62  12327.25
         S          4.668            3.128    251.62  12327.25
         Mo        10.622            3.547    674.22  77634.20
         Mo        10.189            3.547    674.22  77634.20
         Mo        10.200            3.547    674.22  77634.20
         S          3.753            3.128    251.62  12327.25
         S          3.859            3.128    251.62  12327.25
         S          3.846            3.128    251.62  12327.25
         S          3.859            3.128    251.62  12327.25
         S          3.855            3.128    251.62  12327.25
         S          4.747            3.128    251.62  12327.25
         Mo        10.222            3.547    674.22  77634.20
         Mo        10.189            3.547    674.22  77634.20
         Mo        10.200            3.547    674.22  77634.20
         S          3.753            3.128    251.62  12327.25
         S          3.858            3.128    251.62  12327.25
         S          3.854            3.128    251.62  12327.25
         S          3.858            3.128    251.62  12327.25
         S          3.860            3.128    251.62  12327.25
         S          4.709            3.128    251.62  12327.25
         Mo        10.230            3.547    674.22  77634.20
         Mo        10.189            3.547    674.22  77634.20
         Mo        10.200            3.547    674.22  77634.20
         S          3.753            3.128    251.62  12327.25
         S          3.858            3.128    251.62  12327.25
         S          3.845            3.128    251.62  12327.25
         S          3.858            3.128    251.62  12327.25
         S          3.860            3.128    251.62  12327.25
         S          3.822            3.128    251.62  12327.25
         Mo        10.217            3.547    674.22  77634.20
         Mo        10.189            3.547    674.22  77634.20
         Mo        10.202            3.547    674.22  77634.20
         S          3.753            3.128    251.62  12327.25
         S          3.858            3.128    251.62  12327.25
         S          3.858            3.128    251.62  12327.25
         S          3.859            3.128    251.62  12327.25
         S          3.860            3.128    251.62  12327.25
         S          3.752            3.128    251.62  12327.25
         Mo        10.237            3.547    674.22  77634.20
         Mo        10.189            3.547    674.22  77634.20
         Mo        10.201            3.547    674.22  77634.20
         S          3.753            3.128    251.62  12327.25
         S          3.858            3.128    251.62  12327.25
         S          3.846            3.128    251.62  12327.25
         S          3.859            3.128    251.62  12327.25
         S          3.860            3.128    251.62  12327.25
         S          4.747            3.128    251.62  12327.25
         Pt         4.026            3.168    692.72  72035.17
         Pd         3.276            3.168    573.90  52583.08

         Molecular C6 ( Ry / a.u.^6 ) =   7937607.69


     number of k points=     4  Gaussian smearing, width (Ry)=  0.0100
                       cart. coord. in units 2pi/alat
        k(    1) = (   0.0000000   0.0000000   0.0000000), wk =   0.5000000
        k(    2) = (   0.0000000  -0.5773499   0.0000000), wk =   0.5000000
        k(    3) = (  -0.5000000  -0.2886755   0.0000000), wk =   0.5000000
        k(    4) = (  -0.5000000  -0.8660254   0.0000000), wk =   0.5000000

     Dense  grid:  5955087 G-vectors     FFT dimensions: ( 180, 180, 432)

     Smooth grid:  2572543 G-vectors     FFT dimensions: ( 135, 135, 320)

     Estimated max dynamical RAM per process >       3.07 GB

     Estimated total dynamical RAM >     110.53 GB

     Initial potential from superposition of free atoms

     starting charge    1297.9541, renormalised to    1298.0000

     negative rho (up, down):  9.030E-04 0.000E+00
     Starting wfcs are  891 randomized atomic wfcs
     Checking if some PAW data can be deallocated... 

     total cpu time spent up to now is      100.4 secs

     Self-consistent Calculation

     iteration #  1     ecut=    77.00 Ry     beta= 0.20
     Davidson diagonalization with overlap
     ethr =  1.00E-02,  avg # of iterations =  2.0

     Threshold (ethr) on eigenvalues was too large:
     Diagonalizing with lowered threshold

     Davidson diagonalization with overlap
     ethr =  1.80E-04,  avg # of iterations = 13.5

     negative rho (up, down):  2.818E-04 0.000E+00

     total cpu time spent up to now is     1147.7 secs

     total energy              =  -26031.70337748 Ry
     estimated scf accuracy    <       5.13623672 Ry

     iteration #  2     ecut=    77.00 Ry     beta= 0.20
     Davidson diagonalization with overlap
     ethr =  3.96E-04,  avg # of iterations =  6.0

     negative rho (up, down):  4.308E-05 0.000E+00

     total cpu time spent up to now is     1379.0 secs

     total energy              =  -26030.73602656 Ry
     estimated scf accuracy    <       2.61157865 Ry

     iteration #  3     ecut=    77.00 Ry     beta= 0.20
     Davidson diagonalization with overlap
     ethr =  2.01E-04,  avg # of iterations = 13.0

     negative rho (up, down):  3.390E-05 0.000E+00

     total cpu time spent up to now is     1654.2 secs

     total energy              =  -26030.94524733 Ry
     estimated scf accuracy    <       1.15256131 Ry

     iteration #  4     ecut=    77.00 Ry     beta= 0.20
     Davidson diagonalization with overlap
     c_bands:  1 eigenvalues not converged
     c_bands:  1 eigenvalues not converged
     c_bands:  1 eigenvalues not converged
     ethr =  8.88E-05,  avg # of iterations = 20.0

     negative rho (up, down):  3.383E-05 0.000E+00

     total cpu time spent up to now is     2112.4 secs

     total energy              =  -26031.54442181 Ry
     estimated scf accuracy    <       0.37968913 Ry

     iteration #  5     ecut=    77.00 Ry     beta= 0.20
     Davidson diagonalization with overlap
     c_bands:  3 eigenvalues not converged
     ethr =  2.93E-05,  avg # of iterations = 21.2

     negative rho (up, down):  5.544E-05 0.000E+00

     total cpu time spent up to now is     2582.9 secs

     total energy              =  -26031.72093440 Ry
     estimated scf accuracy    <       0.19266034 Ry

     iteration #  6     ecut=    77.00 Ry     beta= 0.20
     Davidson diagonalization with overlap
     c_bands:  5 eigenvalues not converged
     c_bands:  1 eigenvalues not converged
     ethr =  1.48E-05,  avg # of iterations = 31.5

     negative rho (up, down):  1.391E-04 0.000E+00

     total cpu time spent up to now is     3065.4 secs

     total energy              =  -26031.73895008 Ry
     estimated scf accuracy    <       0.12989763 Ry

     iteration #  7     ecut=    77.00 Ry     beta= 0.20
     Davidson diagonalization with overlap
     c_bands:  4 eigenvalues not converged
     ethr =  1.00E-05,  avg # of iterations = 25.8

     negative rho (up, down):  4.740E-04 0.000E+00

     total cpu time spent up to now is     3444.5 secs

     total energy              =  -26031.73791641 Ry
     estimated scf accuracy    <       0.06290096 Ry

     iteration #  8     ecut=    77.00 Ry     beta= 0.20
     Davidson diagonalization with overlap
     c_bands:  1 eigenvalues not converged
     ethr =  4.85E-06,  avg # of iterations = 23.0

     negative rho (up, down):  7.423E-04 0.000E+00

     total cpu time spent up to now is     3955.3 secs

     total energy              =  -26031.76974843 Ry
     estimated scf accuracy    <       0.04031747 Ry

     iteration #  9     ecut=    77.00 Ry     beta= 0.20
     Davidson diagonalization with overlap
     c_bands:  1 eigenvalues not converged
     ethr =  3.11E-06,  avg # of iterations = 11.0

     negative rho (up, down):  5.724E-04 0.000E+00

     total cpu time spent up to now is     4208.4 secs

     total energy              =  -26031.76272710 Ry
     estimated scf accuracy    <       0.01790666 Ry

     iteration # 10     ecut=    77.00 Ry     beta= 0.20
     Davidson diagonalization with overlap
     c_bands:  3 eigenvalues not converged
     c_bands:  4 eigenvalues not converged
     c_bands:  4 eigenvalues not converged
     ethr =  1.38E-06,  avg # of iterations = 38.2

     negative rho (up, down):  6.031E-04 0.000E+00

     total cpu time spent up to now is     4878.2 secs

     total energy              =  -26031.77569467 Ry
     estimated scf accuracy    <       0.00313983 Ry

     iteration # 11     ecut=    77.00 Ry     beta= 0.20
     Davidson diagonalization with overlap
     c_bands:  1 eigenvalues not converged
     ethr =  2.42E-07,  avg # of iterations = 14.8

     negative rho (up, down):  6.439E-04 0.000E+00

     total cpu time spent up to now is     5474.1 secs

     total energy              =  -26031.77955878 Ry
     estimated scf accuracy    <       0.00443888 Ry

     iteration # 12     ecut=    77.00 Ry     beta= 0.20
     Davidson diagonalization with overlap
     ethr =  2.42E-07,  avg # of iterations =  1.2

     negative rho (up, down):  8.865E-04 0.000E+00

     total cpu time spent up to now is     5681.3 secs

     total energy              =  -26031.77800970 Ry
     estimated scf accuracy    <       0.00257573 Ry

     iteration # 13     ecut=    77.00 Ry     beta= 0.20
     Davidson diagonalization with overlap
     ethr =  1.98E-07,  avg # of iterations =  9.2

     negative rho (up, down):  8.361E-04 0.000E+00

     total cpu time spent up to now is     6137.1 secs

     total energy              =  -26031.77980425 Ry
     estimated scf accuracy    <       0.00243918 Ry

     iteration # 14     ecut=    77.00 Ry     beta= 0.20
     Davidson diagonalization with overlap
     ethr =  1.88E-07,  avg # of iterations =  1.0

     negative rho (up, down):  8.322E-04 0.000E+00

     total cpu time spent up to now is     6338.4 secs

     total energy              =  -26031.77943132 Ry
     estimated scf accuracy    <       0.00097638 Ry

     iteration # 15     ecut=    77.00 Ry     beta= 0.20
     Davidson diagonalization with overlap
     ethr =  7.52E-08,  avg # of iterations =  9.2

     negative rho (up, down):  8.754E-04 0.000E+00

     total cpu time spent up to now is     6601.6 secs

     total energy              =  -26031.77950080 Ry
     estimated scf accuracy    <       0.00018145 Ry

     iteration # 16     ecut=    77.00 Ry     beta= 0.20
     Davidson diagonalization with overlap
     c_bands:  1 eigenvalues not converged
     c_bands:  3 eigenvalues not converged
     c_bands:  2 eigenvalues not converged
     ethr =  1.40E-08,  avg # of iterations = 24.2

     negative rho (up, down):  8.719E-04 0.000E+00

     total cpu time spent up to now is     7313.9 secs

     total energy              =  -26031.77992158 Ry
     estimated scf accuracy    <       0.00020458 Ry

     iteration # 17     ecut=    77.00 Ry     beta= 0.20
     Davidson diagonalization with overlap
     c_bands:  1 eigenvalues not converged
     ethr =  1.40E-08,  avg # of iterations =  6.2

     negative rho (up, down):  9.019E-04 0.000E+00

     total cpu time spent up to now is     7536.5 secs

     total energy              =  -26031.77984307 Ry
     estimated scf accuracy    <       0.00010826 Ry

     iteration # 18     ecut=    77.00 Ry     beta= 0.20
     Davidson diagonalization with overlap
     ethr =  8.34E-09,  avg # of iterations = 14.0

     negative rho (up, down):  9.179E-04 0.000E+00

     total cpu time spent up to now is     8001.4 secs

     total energy              =  -26031.77991872 Ry
     estimated scf accuracy    <       0.00007242 Ry

     iteration # 19     ecut=    77.00 Ry     beta= 0.20
     Davidson diagonalization with overlap
     ethr =  5.58E-09,  avg # of iterations =  2.8

     negative rho (up, down):  9.122E-04 0.000E+00

     total cpu time spent up to now is     8224.1 secs

     total energy              =  -26031.77990949 Ry
     estimated scf accuracy    <       0.00002924 Ry

     iteration # 20     ecut=    77.00 Ry     beta= 0.20
     Davidson diagonalization with overlap
     c_bands:  1 eigenvalues not converged
     ethr =  2.25E-09,  avg # of iterations = 19.8

     negative rho (up, down):  9.126E-04 0.000E+00

     total cpu time spent up to now is     8667.1 secs

     total energy              =  -26031.77992546 Ry
     estimated scf accuracy    <       0.00000325 Ry

     iteration # 21     ecut=    77.00 Ry     beta= 0.20
     Davidson diagonalization with overlap
     c_bands:  2 eigenvalues not converged
     ethr =  2.51E-10,  avg # of iterations = 18.5

     negative rho (up, down):  9.131E-04 0.000E+00

     total cpu time spent up to now is     9409.4 secs

     total energy              =  -26031.77993322 Ry
     estimated scf accuracy    <       0.00000199 Ry

     iteration # 22     ecut=    77.00 Ry     beta= 0.20
     Davidson diagonalization with overlap
     ethr =  1.53E-10,  avg # of iterations =  8.8

     negative rho (up, down):  9.139E-04 0.000E+00

     total cpu time spent up to now is     9657.4 secs

     End of self-consistent calculation

          k = 0.0000 0.0000 0.0000 (321495 PWs)   bands (ev):

  -102.8865 -87.9566 -71.1985 -71.1817 -71.1768 -71.1747 -71.1622 -71.1593
   -71.1520 -66.6317 -66.6106 -66.6106 -66.6106 -66.6106 -66.6106 -66.6106
   -66.5894 -66.5894 -66.5894 -66.5894 -66.5894 -66.5894 -66.5894 -66.5894
   -66.5894 -66.5657 -66.5450 -66.5450 -66.5447 -66.5445 -66.5444 -66.5442
   -66.5241 -66.5238 -66.5238 -66.5237 -66.5233 -66.5233 -66.5230 -66.5230
   -66.5230 -66.4942 -66.4812 -66.4780 -66.4740 -66.4719 -66.4661 -66.4597
   -66.4536 -66.4453 -66.4450 -66.4419 -66.4407 -66.4378 -66.4325 -66.4188
   -66.4113 -57.1408 -57.1137 -57.1050 -53.7762 -53.7624 -53.7595 -40.9581
   -40.9580 -40.9580 -40.8910 -40.8909 -40.8908 -40.8832 -40.8832 -40.8832
   -40.8832 -40.8832 -40.8832 -40.8164 -40.8163 -40.8161 -40.8161 -40.8160
   -40.8160 -40.8143 -40.8096 -40.8056 -40.7919 -40.7577 -40.7577 -40.7577
   -40.7577 -40.7577 -40.7577 -40.7505 -40.7505 -40.7505 -40.7505 -40.7505
   -40.7505 -40.7390 -40.7385 -40.7360 -40.7330 -40.7264 -40.7228 -40.7228
   -40.7228 -40.7228 -40.7228 -40.7228 -40.7198 -40.7169 -40.7116 -40.7088
   -40.7088 -40.7088 -40.7088 -40.7088 -40.7088 -40.7087 -40.7087 -40.7087
   -40.6910 -40.6908 -40.6907 -40.6907 -40.6906 -40.6905 -40.6853 -40.6853
   -40.6851 -40.6849 -40.6848 -40.6847 -40.6562 -40.6562 -40.6560 -40.6559
   -40.6559 -40.6558 -40.6558 -40.6450 -40.6450 -40.6450 -40.6439 -40.6437
   -40.6436 -40.6435 -40.6433 -40.6433 -40.6430 -40.6430 -40.6429 -40.6329
   -40.6201 -40.6173 -40.6157 -40.6134 -40.6125 -40.6121 -40.6107 -40.6046
   -40.6031 -40.5982 -40.5982 -40.5982 -40.5982 -40.5982 -40.5982 -40.5895
   -40.5870 -40.5854 -40.5819 -40.5783 -40.5782 -40.5782 -40.5774 -40.5768
   -40.5744 -40.5715 -40.5697 -40.5688 -40.5661 -40.5639 -40.5624 -40.5573
   -40.5559 -40.5509 -40.5509 -40.5500 -40.5319 -40.5315 -40.5314 -40.5314
   -40.5313 -40.5312 -40.4975 -40.4952 -40.4933 -40.4842 -40.4842 -40.4519
   -40.4495 -40.4451 -40.4430 -40.4423 -40.4321 -40.3941 -40.3908 -20.0703
   -19.9880 -19.8571 -19.2775 -19.2263 -19.2064 -19.1994 -19.1981 -19.1964
   -19.1828 -19.1728 -19.1510 -19.1114 -19.0999 -19.0844 -19.0339 -19.0295
   -19.0229 -19.0024 -18.9896 -18.9631 -18.8253 -18.6704 -18.4977 -18.4960
   -18.4906 -18.4565 -18.4194 -18.4048 -18.4016 -18.3554 -18.3491 -18.3308
   -18.2920 -18.2758 -18.2703 -18.2234 -18.1871 -18.1591 -18.1567 -18.1543
   -18.1376 -18.1013 -18.0915 -18.0914 -18.0912 -18.0908 -18.0907 -18.0905
   -18.0645 -18.0511 -18.0510 -18.0507 -18.0461 -18.0459 -18.0110 -18.0096
   -18.0064 -18.0051 -17.9993 -17.9991 -17.9779 -17.9769 -17.9767 -17.9362
   -17.9247 -17.9214 -17.9161 -17.9135 -17.8947 -17.8944 -17.8917 -17.8862
   -17.8757 -17.8730 -17.8664 -17.8647 -17.8605 -17.8363 -17.8348 -17.8290
   -17.8173 -17.8091 -17.8060 -17.7984 -17.7937 -17.7882 -17.7693 -17.7647
   -17.7566 -17.7416 -17.7349 -17.7240 -17.7136 -17.7103 -17.7019 -11.9457
   -11.8763 -11.7378 -11.7181 -11.7048 -11.6979 -11.6859 -11.6214 -11.6141
   -11.6091 -11.5684 -11.3302 -11.2819 -11.2043 -11.1835 -11.1602 -11.1589
   -11.1483 -11.1391 -11.1305 -11.0928 -11.0832 -11.0810 -11.0800 -11.0754
   -11.0738 -11.0682 -11.0426 -10.9843 -10.9681 -10.9496 -10.9493 -10.9488
   -10.9229 -10.9192 -10.9027 -10.8863 -10.8791 -10.8739 -10.8681 -10.8641
   -10.8563 -10.8344 -10.8320 -10.7968 -10.7948 -10.7920 -10.7850 -10.7840
   -10.7827 -10.7812 -10.7782 -10.7759 -10.7596 -10.7574 -10.7534 -10.7490
   -10.7442 -10.7384 -10.7350 -10.7311 -10.7305 -10.7125 -10.7116 -10.6950
   -10.6772 -10.6565 -10.6490 -10.6361 -10.5968 -10.5906 -10.5670 -10.5605
   -10.5563 -10.5496 -10.3507 -10.3077 -10.0232 -10.0050 -10.0009  -9.9799
    -9.9598  -9.8974  -9.8479  -9.8225  -9.8092  -9.7574  -9.7527  -9.7382
    -9.7340  -9.7245  -9.7215  -9.7090  -9.6800  -9.6643  -9.6607  -9.6394
    -9.6384  -9.6300  -9.6151  -9.5972  -9.5862  -9.5746  -9.5699  -9.5687
    -9.5611  -9.5554  -9.5507  -9.5290  -9.5263  -9.5260  -9.5247  -9.5233
    -9.5221  -9.5197  -9.5053  -9.4896  -9.4888  -9.4719  -9.4668  -9.4148
    -9.4079  -9.3980  -9.3914  -9.3849  -9.3803  -9.3378  -9.3125  -9.3115
    -9.2974  -9.2895  -9.2814  -9.2672  -9.2550  -9.2410  -9.2380  -9.2073
    -9.1703  -9.1583  -9.1530  -9.1446  -9.1409  -9.1391  -9.1272  -9.0633
    -9.0154  -9.0135  -9.0078  -8.9789  -8.9781  -8.9700  -8.9698  -8.9696
    -8.9666  -8.9615  -8.9085  -8.9077  -8.9053  -8.8929  -8.8821  -8.8788
    -8.8699  -8.8514  -8.8063  -8.7978  -8.7775  -8.7602  -8.7552  -8.7541
    -8.7516  -8.7464  -8.7393  -8.7331  -8.7327  -8.7171  -8.7103  -8.6857
    -8.6853  -8.6716  -8.6684  -8.6599  -8.6595  -8.6405  -8.5246  -8.3906
    -8.3854  -8.3807  -8.3807  -8.3191  -8.3087  -8.3079  -8.2929  -8.2687
    -8.2687  -8.2686  -8.2686  -8.2685  -8.2684  -8.2523  -8.2247  -8.2073
    -8.2028  -8.1969  -8.1923  -8.1911  -8.1881  -8.1760  -8.1667  -8.1310
    -8.0112  -7.9994  -7.9656  -7.9313  -7.8820  -7.8555  -7.8487  -7.7715
    -7.6569  -7.6211  -7.6034  -7.5611  -7.5340  -7.5335  -7.5332  -7.5330
    -7.5330  -7.5330  -7.5083  -7.5057  -7.4877  -7.4876  -7.4873  -7.4866
    -7.4859  -7.4844  -7.4694  -7.4657  -7.4613  -7.4593  -7.4538  -7.4481
    -7.4468  -7.4450  -7.4374  -7.4184  -7.4172  -7.4161  -7.4136  -7.4125
    -7.4099  -7.3956  -7.3946  -7.3869  -7.3808  -7.3706  -7.3685  -7.3674
    -7.3644  -7.3618  -7.3462  -7.3380  -7.2520  -7.2519  -7.2500  -7.2242
    -7.2059  -7.1833  -7.1827  -7.1762  -7.1657  -7.1615  -7.1444  -7.0521
    -6.9898  -6.9863  -6.9520  -6.8832  -6.8796  -6.8764  -6.8263  -6.7969
    -6.7684  -6.7492  -6.7484  -6.7194  -6.6925  -6.6528  -6.6483  -6.6106
    -6.6029  -6.5989  -6.5965  -6.5718  -6.5687  -6.5625  -6.5532  -6.5388
    -6.5079  -6.4965  -6.4762  -6.4676  -6.4664  -6.4634  -6.4595  -6.4588
    -6.4379  -6.4316  -6.4206  -6.4066  -6.4033  -6.3993  -6.3825  -6.3802
    -6.3685  -6.3666  -6.3631  -6.3239  -6.2999  -6.2998  -6.2998  -6.2998
    -6.2998  -6.2998  -6.2673  -6.2583  -6.2414  -6.2230  -6.2220  -6.2212
    -6.2209  -6.2208  -6.2157  -6.1700  -6.1586  -6.1345  -6.0945  -6.0136
    -5.9811  -5.8215  -5.6453  -5.6126  -5.5902  -5.3784  -5.3410  -5.3285
    -5.0761  -4.1087  -3.8717  -3.7890  -3.7854  -3.7803  -3.7793  -3.7630
    -3.7558  -3.7511  -3.7492  -3.7481  -3.7469  -3.7268  -3.6808  -3.5679
    -3.5535  -3.5433  -3.5418  -3.5324  -3.5321  -3.5237  -3.5138  -3.5136
    -3.5094  -3.4405  -3.4404  -3.4403  -3.4270  -3.4233  -3.4226  -3.4219
    -3.4207  -3.4202  -3.3840  -3.3733  -3.3731  -3.3729  -3.3588  -3.3531
    -3.3394  -3.3320  -3.3273  -3.3251  -3.3205  -3.3148  -3.3066  -3.3045
    -3.3033  -3.3026  -3.2891  -3.2861  -3.2791  -3.2631  -3.2462  -3.2225
    -3.2164  -3.2129  -3.2000  -3.1937  -3.1766  -3.1753  -3.1591  -3.1557
    -2.9748  -2.9745  -2.9744  -2.9691  -2.9690  -2.9594  -2.9107  -2.9051
    -2.9034  -2.9022  -2.9020  -2.9019  -2.9015  -2.9012  -2.9005  -2.8893
    -2.8864  -2.8817  -2.8783  -2.8718  -2.8488  -2.8452  -2.8422  -2.8371
    -2.8325  -2.8314  -2.8286  -2.8277  -2.8192  -2.8139  -2.8138  -2.7937
    -2.7897  -2.7763  -2.7614  -2.7496  -2.7487  -2.7446  -2.7202  -2.7128
    -2.7100  -2.6972  -2.6941  -2.6935  -2.6918  -2.6729  -2.6718  -2.6430
    -2.6386  -2.6381  -2.6172  -2.5938  -2.5865  -2.5813  -2.5737  -2.5574
    -2.5518  -2.4925  -2.4849  -2.4828  -2.4763  -2.4453  -2.4315  -2.4179
    -2.4109  -2.4024  -2.3972

          k = 0.0000-0.5773 0.0000 (321564 PWs)   bands (ev):

  -102.8865 -87.9566 -71.1985 -71.1817 -71.1768 -71.1747 -71.1622 -71.1594
   -71.1520 -66.6255 -66.6255 -66.6150 -66.6150 -66.6000 -66.6000 -66.6000
   -66.6000 -66.5956 -66.5956 -66.5894 -66.5894 -66.5894 -66.5894 -66.5850
   -66.5850 -66.5597 -66.5594 -66.5491 -66.5489 -66.5342 -66.5342 -66.5341
   -66.5338 -66.5298 -66.5295 -66.5237 -66.5236 -66.5234 -66.5231 -66.5191
   -66.5189 -66.4923 -66.4848 -66.4787 -66.4729 -66.4726 -66.4644 -66.4581
   -66.4540 -66.4467 -66.4455 -66.4413 -66.4404 -66.4378 -66.4326 -66.4190
   -66.4112 -57.1408 -57.1137 -57.1050 -53.7762 -53.7624 -53.7596 -40.9266
   -40.9266 -40.9266 -40.9266 -40.9000 -40.9000 -40.8881 -40.8881 -40.8597
   -40.8596 -40.8595 -40.8592 -40.8376 -40.8376 -40.8376 -40.8376 -40.8330
   -40.8328 -40.8211 -40.8209 -40.7881 -40.7809 -40.7798 -40.7798 -40.7767
   -40.7707 -40.7707 -40.7705 -40.7705 -40.7697 -40.7697 -40.7659 -40.7621
   -40.7591 -40.7591 -40.7518 -40.7360 -40.7296 -40.7296 -40.7296 -40.7296
   -40.7236 -40.7210 -40.7210 -40.7144 -40.7142 -40.7117 -40.7088 -40.7087
   -40.7087 -40.7087 -40.7087 -40.7087 -40.7029 -40.7027 -40.7001 -40.7001
   -40.6937 -40.6935 -40.6884 -40.6857 -40.6795 -40.6779 -40.6779 -40.6779
   -40.6779 -40.6735 -40.6643 -40.6643 -40.6642 -40.6640 -40.6557 -40.6554
   -40.6512 -40.6436 -40.6435 -40.6434 -40.6434 -40.6434 -40.6434 -40.6433
   -40.6430 -40.6419 -40.6417 -40.6414 -40.6348 -40.6347 -40.6314 -40.6314
   -40.6247 -40.6201 -40.6187 -40.6122 -40.6122 -40.6117 -40.6114 -40.6113
   -40.6109 -40.6108 -40.5985 -40.5953 -40.5953 -40.5945 -40.5908 -40.5879
   -40.5820 -40.5779 -40.5768 -40.5767 -40.5765 -40.5765 -40.5733 -40.5700
   -40.5670 -40.5648 -40.5648 -40.5647 -40.5644 -40.5633 -40.5628 -40.5521
   -40.5508 -40.5456 -40.5451 -40.5305 -40.5301 -40.5289 -40.5286 -40.5284
   -40.5258 -40.4983 -40.4979 -40.4953 -40.4927 -40.4888 -40.4839 -40.4836
   -40.4695 -40.4660 -40.4541 -40.4367 -40.4292 -40.4129 -40.4048 -19.8354
   -19.8340 -19.7617 -19.7564 -19.6310 -19.6254 -19.3972 -19.3956 -19.3240
   -19.3128 -19.2030 -19.1967 -18.8085 -18.7738 -18.7496 -18.7102 -18.6849
   -18.6830 -18.6777 -18.6765 -18.6464 -18.5993 -18.5799 -18.5635 -18.5525
   -18.5523 -18.5140 -18.5081 -18.4916 -18.4666 -18.4390 -18.4363 -18.4150
   -18.4038 -18.3859 -18.3668 -18.3592 -18.3313 -18.3171 -18.2911 -18.2459
   -18.2102 -18.2064 -18.1820 -18.1743 -18.1580 -18.1151 -18.1110 -18.0872
   -18.0719 -18.0716 -18.0713 -18.0712 -18.0691 -18.0517 -18.0491 -18.0338
   -18.0160 -18.0027 -17.9988 -17.9931 -17.9873 -17.9833 -17.9823 -17.9629
   -17.9513 -17.9392 -17.9215 -17.9195 -17.9189 -17.8952 -17.8917 -17.8803
   -17.8803 -17.8742 -17.8672 -17.8311 -17.8183 -17.8158 -17.8113 -17.8079
   -17.8079 -17.7640 -17.7601 -17.7502 -17.7483 -17.7479 -17.7371 -17.7320
   -17.7314 -17.7222 -17.6909 -17.6887 -17.6802 -17.6345 -17.6195 -11.7879
   -11.6514 -11.6124 -11.5593 -11.4874 -11.4872 -11.4208 -11.4164 -11.4153
   -11.4140 -11.3950 -11.3870 -11.3653 -11.3375 -11.3235 -11.3212 -11.3061
   -11.3006 -11.2957 -11.2754 -11.2459 -11.2295 -11.2270 -11.2197 -11.2008
   -11.2008 -11.1848 -11.1550 -11.1548 -11.1256 -11.1048 -11.1002 -11.0961
   -11.0944 -11.0116 -10.9887 -10.9666 -10.9325 -10.9227 -10.9130 -10.9050
   -10.8850 -10.8606 -10.8597 -10.8499 -10.8369 -10.8256 -10.8147 -10.8145
   -10.7927 -10.7799 -10.7745 -10.7733 -10.7722 -10.7716 -10.7628 -10.7611
   -10.7410 -10.7402 -10.7102 -10.7058 -10.7054 -10.6961 -10.6577 -10.5465
   -10.5167 -10.5085 -10.4817 -10.4407 -10.4299 -10.3568 -10.3191 -10.2486
   -10.2320 -10.0984 -10.0758 -10.0646 -10.0619 -10.0390 -10.0262  -9.9887
    -9.9846  -9.9657  -9.9496  -9.9340  -9.9097  -9.8899  -9.8779  -9.8753
    -9.8652  -9.8510  -9.8474  -9.8378  -9.8343  -9.8314  -9.8116  -9.7877
    -9.7566  -9.7218  -9.7125  -9.6999  -9.6909  -9.6843  -9.6758  -9.6552
    -9.6539  -9.6528  -9.6384  -9.6363  -9.6141  -9.6003  -9.5855  -9.5695
    -9.5588  -9.5560  -9.5512  -9.4998  -9.4803  -9.4762  -9.4710  -9.4590
    -9.4521  -9.4230  -9.4200  -9.4127  -9.3989  -9.3436  -9.2857  -9.2794
    -9.2267  -9.1951  -9.1569  -9.1398  -9.1320  -9.1241  -9.0954  -9.0895
    -9.0821  -9.0799  -9.0716  -9.0523  -9.0452  -9.0031  -9.0019  -8.9881
    -8.9756  -8.9627  -8.9611  -8.9517  -8.9373  -8.9292  -8.9267  -8.9159
    -8.9024  -8.8914  -8.8903  -8.8772  -8.8761  -8.8745  -8.8533  -8.8457
    -8.8335  -8.8179  -8.8068  -8.8009  -8.7891  -8.7882  -8.7861  -8.7837
    -8.7822  -8.7770  -8.7683  -8.7648  -8.7623  -8.7462  -8.7276  -8.7171
    -8.7071  -8.6926  -8.6857  -8.6818  -8.6418  -8.6008  -8.4765  -8.4596
    -8.4558  -8.4415  -8.3967  -8.3717  -8.3668  -8.2986  -8.2707  -8.2673
    -8.1474  -8.1381  -8.1371  -8.1370  -8.0652  -8.0644  -8.0492  -8.0194
    -8.0118  -7.9258  -7.8827  -7.8757  -7.8710  -7.8200  -7.8160  -7.8095
    -7.8026  -7.7956  -7.7913  -7.7904  -7.7904  -7.7897  -7.7846  -7.7524
    -7.7454  -7.7446  -7.7438  -7.7413  -7.7264  -7.7218  -7.7202  -7.7141
    -7.7081  -7.6999  -7.6948  -7.6866  -7.6773  -7.6753  -7.6695  -7.6675
    -7.6590  -7.6576  -7.6548  -7.6517  -7.6292  -7.6180  -7.6168  -7.6053
    -7.6052  -7.6044  -7.5824  -7.5763  -7.5649  -7.5613  -7.5484  -7.5377
    -7.5350  -7.5133  -7.5053  -7.4842  -7.4744  -7.4575  -7.4507  -7.4440
    -7.3742  -7.3288  -7.2964  -7.2164  -7.1983  -7.1881  -7.1762  -7.1575
    -7.1547  -7.0942  -7.0774  -7.0592  -7.0527  -7.0061  -6.9935  -6.9860
    -6.9562  -6.9520  -6.9471  -6.9214  -6.9073  -6.9008  -6.8948  -6.8604
    -6.8440  -6.8313  -6.8293  -6.7847  -6.7775  -6.7504  -6.7207  -6.6813
    -6.6745  -6.6364  -6.6117  -6.6023  -6.6021  -6.6020  -6.6020  -6.5848
    -6.5842  -6.5666  -6.5367  -6.5356  -6.5314  -6.5288  -6.5169  -6.5083
    -6.4977  -6.4481  -6.4235  -6.4039  -6.3729  -6.3330  -6.3231  -6.2740
    -6.2706  -6.2702  -6.2697  -6.2633  -6.2290  -6.2062  -6.2025  -6.1924
    -6.1876  -6.1852  -6.1839  -6.1613  -6.1502  -6.1410  -6.1325  -6.0657
    -6.0494  -5.9220  -5.9220  -5.8685  -5.8493  -5.8471  -5.8173  -5.8140
    -5.7441  -5.6277  -5.5995  -5.5640  -5.5597  -5.4250  -5.3948  -5.3317
    -5.3098  -4.1099  -3.9680  -3.9660  -3.9533  -3.9489  -3.8407  -3.8376
    -3.8376  -3.8193  -3.7729  -3.7726  -3.7604  -3.7275  -3.7269  -3.7031
    -3.7013  -3.6916  -3.6198  -3.5902  -3.5415  -3.5403  -3.5394  -3.5389
    -3.5231  -3.5229  -3.5220  -3.4950  -3.4934  -3.4862  -3.4463  -3.4441
    -3.4376  -3.4334  -3.4198  -3.4163  -3.4119  -3.4047  -3.4040  -3.3614
    -3.3540  -3.3525  -3.3236  -3.3045  -3.3044  -3.2932  -3.2899  -3.2898
    -3.2681  -3.2603  -3.2581  -3.2495  -3.2384  -3.2153  -3.2146  -3.2137
    -3.2134  -3.2131  -3.2030  -3.1829  -3.1782  -3.1686  -3.1626  -3.1546
    -3.1478  -3.1461  -3.1307  -3.1301  -3.1232  -3.1076  -3.0780  -3.0677
    -3.0486  -3.0430  -3.0393  -3.0109  -3.0091  -2.9763  -2.9739  -2.9689
    -2.9671  -2.9510  -2.9504  -2.9504  -2.9498  -2.9163  -2.9115  -2.9032
    -2.9011  -2.8866  -2.8776  -2.8751  -2.8603  -2.8577  -2.8562  -2.8490
    -2.8459  -2.8343  -2.8204  -2.8119  -2.8086  -2.8005  -2.7717  -2.7711
    -2.7610  -2.7500  -2.7419  -2.7359  -2.7347  -2.6795  -2.6692  -2.6506
    -2.6392  -2.6041  -2.5883  -2.5870  -2.5769  -2.5661  -2.5649  -2.5080
    -2.5007  -2.4553  -2.4496  -2.4288  -2.4287  -2.4258  -2.3898  -2.3403
    -2.3077  -2.2819  -2.2212

          k =-0.5000-0.2887 0.0000 (321564 PWs)   bands (ev):

  -102.8865 -87.9566 -71.1985 -71.1817 -71.1768 -71.1747 -71.1622 -71.1594
   -71.1520 -66.6255 -66.6255 -66.6150 -66.6150 -66.6000 -66.6000 -66.6000
   -66.6000 -66.5956 -66.5956 -66.5894 -66.5894 -66.5894 -66.5894 -66.5850
   -66.5850 -66.5597 -66.5594 -66.5491 -66.5489 -66.5342 -66.5341 -66.5341
   -66.5338 -66.5299 -66.5294 -66.5237 -66.5236 -66.5234 -66.5230 -66.5191
   -66.5190 -66.4926 -66.4832 -66.4794 -66.4754 -66.4703 -66.4649 -66.4580
   -66.4537 -66.4459 -66.4448 -66.4425 -66.4408 -66.4382 -66.4320 -66.4189
   -66.4112 -57.1408 -57.1137 -57.1050 -53.7762 -53.7624 -53.7596 -40.9266
   -40.9266 -40.9266 -40.9266 -40.9000 -40.9000 -40.8881 -40.8881 -40.8598
   -40.8597 -40.8594 -40.8592 -40.8376 -40.8376 -40.8376 -40.8376 -40.8330
   -40.8328 -40.8210 -40.8209 -40.7890 -40.7881 -40.7798 -40.7798 -40.7744
   -40.7707 -40.7707 -40.7706 -40.7705 -40.7697 -40.7697 -40.7617 -40.7591
   -40.7591 -40.7565 -40.7505 -40.7376 -40.7296 -40.7296 -40.7296 -40.7296
   -40.7232 -40.7210 -40.7210 -40.7144 -40.7141 -40.7118 -40.7088 -40.7087
   -40.7087 -40.7087 -40.7087 -40.7087 -40.7029 -40.7027 -40.7001 -40.7001
   -40.6937 -40.6936 -40.6912 -40.6844 -40.6814 -40.6779 -40.6779 -40.6779
   -40.6779 -40.6761 -40.6643 -40.6643 -40.6642 -40.6640 -40.6557 -40.6554
   -40.6499 -40.6437 -40.6436 -40.6435 -40.6434 -40.6434 -40.6434 -40.6434
   -40.6433 -40.6430 -40.6419 -40.6417 -40.6348 -40.6347 -40.6314 -40.6314
   -40.6259 -40.6191 -40.6131 -40.6125 -40.6122 -40.6122 -40.6113 -40.6112
   -40.6111 -40.6107 -40.6053 -40.5961 -40.5953 -40.5953 -40.5901 -40.5846
   -40.5816 -40.5767 -40.5767 -40.5765 -40.5765 -40.5762 -40.5755 -40.5703
   -40.5668 -40.5648 -40.5648 -40.5647 -40.5644 -40.5632 -40.5608 -40.5530
   -40.5508 -40.5456 -40.5452 -40.5332 -40.5323 -40.5286 -40.5284 -40.5232
   -40.5209 -40.4983 -40.4979 -40.4956 -40.4931 -40.4902 -40.4861 -40.4826
   -40.4684 -40.4610 -40.4561 -40.4402 -40.4331 -40.4173 -40.3981 -19.8466
   -19.8287 -19.7836 -19.7265 -19.6362 -19.6076 -19.4018 -19.3957 -19.3391
   -19.3141 -19.2089 -19.1977 -18.7912 -18.7787 -18.7280 -18.7060 -18.6854
   -18.6842 -18.6779 -18.6754 -18.6366 -18.6105 -18.5878 -18.5692 -18.5542
   -18.5505 -18.5283 -18.5128 -18.4891 -18.4816 -18.4377 -18.4360 -18.4155
   -18.4043 -18.3732 -18.3574 -18.3451 -18.3360 -18.3150 -18.2634 -18.2577
   -18.2216 -18.1980 -18.1912 -18.1722 -18.1606 -18.1398 -18.1107 -18.0871
   -18.0809 -18.0715 -18.0713 -18.0712 -18.0710 -18.0575 -18.0512 -18.0341
   -18.0183 -18.0003 -17.9964 -17.9921 -17.9894 -17.9825 -17.9758 -17.9563
   -17.9523 -17.9369 -17.9285 -17.9201 -17.9139 -17.8922 -17.8896 -17.8811
   -17.8776 -17.8696 -17.8652 -17.8293 -17.8222 -17.8130 -17.8079 -17.8079
   -17.8039 -17.7641 -17.7590 -17.7524 -17.7480 -17.7475 -17.7325 -17.7317
   -17.7291 -17.7223 -17.6992 -17.6885 -17.6857 -17.6325 -17.6223 -11.8047
   -11.6506 -11.6228 -11.5369 -11.4982 -11.4605 -11.4192 -11.4177 -11.4152
   -11.4142 -11.3954 -11.3862 -11.3459 -11.3382 -11.3252 -11.3222 -11.3123
   -11.2972 -11.2652 -11.2629 -11.2516 -11.2402 -11.2303 -11.2242 -11.2130
   -11.2008 -11.2008 -11.1553 -11.1549 -11.1444 -11.1046 -11.0995 -11.0959
   -11.0946 -11.0253 -11.0039 -10.9413 -10.9329 -10.9194 -10.9176 -10.9123
   -10.8778 -10.8621 -10.8574 -10.8382 -10.8366 -10.8241 -10.8105 -10.7984
   -10.7940 -10.7851 -10.7748 -10.7731 -10.7725 -10.7704 -10.7650 -10.7634
   -10.7455 -10.7275 -10.7126 -10.7051 -10.7044 -10.6956 -10.6704 -10.5739
   -10.5349 -10.5198 -10.4688 -10.4366 -10.4291 -10.3345 -10.3080 -10.2269
   -10.2003 -10.1213 -10.0939 -10.0680 -10.0611 -10.0579 -10.0428 -10.0066
    -9.9727  -9.9633  -9.9532  -9.9079  -9.9035  -9.8833  -9.8787  -9.8780
    -9.8749  -9.8558  -9.8487  -9.8429  -9.8354  -9.8279  -9.8223  -9.7636
    -9.7547  -9.7390  -9.7179  -9.7022  -9.6928  -9.6913  -9.6702  -9.6563
    -9.6547  -9.6460  -9.6440  -9.6345  -9.6143  -9.6051  -9.5883  -9.5787
    -9.5648  -9.5607  -9.5517  -9.5157  -9.4877  -9.4847  -9.4742  -9.4701
    -9.4482  -9.4144  -9.4134  -9.4030  -9.3726  -9.3043  -9.2701  -9.2566
    -9.2403  -9.2001  -9.1571  -9.1346  -9.1248  -9.1199  -9.1043  -9.0904
    -9.0883  -9.0742  -9.0718  -9.0513  -9.0296  -9.0144  -9.0020  -8.9851
    -8.9813  -8.9691  -8.9579  -8.9474  -8.9441  -8.9328  -8.9234  -8.9116
    -8.8960  -8.8940  -8.8881  -8.8819  -8.8750  -8.8727  -8.8573  -8.8520
    -8.8324  -8.8141  -8.8082  -8.8008  -8.7982  -8.7951  -8.7909  -8.7838
    -8.7835  -8.7783  -8.7666  -8.7609  -8.7525  -8.7420  -8.7300  -8.7081
    -8.7068  -8.6978  -8.6886  -8.6802  -8.6486  -8.5980  -8.5090  -8.4593
    -8.4560  -8.4420  -8.3939  -8.3750  -8.3663  -8.3176  -8.2799  -8.2294
    -8.1411  -8.1371  -8.1371  -8.0748  -8.0648  -8.0640  -8.0522  -8.0164
    -8.0017  -7.9434  -7.9182  -7.8760  -7.8747  -7.8621  -7.8137  -7.8098
    -7.8043  -7.7952  -7.7933  -7.7904  -7.7904  -7.7885  -7.7838  -7.7773
    -7.7476  -7.7450  -7.7443  -7.7433  -7.7363  -7.7207  -7.7200  -7.7135
    -7.7048  -7.6975  -7.6945  -7.6850  -7.6776  -7.6748  -7.6702  -7.6640
    -7.6579  -7.6487  -7.6398  -7.6365  -7.6309  -7.6242  -7.6132  -7.6073
    -7.6053  -7.6049  -7.5930  -7.5766  -7.5635  -7.5609  -7.5423  -7.5377
    -7.5297  -7.5146  -7.5071  -7.4897  -7.4673  -7.4542  -7.4324  -7.4045
    -7.3737  -7.3428  -7.3247  -7.2302  -7.2044  -7.1810  -7.1773  -7.1680
    -7.1418  -7.0976  -7.0804  -7.0618  -7.0455  -7.0182  -6.9967  -6.9783
    -6.9577  -6.9526  -6.9449  -6.9339  -6.9176  -6.8877  -6.8824  -6.8536
    -6.8449  -6.8436  -6.7986  -6.7789  -6.7730  -6.7572  -6.7379  -6.6865
    -6.6414  -6.6306  -6.6233  -6.6024  -6.6022  -6.6021  -6.6021  -6.5894
    -6.5786  -6.5620  -6.5428  -6.5386  -6.5330  -6.5322  -6.5267  -6.5228
    -6.4798  -6.4500  -6.4061  -6.3937  -6.3736  -6.3412  -6.3076  -6.2893
    -6.2710  -6.2704  -6.2697  -6.2690  -6.2425  -6.2084  -6.2030  -6.1945
    -6.1877  -6.1858  -6.1839  -6.1630  -6.1440  -6.1422  -6.1152  -6.0627
    -6.0426  -5.9220  -5.9220  -5.8815  -5.8707  -5.8466  -5.8421  -5.7863
    -5.7282  -5.6270  -5.5941  -5.5857  -5.5350  -5.4754  -5.3727  -5.3224
    -5.3084  -4.1194  -3.9881  -3.9655  -3.9584  -3.9304  -3.8380  -3.8376
    -3.8373  -3.8069  -3.7861  -3.7725  -3.7723  -3.7250  -3.7191  -3.7071
    -3.6944  -3.6637  -3.6345  -3.5798  -3.5445  -3.5408  -3.5390  -3.5353
    -3.5306  -3.5232  -3.5229  -3.4974  -3.4904  -3.4617  -3.4461  -3.4444
    -3.4365  -3.4325  -3.4235  -3.4173  -3.4138  -3.4084  -3.4029  -3.3665
    -3.3580  -3.3533  -3.3337  -3.3087  -3.2993  -3.2918  -3.2898  -3.2822
    -3.2692  -3.2580  -3.2573  -3.2538  -3.2483  -3.2162  -3.2144  -3.2140
    -3.2132  -3.2125  -3.2087  -3.1812  -3.1751  -3.1706  -3.1671  -3.1532
    -3.1497  -3.1455  -3.1326  -3.1281  -3.1269  -3.0971  -3.0740  -3.0694
    -3.0541  -3.0463  -3.0202  -3.0111  -3.0089  -2.9752  -2.9725  -2.9696
    -2.9679  -2.9510  -2.9500  -2.9500  -2.9495  -2.9202  -2.9091  -2.9032
    -2.9012  -2.8897  -2.8789  -2.8743  -2.8641  -2.8576  -2.8517  -2.8473
    -2.8413  -2.8341  -2.8218  -2.8172  -2.8121  -2.7998  -2.7811  -2.7749
    -2.7618  -2.7452  -2.7370  -2.7340  -2.7302  -2.6745  -2.6723  -2.6497
    -2.6426  -2.5972  -2.5883  -2.5871  -2.5788  -2.5701  -2.5682  -2.5076
    -2.5019  -2.4539  -2.4502  -2.4372  -2.4315  -2.4194  -2.4006  -2.3150
    -2.2792  -2.2604  -2.2342

          k =-0.5000-0.8660 0.0000 (321564 PWs)   bands (ev):

  -102.8865 -87.9566 -71.1985 -71.1817 -71.1768 -71.1747 -71.1622 -71.1594
   -71.1520 -66.6255 -66.6255 -66.6150 -66.6150 -66.6000 -66.6000 -66.6000
   -66.6000 -66.5956 -66.5956 -66.5894 -66.5894 -66.5894 -66.5894 -66.5850
   -66.5850 -66.5597 -66.5594 -66.5491 -66.5489 -66.5342 -66.5342 -66.5341
   -66.5338 -66.5299 -66.5294 -66.5237 -66.5236 -66.5234 -66.5230 -66.5191
   -66.5190 -66.4926 -66.4832 -66.4794 -66.4754 -66.4703 -66.4649 -66.4580
   -66.4537 -66.4459 -66.4449 -66.4425 -66.4408 -66.4382 -66.4320 -66.4189
   -66.4112 -57.1408 -57.1137 -57.1050 -53.7762 -53.7624 -53.7596 -40.9266
   -40.9266 -40.9266 -40.9266 -40.9000 -40.9000 -40.8881 -40.8881 -40.8597
   -40.8597 -40.8594 -40.8592 -40.8376 -40.8376 -40.8376 -40.8376 -40.8330
   -40.8328 -40.8210 -40.8209 -40.7890 -40.7881 -40.7798 -40.7798 -40.7744
   -40.7707 -40.7707 -40.7706 -40.7705 -40.7697 -40.7697 -40.7617 -40.7591
   -40.7591 -40.7565 -40.7504 -40.7376 -40.7296 -40.7296 -40.7296 -40.7296
   -40.7232 -40.7210 -40.7210 -40.7144 -40.7141 -40.7118 -40.7088 -40.7088
   -40.7087 -40.7087 -40.7087 -40.7087 -40.7029 -40.7027 -40.7001 -40.7001
   -40.6937 -40.6935 -40.6912 -40.6844 -40.6814 -40.6779 -40.6779 -40.6779
   -40.6779 -40.6761 -40.6643 -40.6643 -40.6642 -40.6640 -40.6557 -40.6554
   -40.6499 -40.6437 -40.6436 -40.6435 -40.6434 -40.6434 -40.6434 -40.6434
   -40.6433 -40.6430 -40.6419 -40.6417 -40.6348 -40.6347 -40.6314 -40.6314
   -40.6259 -40.6191 -40.6131 -40.6125 -40.6122 -40.6122 -40.6113 -40.6112
   -40.6110 -40.6108 -40.6053 -40.5960 -40.5953 -40.5953 -40.5901 -40.5846
   -40.5816 -40.5767 -40.5767 -40.5765 -40.5765 -40.5762 -40.5755 -40.5703
   -40.5668 -40.5648 -40.5648 -40.5647 -40.5644 -40.5632 -40.5608 -40.5530
   -40.5508 -40.5456 -40.5452 -40.5332 -40.5323 -40.5286 -40.5284 -40.5231
   -40.5208 -40.4983 -40.4979 -40.4956 -40.4931 -40.4902 -40.4861 -40.4827
   -40.4684 -40.4610 -40.4561 -40.4402 -40.4331 -40.4173 -40.3981 -19.8466
   -19.8287 -19.7836 -19.7265 -19.6362 -19.6076 -19.4018 -19.3957 -19.3391
   -19.3141 -19.2089 -19.1977 -18.7912 -18.7787 -18.7280 -18.7060 -18.6854
   -18.6842 -18.6779 -18.6754 -18.6366 -18.6106 -18.5878 -18.5692 -18.5542
   -18.5505 -18.5282 -18.5128 -18.4891 -18.4816 -18.4377 -18.4360 -18.4155
   -18.4043 -18.3732 -18.3574 -18.3451 -18.3360 -18.3150 -18.2634 -18.2577
   -18.2216 -18.1980 -18.1912 -18.1722 -18.1606 -18.1398 -18.1107 -18.0871
   -18.0809 -18.0715 -18.0713 -18.0712 -18.0710 -18.0575 -18.0512 -18.0341
   -18.0183 -18.0003 -17.9964 -17.9921 -17.9894 -17.9825 -17.9758 -17.9563
   -17.9523 -17.9369 -17.9285 -17.9201 -17.9139 -17.8922 -17.8896 -17.8811
   -17.8776 -17.8696 -17.8652 -17.8293 -17.8222 -17.8130 -17.8079 -17.8079
   -17.8039 -17.7641 -17.7590 -17.7524 -17.7480 -17.7475 -17.7325 -17.7317
   -17.7291 -17.7223 -17.6992 -17.6885 -17.6857 -17.6325 -17.6223 -11.8046
   -11.6506 -11.6228 -11.5369 -11.4982 -11.4605 -11.4192 -11.4177 -11.4152
   -11.4142 -11.3954 -11.3862 -11.3459 -11.3382 -11.3252 -11.3222 -11.3123
   -11.2972 -11.2652 -11.2629 -11.2516 -11.2402 -11.2303 -11.2242 -11.2130
   -11.2008 -11.2008 -11.1553 -11.1549 -11.1444 -11.1046 -11.0995 -11.0959
   -11.0946 -11.0253 -11.0039 -10.9413 -10.9329 -10.9194 -10.9176 -10.9123
   -10.8778 -10.8621 -10.8574 -10.8382 -10.8366 -10.8241 -10.8104 -10.7984
   -10.7940 -10.7850 -10.7748 -10.7731 -10.7725 -10.7704 -10.7650 -10.7634
   -10.7455 -10.7275 -10.7126 -10.7051 -10.7044 -10.6956 -10.6704 -10.5739
   -10.5349 -10.5197 -10.4687 -10.4366 -10.4291 -10.3345 -10.3080 -10.2269
   -10.2004 -10.1214 -10.0939 -10.0680 -10.0611 -10.0577 -10.0429 -10.0065
    -9.9727  -9.9633  -9.9533  -9.9079  -9.9035  -9.8833  -9.8787  -9.8780
    -9.8749  -9.8558  -9.8486  -9.8429  -9.8355  -9.8279  -9.8223  -9.7636
    -9.7547  -9.7390  -9.7179  -9.7022  -9.6928  -9.6913  -9.6702  -9.6563
    -9.6547  -9.6460  -9.6440  -9.6345  -9.6143  -9.6051  -9.5883  -9.5787
    -9.5648  -9.5607  -9.5517  -9.5157  -9.4877  -9.4847  -9.4742  -9.4701
    -9.4483  -9.4144  -9.4134  -9.4030  -9.3726  -9.3043  -9.2701  -9.2567
    -9.2403  -9.2001  -9.1571  -9.1346  -9.1249  -9.1199  -9.1043  -9.0904
    -9.0883  -9.0742  -9.0718  -9.0513  -9.0296  -9.0144  -9.0020  -8.9851
    -8.9813  -8.9691  -8.9580  -8.9474  -8.9441  -8.9328  -8.9234  -8.9116
    -8.8960  -8.8940  -8.8881  -8.8819  -8.8750  -8.8727  -8.8573  -8.8521
    -8.8324  -8.8141  -8.8082  -8.8008  -8.7982  -8.7951  -8.7909  -8.7838
    -8.7835  -8.7783  -8.7666  -8.7609  -8.7525  -8.7420  -8.7300  -8.7080
    -8.7068  -8.6978  -8.6886  -8.6802  -8.6486  -8.5980  -8.5090  -8.4593
    -8.4560  -8.4420  -8.3939  -8.3750  -8.3663  -8.3176  -8.2799  -8.2294
    -8.1411  -8.1371  -8.1371  -8.0749  -8.0648  -8.0640  -8.0522  -8.0164
    -8.0018  -7.9434  -7.9182  -7.8760  -7.8747  -7.8621  -7.8137  -7.8098
    -7.8043  -7.7952  -7.7933  -7.7904  -7.7904  -7.7885  -7.7838  -7.7773
    -7.7476  -7.7450  -7.7443  -7.7433  -7.7363  -7.7207  -7.7200  -7.7136
    -7.7048  -7.6975  -7.6945  -7.6850  -7.6776  -7.6748  -7.6702  -7.6640
    -7.6579  -7.6487  -7.6398  -7.6365  -7.6309  -7.6242  -7.6132  -7.6073
    -7.6053  -7.6049  -7.5930  -7.5765  -7.5635  -7.5609  -7.5423  -7.5377
    -7.5297  -7.5146  -7.5071  -7.4897  -7.4673  -7.4542  -7.4324  -7.4045
    -7.3737  -7.3428  -7.3247  -7.2302  -7.2044  -7.1810  -7.1773  -7.1680
    -7.1418  -7.0976  -7.0804  -7.0618  -7.0455  -7.0182  -6.9967  -6.9783
    -6.9577  -6.9526  -6.9449  -6.9339  -6.9176  -6.8877  -6.8824  -6.8536
    -6.8449  -6.8436  -6.7986  -6.7789  -6.7730  -6.7572  -6.7379  -6.6865
    -6.6414  -6.6306  -6.6233  -6.6024  -6.6021  -6.6021  -6.6021  -6.5894
    -6.5786  -6.5620  -6.5428  -6.5386  -6.5330  -6.5322  -6.5267  -6.5228
    -6.4798  -6.4500  -6.4061  -6.3936  -6.3736  -6.3412  -6.3076  -6.2893
    -6.2710  -6.2704  -6.2697  -6.2690  -6.2425  -6.2084  -6.2030  -6.1945
    -6.1877  -6.1858  -6.1839  -6.1630  -6.1440  -6.1422  -6.1152  -6.0627
    -6.0425  -5.9220  -5.9220  -5.8815  -5.8707  -5.8466  -5.8421  -5.7863
    -5.7283  -5.6270  -5.5941  -5.5857  -5.5350  -5.4755  -5.3727  -5.3221
    -5.3086  -4.1193  -3.9879  -3.9657  -3.9586  -3.9302  -3.8381  -3.8376
    -3.8373  -3.8069  -3.7861  -3.7727  -3.7724  -3.7250  -3.7191  -3.7071
    -3.6947  -3.6637  -3.6347  -3.5800  -3.5447  -3.5409  -3.5391  -3.5354
    -3.5308  -3.5232  -3.5230  -3.4974  -3.4902  -3.4617  -3.4460  -3.4444
    -3.4364  -3.4325  -3.4236  -3.4174  -3.4142  -3.4085  -3.4031  -3.3666
    -3.3577  -3.3532  -3.3337  -3.3087  -3.2992  -3.2918  -3.2900  -3.2822
    -3.2692  -3.2582  -3.2574  -3.2540  -3.2482  -3.2165  -3.2143  -3.2140
    -3.2133  -3.2127  -3.2085  -3.1810  -3.1749  -3.1703  -3.1671  -3.1532
    -3.1496  -3.1455  -3.1326  -3.1281  -3.1269  -3.0969  -3.0740  -3.0694
    -3.0540  -3.0461  -3.0200  -3.0110  -3.0089  -2.9760  -2.9730  -2.9697
    -2.9682  -2.9515  -2.9506  -2.9504  -2.9499  -2.9202  -2.9088  -2.9033
    -2.9014  -2.8896  -2.8790  -2.8743  -2.8643  -2.8577  -2.8522  -2.8469
    -2.8412  -2.8340  -2.8216  -2.8170  -2.8119  -2.7996  -2.7811  -2.7750
    -2.7620  -2.7465  -2.7417  -2.7372  -2.7339  -2.6771  -2.6721  -2.6511
    -2.6449  -2.5977  -2.5883  -2.5876  -2.5788  -2.5700  -2.5681  -2.5080
    -2.5022  -2.4535  -2.4497  -2.4368  -2.4314  -2.4188  -2.4009  -2.3186
    -2.2893  -2.2510  -2.2224

     the Fermi energy is    -4.6084 ev

!    total energy              =  -26031.77993205 Ry
     total all-electron energy =   -512284.349560 Ry
     estimated scf accuracy    <       0.00000080 Ry
     smearing contrib. (-TS)   =      -0.00000002 Ry
     internal energy E=F+TS    =  -26031.77993203 Ry

     The total energy is F=E-TS. E is the sum of the following terms:
     one-electron contribution =  491732.53222872 Ry
     hartree contribution      = -246005.59317733 Ry
     xc contribution           =   -1534.66386379 Ry
     ewald contribution        = -254031.29419863 Ry
     DFT-D3 Dispersion         =      -4.02040698 Ry
     one-center paw contrib.   =  -16188.74051402 Ry

     convergence has been achieved in  22 iterations

     negative rho (up, down):  9.139E-04 0.000E+00

     Forces acting on atoms (cartesian axes, Ry/au):

     atom    1 type  1   force =     0.00046218    0.00007758    0.00035986
     atom    2 type  1   force =    -0.00000368   -0.00000051    0.00192308
     atom    3 type  1   force =     0.00002455    0.00000846    0.00000972
     atom    4 type  2   force =    -0.00000017   -0.00000047   -0.00329173
     atom    5 type  2   force =    -0.00000064    0.00000546   -0.00002314
     atom    6 type  2   force =     0.00086826    0.00051213   -0.00121741
     atom    7 type  2   force =     0.00000053   -0.00000314    0.00149476
     atom    8 type  2   force =     0.00002821    0.00000814   -0.00000737
     atom    9 type  2   force =    -0.00104595   -0.00043751   -0.00062978
     atom   10 type  1   force =    -0.00014509   -0.00007055    0.00071982
     atom   11 type  1   force =     0.00000982   -0.00000269    0.00191972
     atom   12 type  1   force =     0.00002420    0.00001005   -0.00000179
     atom   13 type  2   force =    -0.00000166    0.00000040   -0.00329356
     atom   14 type  2   force =    -0.00001926   -0.00001373    0.00000633
     atom   15 type  2   force =     0.00025414   -0.00019932   -0.00020477
     atom   16 type  2   force =    -0.00000281   -0.00000355    0.00151482
     atom   17 type  2   force =    -0.00000968   -0.00001079    0.00000032
     atom   18 type  2   force =    -0.00000355   -0.00002692    0.00083776
     atom   19 type  1   force =     0.00060147    0.00023945   -0.00004472
     atom   20 type  1   force =     0.00000818    0.00000666    0.00192519
     atom   21 type  1   force =    -0.00000024    0.00001340   -0.00003161
     atom   22 type  2   force =     0.00000101    0.00000091   -0.00329429
     atom   23 type  2   force =     0.00000807   -0.00000470   -0.00001837
     atom   24 type  2   force =     0.00000005    0.00014861   -0.00009152
     atom   25 type  2   force =     0.00000140    0.00000123    0.00150026
     atom   26 type  2   force =     0.00001665    0.00002012   -0.00001946
     atom   27 type  2   force =     0.00000035    0.00020481   -0.00002990
     atom   28 type  1   force =    -0.00000432    0.00006674    0.00036305
     atom   29 type  1   force =    -0.00000098    0.00000024    0.00192525
     atom   30 type  1   force =     0.00003568    0.00001727   -0.00000420
     atom   31 type  2   force =    -0.00000164    0.00000408   -0.00329097
     atom   32 type  2   force =    -0.00000053   -0.00000119   -0.00006315
     atom   33 type  2   force =     0.00004799    0.00014790   -0.00015931
     atom   34 type  2   force =    -0.00000364   -0.00000134    0.00149970
     atom   35 type  2   force =     0.00000149   -0.00000097   -0.00005115
     atom   36 type  2   force =     0.00029375   -0.00016838    0.00068502
     atom   37 type  1   force =    -0.00045983    0.00007409    0.00036065
     atom   38 type  1   force =     0.00000149   -0.00000601    0.00192665
     atom   39 type  1   force =    -0.00000037   -0.00004410   -0.00004914
     atom   40 type  2   force =    -0.00000004   -0.00000124   -0.00329128
     atom   41 type  2   force =    -0.00000013    0.00000511   -0.00002714
     atom   42 type  2   force =     0.00000121    0.00024210   -0.00025512
     atom   43 type  2   force =    -0.00000109    0.00000176    0.00150445
     atom   44 type  2   force =    -0.00003080    0.00000601   -0.00000518
     atom   45 type  2   force =    -0.00000236   -0.00024453    0.00002276
     atom   46 type  1   force =     0.00000031   -0.00032039   -0.00056382
     atom   47 type  1   force =    -0.00000021    0.00000565    0.00192384
     atom   48 type  1   force =    -0.00004296    0.00001172   -0.00003380
     atom   49 type  2   force =    -0.00000219    0.00000056   -0.00329312
     atom   50 type  2   force =     0.00000211    0.00002541   -0.00000316
     atom   51 type  2   force =     0.00003637    0.00008492    0.00008394
     atom   52 type  2   force =    -0.00000068    0.00000585    0.00150262
     atom   53 type  2   force =     0.00000054   -0.00001234   -0.00002898
     atom   54 type  2   force =    -0.00010648    0.00053773   -0.00047501
     atom   55 type  1   force =    -0.00234194   -0.00140954   -0.00128172
     atom   56 type  1   force =     0.00001229   -0.00000810    0.00191751
     atom   57 type  1   force =    -0.00000510   -0.00003243   -0.00001583
     atom   58 type  2   force =    -0.00000192    0.00000056   -0.00329538
     atom   59 type  2   force =     0.00002119   -0.00001365   -0.00000688
     atom   60 type  2   force =     0.00047982   -0.00021968   -0.00032481
     atom   61 type  2   force =     0.00000325   -0.00000358    0.00149785
     atom   62 type  2   force =    -0.00001525   -0.00000264   -0.00003650
     atom   63 type  2   force =     0.00010165   -0.00022771    0.00061262
     atom   64 type  1   force =    -0.00252272   -0.00068049   -0.00167790
     atom   65 type  1   force =     0.00000152    0.00000523    0.00192434
     atom   66 type  1   force =    -0.00003366    0.00001513   -0.00000108
     atom   67 type  2   force =    -0.00000258    0.00000205   -0.00328805
     atom   68 type  2   force =     0.00000735   -0.00000581   -0.00000568
     atom   69 type  2   force =    -0.00005020    0.00014867   -0.00016114
     atom   70 type  2   force =     0.00000206   -0.00000217    0.00150005
     atom   71 type  2   force =    -0.00000237   -0.00002190    0.00005233
     atom   72 type  2   force =    -0.00029708   -0.00016803    0.00069128
     atom   73 type  1   force =    -0.00078186    0.00279173   -0.00168297
     atom   74 type  1   force =     0.00001231   -0.00000521    0.00192753
     atom   75 type  1   force =    -0.00002099    0.00001206    0.00001001
     atom   76 type  2   force =     0.00000164    0.00000075   -0.00329329
     atom   77 type  2   force =     0.00003910    0.00002287    0.00002650
     atom   78 type  2   force =    -0.00086700    0.00051476   -0.00122199
     atom   79 type  2   force =    -0.00000156    0.00000026    0.00149705
     atom   80 type  2   force =    -0.00005331   -0.00001554    0.00007770
     atom   81 type  2   force =     0.00104678   -0.00043731   -0.00062863
     atom   82 type  1   force =     0.00014434   -0.00007842    0.00071466
     atom   83 type  1   force =    -0.00000549   -0.00000015    0.00191992
     atom   84 type  1   force =     0.00003804    0.00001657   -0.00003579
     atom   85 type  2   force =     0.00000148    0.00000279   -0.00329421
     atom   86 type  2   force =     0.00001953   -0.00001333    0.00000287
     atom   87 type  2   force =    -0.00003782    0.00008614    0.00008670
     atom   88 type  2   force =    -0.00000043    0.00000505    0.00150461
     atom   89 type  2   force =     0.00001179   -0.00000960    0.00000645
     atom   90 type  2   force =     0.00011211    0.00053600   -0.00047457
     atom   91 type  1   force =     0.00233232   -0.00140152   -0.00127550
     atom   92 type  1   force =    -0.00000569   -0.00000359    0.00191428
     atom   93 type  1   force =    -0.00000125   -0.00001621    0.00001132
     atom   94 type  2   force =    -0.00000083    0.00000245   -0.00328615
     atom   95 type  2   force =    -0.00001959   -0.00001466   -0.00001092
     atom   96 type  2   force =    -0.00000443   -0.00111750   -0.00068074
     atom   97 type  2   force =    -0.00000449    0.00000068    0.00149699
     atom   98 type  2   force =     0.00001550   -0.00000101   -0.00003543
     atom   99 type  2   force =    -0.00000422   -0.00041693   -0.00009813
     atom  100 type  1   force =     0.00000499   -0.00022600   -0.02198289
     atom  101 type  1   force =     0.00000438    0.00000537    0.00192155
     atom  102 type  1   force =     0.00001452    0.00001132   -0.00001035
     atom  103 type  2   force =     0.00000256    0.00000252   -0.00329969
     atom  104 type  2   force =    -0.00000093    0.00002102    0.00002553
     atom  105 type  2   force =     0.00017605    0.00010427    0.00242406
     atom  106 type  2   force =     0.00000527   -0.00000205    0.00149765
     atom  107 type  2   force =    -0.00000226    0.00001773    0.00002905
     atom  108 type  2   force =    -0.01315688   -0.00751314    0.01739994
     atom  109 type  1   force =     0.00077815    0.00280322   -0.00169292
     atom  110 type  1   force =    -0.00000128   -0.00000453    0.00192655
     atom  111 type  1   force =     0.00000493   -0.00001141    0.00009643
     atom  112 type  2   force =     0.00000010   -0.00000138   -0.00328404
     atom  113 type  2   force =    -0.00003978    0.00002180    0.00002805
     atom  114 type  2   force =     0.00000053   -0.00034748    0.00218148
     atom  115 type  2   force =    -0.00000121    0.00000092    0.00150221
     atom  116 type  2   force =     0.00005379   -0.00001717    0.00007187
     atom  117 type  2   force =    -0.00000256    0.01484491    0.01720607
     atom  118 type  1   force =     0.00000477   -0.00060271    0.00000932
     atom  119 type  1   force =     0.00000339   -0.00001238    0.00192628
     atom  120 type  1   force =    -0.00002312    0.00000782   -0.00000192
     atom  121 type  2   force =     0.00000057   -0.00000133   -0.00329147
     atom  122 type  2   force =     0.00000141   -0.00004958    0.00002791
     atom  123 type  2   force =    -0.00025934   -0.00019834   -0.00020640
     atom  124 type  2   force =    -0.00000005   -0.00000130    0.00151573
     atom  125 type  2   force =    -0.00000066    0.00004021    0.00008318
     atom  126 type  2   force =    -0.00000075   -0.00002556    0.00084036
     atom  127 type  1   force =    -0.00059731    0.00024420   -0.00004721
     atom  128 type  1   force =    -0.00001014    0.00000848    0.00192184
     atom  129 type  1   force =     0.00000429   -0.00002747   -0.00001761
     atom  130 type  2   force =    -0.00000230    0.00000109   -0.00329168
     atom  131 type  2   force =    -0.00000439   -0.00000557   -0.00002298
     atom  132 type  2   force =    -0.00048299   -0.00021846   -0.00033078
     atom  133 type  2   force =    -0.00000444   -0.00000263    0.00149506
     atom  134 type  2   force =    -0.00001911    0.00002046   -0.00001544
     atom  135 type  2   force =    -0.00010227   -0.00022799    0.00061575
     atom  136 type  1   force =     0.00252884   -0.00068236   -0.00166905
     atom  137 type  1   force =     0.00000691   -0.00000097    0.00192186
     atom  138 type  1   force =    -0.00001120    0.00001579   -0.00000554
     atom  139 type  2   force =    -0.00000187    0.00000097   -0.00329517
     atom  140 type  2   force =    -0.00000537   -0.00000532    0.00000013
     atom  141 type  2   force =    -0.00017697    0.00010257    0.00242343
     atom  142 type  2   force =    -0.00000729   -0.00000000    0.00149620
     atom  143 type  2   force =     0.00000004   -0.00001961    0.00005201
     atom  144 type  2   force =     0.01312237   -0.00749840    0.01740195
     atom  145 type  3   force =     0.00000047    0.00152046    0.00050091
     atom  146 type  4   force =     0.00003484   -0.00084919   -0.02803211

     Total force =     0.054304     Total SCF correction =     0.002053

     BFGS Geometry Optimization
     Energy error            =      0.0E+00 Ry
     Gradient error          =      2.8E-02 Ry/Bohr

     number of scf cycles    =   1
     number of bfgs steps    =   0

     energy             new  =  -26031.7799320512 Ry

     new trust radius        =       0.0280449871 bohr
     new conv_thr            =       0.0000010000 Ry


[...]
     atom   70 type  2   force =     0.00000721   -0.00000297    0.00151105
     atom   71 type  2   force =    -0.00006079   -0.00003255   -0.00004002
     atom   72 type  2   force =    -0.00008258   -0.00017749   -0.00009678
     atom   73 type  1   force =     0.00012118    0.00005056    0.00008493
     atom   74 type  1   force =     0.00000087   -0.00000003    0.00189850
     atom   75 type  1   force =     0.00000590    0.00000137    0.00000347
     atom   76 type  2   force =    -0.00000012    0.00000033   -0.00327915
     atom   77 type  2   force =    -0.00000352   -0.00000590    0.00001913
     atom   78 type  2   force =     0.00072592   -0.00041275    0.00049025
     atom   79 type  2   force =     0.00000617   -0.00000061    0.00150028
     atom   80 type  2   force =     0.00001747   -0.00000204    0.00002078
     atom   81 type  2   force =     0.00007178   -0.00005432    0.00011588
     atom   82 type  1   force =    -0.00000296   -0.00001774    0.00011443
     atom   83 type  1   force =    -0.00000061    0.00000105    0.00189770
     atom   84 type  1   force =    -0.00001522    0.00000112   -0.00001151
     atom   85 type  2   force =     0.00000036    0.00000019   -0.00327845
     atom   86 type  2   force =     0.00001338   -0.00002278    0.00000361
     atom   87 type  2   force =     0.00017500    0.00015662   -0.00024366
     atom   88 type  2   force =     0.00000250    0.00000738    0.00149939
     atom   89 type  2   force =    -0.00001423   -0.00000355    0.00000732
     atom   90 type  2   force =    -0.00002415   -0.00005065   -0.00009969
     atom   91 type  1   force =     0.00012368    0.00016681    0.00008512
     atom   92 type  1   force =    -0.00000045   -0.00000084    0.00189555
     atom   93 type  1   force =    -0.00000004    0.00000684    0.00000184
     atom   94 type  2   force =     0.00000029    0.00000028   -0.00327848
     atom   95 type  2   force =    -0.00000976    0.00001718    0.00000124
     atom   96 type  2   force =     0.00000043    0.00093729    0.00043123
     atom   97 type  2   force =    -0.00000017    0.00000310    0.00149798
     atom   98 type  2   force =    -0.00001444   -0.00000575    0.00000102
     atom   99 type  2   force =    -0.00000020   -0.00008214   -0.00004536
     atom  100 type  1   force =     0.00000131    0.00001312    0.00059592
     atom  101 type  1   force =    -0.00000010    0.00000163    0.00189609
     atom  102 type  1   force =    -0.00000441   -0.00000046    0.00000447
     atom  103 type  2   force =     0.00000019    0.00000042   -0.00327898
     atom  104 type  2   force =    -0.00000092    0.00001037    0.00002400
     atom  105 type  2   force =     0.00030140    0.00016113   -0.00027623
     atom  106 type  2   force =     0.00000626    0.00000133    0.00149611
     atom  107 type  2   force =     0.00000021    0.00001279    0.00001433
     atom  108 type  2   force =     0.00034371    0.00024660   -0.00031233
     atom  109 type  1   force =    -0.00012104    0.00005140    0.00008438
     atom  110 type  1   force =    -0.00000142   -0.00000004    0.00189851
     atom  111 type  1   force =     0.00000068    0.00000616    0.00002800
     atom  112 type  2   force =     0.00000025    0.00000032   -0.00327985
     atom  113 type  2   force =     0.00000231   -0.00000589    0.00001993
     atom  114 type  2   force =     0.00000020   -0.00015595   -0.00034515
     atom  115 type  2   force =    -0.00000022    0.00000158    0.00151061
     atom  116 type  2   force =    -0.00001906   -0.00000335    0.00001843
     atom  117 type  2   force =    -0.00000014   -0.00053026   -0.00040258
     atom  118 type  1   force =    -0.00000029   -0.00000980   -0.00013921
     atom  119 type  1   force =    -0.00000032    0.00000001    0.00189877
     atom  120 type  1   force =    -0.00001837    0.00001990   -0.00001476
     atom  121 type  2   force =     0.00000017    0.00000040   -0.00327931
     atom  122 type  2   force =    -0.00000022    0.00001794   -0.00000472
     atom  123 type  2   force =    -0.00003086   -0.00030340    0.00011808
     atom  124 type  2   force =     0.00000489   -0.00000169    0.00151235
     atom  125 type  2   force =    -0.00000037    0.00005362   -0.00004272
     atom  126 type  2   force =     0.00013096    0.00013284    0.00000751
     atom  127 type  1   force =     0.00001981   -0.00002957   -0.00019588
     atom  128 type  1   force =    -0.00000258   -0.00000243    0.00190115
     atom  129 type  1   force =     0.00001106   -0.00002196   -0.00000032
     atom  130 type  2   force =     0.00000024    0.00000016   -0.00327979
     atom  131 type  2   force =     0.00003398    0.00001167    0.00002110
     atom  132 type  2   force =    -0.00041853    0.00010517    0.00019684
     atom  133 type  2   force =    -0.00000955   -0.00000492    0.00148870
     atom  134 type  2   force =    -0.00002495   -0.00001358    0.00008509
     atom  135 type  2   force =     0.00018715    0.00004240   -0.00004274
     atom  136 type  1   force =    -0.00002441   -0.00011612    0.00004720
     atom  137 type  1   force =    -0.00000206    0.00000099    0.00189906
     atom  138 type  1   force =     0.00000455    0.00000016    0.00000534
     atom  139 type  2   force =     0.00000038    0.00000042   -0.00327898
     atom  140 type  2   force =     0.00000998   -0.00000552   -0.00000897
     atom  141 type  2   force =    -0.00030213    0.00016143   -0.00027608
     atom  142 type  2   force =    -0.00000660    0.00000133    0.00149602
     atom  143 type  2   force =     0.00006030   -0.00003373   -0.00004042
     atom  144 type  2   force =    -0.00034125    0.00024459   -0.00031608
     atom  145 type  3   force =    -0.00000197   -0.00019541   -0.00025820
     atom  146 type  4   force =    -0.00000097   -0.00011289   -0.00054935

     Total force =     0.002764     Total SCF correction =     0.000302
     SCF correction compared to forces is large: reduce conv_thr to get better values
     Energy error            =      1.8E-05 Ry
     Gradient error          =      9.4E-04 Ry/Bohr

     bfgs converged in  17 scf cycles and  16 bfgs steps
     (criteria: energy <  1.0E-04 Ry, force <  1.0E-03 Ry/Bohr)

     End of BFGS Geometry Optimization

     Final energy             =  -26031.7955092122 Ry

     File ./outdir/pwscf.bfgs deleted, as requested
Begin final coordinates

ATOMIC_POSITIONS (angstrom)
Mo               1.5728247267        2.7153501643        6.0894864628
Mo               1.5769197498        0.9104407117       -6.0872367793    0   0   0
Mo               0.0001191334        1.8210431015       -0.0001433044
S                0.0000044503        0.0000077495       -7.6506323570    0   0   0
S                1.5764200418        0.9106858876       -1.5665827121
S                0.0058149371        1.8256003853        4.5043776979
S                0.0000053241        0.0000068460       -4.5222282367    0   0   0
S                1.5775834180        0.9102794000        1.5656702482
S               -0.0090975865        1.8078223337        7.6461986662
Mo              -0.0186224086        5.4662276009        6.0826372417
Mo               0.0000011799        3.6417399547       -6.0872367793    0   0   0
Mo              -1.5767894941        4.5518866728        0.0004288150
S               -1.5769141197        2.7313069925       -7.6506323570    0   0   0
S               -0.0002815014        3.6418383749       -1.5656309547
S               -1.5729403868        4.5518102628        4.4981967638
S               -1.5769132459        2.7313060890       -4.5222282367    0   0   0
S                0.0015998438        3.6423868048        1.5672108527
S               -1.5934907303        4.5616753522        7.6439243501
Mo              -1.5799065754        8.1941866924        6.0726176771
Mo              -1.5769173901        6.3730391977       -6.0872367793    0   0   0
Mo              -3.1538570437        7.2833343051       -0.0023127629
S               -3.1538326896        5.4626062355       -7.6506323570    0   0   0
S               -1.5762310448        6.3722477198       -1.5662203132
S               -3.1538712746        7.2868244563        4.5014750397
S               -3.1538318159        5.4626053320       -4.5222282367    0   0   0
S               -1.5772551011        6.3738057431        1.5656158861
S               -3.1538609790        7.2813490994        7.6370375062
Mo               3.1538031543       -0.0026233917        6.0695655849
Mo              -3.1538359601        9.1043384407       -6.0872367793    0   0   0
Mo              -4.7312044977       10.0148369119       -0.0014364461
S               -4.7307512596        8.1939054785       -7.6506323570    0   0   0
S               -3.1538585188        9.1046833470       -1.5672120604
S               -4.7288686344       10.0130702032        4.4995591989
S               -4.7307503859        8.1939045750       -4.5222282367    0   0   0
S               -3.1538613574        9.1041314120        1.5641959057
S               -4.7165670394       10.0130354135        7.6407356382
Mo               4.7347874569        2.7153506638        6.0894803173
Mo               4.7307503218        0.9104407117       -6.0872367793    0   0   0
Mo               3.1538097840        1.8209524412       -0.0014896999
S                3.1538350223        0.0000077495       -7.6506323570    0   0   0
S                4.7312036838        0.9106851867       -1.5665790427
S                3.1538027956        1.8269307170        4.5137017003
S                3.1538358961        0.0000068460       -4.5222282367    0   0   0
S                4.7300387634        0.9102813990        1.5656709645
S                3.1538085434        1.8101135939        7.6496210861
Mo               3.1538064709        5.4613111842        6.1454594966
Mo               3.1538317519        3.6417399547       -6.0872367793    0   0   0
Mo               1.5771329909        4.5524618085       -0.0009126135
S                1.5769164523        2.7313069925       -7.6506323570    0   0   0
S                3.1538070687        3.6420132820       -1.5665864108
S                1.6041333548        4.5654358087        4.5648934157
S                1.5769173261        2.7313060890       -4.5222282367    0   0   0
S                3.1538075321        3.6417816575        1.5663196849
S                1.4466853980        4.4784996470        7.7256701507
Mo               1.5564806736        8.1944746072        6.0961258004
Mo               1.5769131819        6.3730391977       -6.0872367793    0   0   0
Mo               0.0003919271        7.2835894922       -0.0004380645
S               -0.0000021176        5.4626062355       -7.6506323570    0   0   0
S                1.5769368792        6.3732313817       -1.5662108992
S                0.0020882584        7.2826307449        4.5100933562
S               -0.0000012439        5.4626053320       -4.5222282367    0   0   0
S                1.5771669577        6.3727315528        1.5671134501
S               -0.0183960721        7.2756107837        7.6513713657
Mo               6.2927879337        0.0024953086        6.0729312376
Mo              -0.0000053881        9.1043384407       -6.0872367793    0   0   0
Mo              -1.5765158338       10.0148357249       -0.0014350215
S               -1.5769206876        8.1939054785       -7.6506323570    0   0   0
S                0.0009436521        9.1044245620       -1.5658990104
S               -1.5788809345       10.0130685955        4.4995484669
S               -1.5769198139        8.1939045750       -4.5222282367    0   0   0
S                0.0004471150        9.1047392740        1.5671178456
S               -1.5911688392       10.0130277825        7.6407237068
Mo               7.8774284034        2.7416573715        6.0766183847
Mo               7.8845808939        0.9104407117       -6.0872367793    0   0   0
Mo               6.3075024124        1.8210443285       -0.0001429962
S                6.3076655943        0.0000077495       -7.6506323570    0   0   0
S                7.8847350445        0.9103897522       -1.5652458342
S                6.3017956458        1.8256019610        4.5043678253
S                6.3076664681        0.0000068460       -4.5222282367    0   0   0
S                7.8841771200        0.9103380542        1.5675659225
S                6.3167095190        1.8078167721        7.6461853223
Mo               6.3262304405        5.4662355379        6.0826454482
Mo               6.3076623239        3.6417399547       -6.0872367793    0   0   0
Mo               4.7304818430        4.5524624267       -0.0009129117
S                4.7307470244        2.7313069925       -7.6506323570    0   0   0
S                6.3078980782        3.6418405602       -1.5656308521
S                4.7034835785        4.5654439088        4.5648950527
S                4.7307478981        2.7313060890       -4.5222282367    0   0   0
S                6.3060151552        3.6423896015        1.5672120737
S                4.8609334801        4.4784928434        7.7256735000
Mo               4.7511109656        8.1944818892        6.0961386898
Mo               4.7307437539        6.3730391977       -6.0872367793    0   0   0
Mo               3.1538042550        7.2831432040       -0.0003673058
S                3.1538284544        5.4626062355       -7.6506323570    0   0   0
S                4.7306726093        6.3732343296       -1.5662124224
S                3.1538022128        7.2539602258        4.5696418820
S                3.1538293281        5.4626053320       -4.5222282367    0   0   0
S                4.7304424231        6.3727343442        1.5671113753
S                3.1537945391        7.4397952049        7.7334049548
Mo               9.4614622480       -0.0015009765        6.1316443764
Mo               3.1538251839        9.1043384407       -6.0872367793    0   0   0
Mo               1.5773287195       10.0146643237        0.0003172461
S                1.5769098844        8.1939054785       -7.6506323570    0   0   0
S                3.1538050753        9.1042990022       -1.5654352326
S                1.5957699930       10.0209316389        4.5480719324
S                1.5769107581        8.1939045750       -4.5222282367    0   0   0
S                3.1538015981        9.1028300661        1.5681927968
S                1.4686526123        9.9794606373        7.6997645374
Mo              -1.5698207603        2.7416527431        6.0766243521
Mo              11.0384114659        0.9104407117       -6.0872367793    0   0   0
Mo               9.4614739095        1.8204705453        0.0003606158
S                9.4614961663        0.0000077495       -7.6506323570    0   0   0
S               11.0382146192        0.9103892264       -1.5652472625
S                9.4614655404        1.7961520588        4.5476146047
S                9.4614970401        0.0000068460       -4.5222282367    0   0   0
S               11.0387728748        0.9103416596        1.5675720002
S                9.4614616642        1.9261510724        7.6919683340
Mo              -3.1538579395        5.4624566691        6.0623402946
Mo               9.4614928959        3.6417399547       -6.0872367793    0   0   0
Mo               7.8844058966        4.5518860450        0.0004304895
S                7.8845775964        2.7313069925       -7.6506323570    0   0   0
S                9.4614705204        3.6413411338       -1.5647711181
S                7.8805453812        4.5518216667        4.4981975917
S                7.8845784701        2.7313060890       -4.5222282367    0   0   0
S                9.4614710766        3.6406472645        1.5681449310
S                7.9011035504        4.5616779379        7.6439254020
Mo              -4.7278266422        8.1941907001        6.0726308286
Mo               7.8845743259        6.3730391977       -6.0872367793    0   0   0
Mo               6.3072169033        7.2835894189       -0.0004380925
S                6.3076590264        5.4626062355       -7.6506323570    0   0   0
S                7.8838422787        6.3722469039       -1.5662196957
S                6.3055062514        7.2826398440        4.5101035859
S                6.3076599001        5.4626053320       -4.5222282367    0   0   0
S                7.8848631688        6.3738067897        1.5656151939
S                6.3259882915        7.2756162922        7.6513876734
Mo               0.0148152025        0.0024992618        6.0729481453
Mo               6.3076557559        9.1043384407       -6.0872367793    0   0   0
Mo               4.7302748003       10.0146663252        0.0003191277
S                4.7307404564        8.1939054785       -7.6506323570    0   0   0
S                6.3066574235        9.1044282910       -1.5658988064
S                4.7118180278       10.0209340418        4.5480823507
S                4.7307413301        8.1939045750       -4.5222282367    0   0   0
S                6.3071581870        9.1047420111        1.5671184677
S                4.8389200168        9.9794694933        7.6997837125
Pt               3.1538149243        5.4751140593        8.8882573746
Pd               9.4614584323       -0.0093270620        9.0135447538
End final coordinates



     Writing all to output data dir ./outdir/pwscf.save/ :
     XML data file, charge density, pseudopotentials, collected wavefunctions
 
     init_run     :     97.61s CPU     99.92s WALL (       1 calls)
     electrons    :  68021.17s CPU  69010.28s WALL (      17 calls)
     update_pot   :     21.37s CPU     22.04s WALL (      16 calls)
     forces       :   1227.45s CPU   1254.35s WALL (      17 calls)
     force_dftd3  :      6.48s CPU      6.79s WALL (      17 calls)

     Called by init_run:
     wfcinit      :     79.46s CPU     80.61s WALL (       1 calls)
     potinit      :      1.11s CPU      1.20s WALL (       1 calls)
     hinit0       :      9.23s CPU      9.29s WALL (       1 calls)

     Called by electrons:
     c_bands      :  59184.73s CPU  59770.08s WALL (     203 calls)
     sum_band     :   7598.78s CPU   7803.16s WALL (     203 calls)
     v_of_rho     :     59.36s CPU     66.44s WALL (     206 calls)
     newd         :   1048.02s CPU   1244.84s WALL (     206 calls)
     PAW_pot      :    171.62s CPU    173.00s WALL (     222 calls)
     mix_rho      :     15.14s CPU     17.26s WALL (     203 calls)
     energy_dftd3 :      3.67s CPU      3.69s WALL (      17 calls)

     Called by c_bands:
     init_us_2    :    288.32s CPU    289.50s WALL (    1760 calls)
     init_us_2:cp :    288.31s CPU    289.49s WALL (    1760 calls)
     cegterg      :  57965.01s CPU  58544.79s WALL (     831 calls)

     Called by *egterg:
     cdiaghg      :   2866.82s CPU   2988.87s WALL (    9606 calls)
     h_psi        :  30434.40s CPU  30616.15s WALL (    9734 calls)
     s_psi        :   6481.11s CPU   6507.53s WALL (    9734 calls)
     g_psi        :     66.42s CPU     66.67s WALL (    8899 calls)

     Called by h_psi:
     h_psi:calbec :   6341.54s CPU   6361.27s WALL (    9734 calls)
     vloc_psi     :  17431.42s CPU  17516.68s WALL (    9734 calls)
     add_vuspsi   :   6517.72s CPU   6546.45s WALL (    9734 calls)

     General routines
     calbec       :   9085.77s CPU   9113.61s WALL (   10882 calls)
     fft          :     43.46s CPU     49.93s WALL (    2861 calls)
     ffts         :      2.62s CPU      2.72s WALL (     409 calls)
     fftw         :  12939.25s CPU  13004.23s WALL ( 4509058 calls)
     interpolate  :      4.86s CPU      5.33s WALL (     206 calls)
 
     Parallel routines
 
     PWSCF        :     19h22m CPU     19h40m WALL

 
   This run was terminated on:   7:11:19  10Mar2024            

=------------------------------------------------------------------------------=
   JOB DONE.
=------------------------------------------------------------------------------=
