
     Program PWSCF v.7.3 starts on 13Apr2024 at 11:25:12 

     This program is part of the open-source Quantum ESPRESSO suite
     for quantum simulation of materials; please cite
         "P. Giannozzi et al., J. Phys.:Condens. Matter 21 395502 (2009);
         "P. Giannozzi et al., J. Phys.:Condens. Matter 29 465901 (2017);
         "P. Giannozzi et al., J. Chem. Phys. 152 154105 (2020);
          URL http://www.quantum-espresso.org", 
     in publications or presentations arising from this work. More details at
     http://www.quantum-espresso.org/quote

     Parallel version (MPI & OpenMP), running on      36 processor cores
     Number of MPI processes:                36
     Threads/MPI process:                     1

     MPI processes distributed on     1 nodes
     560464 MiB available memory on the printing compute node when the environment starts
 
     Waiting for input...
     Reading input from standard input
Warning: card &CELL ignored
Warning: card / ignored

     Current dimensions of program PWSCF are:
     Max number of different atomic species (ntypx) = 10
     Max number of k-points (npk) =  40000
     Max angular momentum in pseudopotentials (lmaxx) =  4
     file Mo.pbe-spn-kjpaw_psl.1.0.0.UPF: wavefunction(s)  4S 4D renormalized
     file S.pbe-n-kjpaw_psl.1.0.0.UPF: wavefunction(s)  3S 3P renormalized
     file Pt.pbe-spfn-kjpaw_psl.1.0.0.UPF: wavefunction(s)  5P 4F renormalized
     file Pd.pbe-spn-kjpaw_psl.1.0.0.UPF: wavefunction(s)  4S 5S 4D renormalized
 
     R & G space division:  proc/nbgrp/npool/nimage =      36
     Subspace diagonalization in iterative solution of the eigenvalue problem:
     one sub-group per band group will be used
     scalapack distributed-memory algorithm (size of sub-group:  6*  6 procs)

 
     Parallelization info
     --------------------
     sticks:   dense  smooth     PW     G-vecs:    dense   smooth      PW
     Min         585     334     89               198743    85850   11735
     Max         586     335     90               198750    85861   11748
     Sum       21073   12049   3205              7154885  3090769  422587
 
     Using Slab Decomposition
 


     bravais-lattice index     =            0
     lattice parameter (alat)  =      23.8199  a.u.
     unit-cell volume          =   33861.0370 (a.u.)^3
     number of atoms/cell      =          195
     number of atomic types    =            4
     number of electrons       =      1746.00
     number of Kohn-Sham states=         1048
     kinetic-energy cutoff     =      77.0000  Ry
     charge density cutoff     =     539.0000  Ry
     scf convergence threshold =      1.0E-06
     mixing beta               =       0.2000
     number of iterations used =            8  plain     mixing
     energy convergence thresh.=      1.0E-04
     force convergence thresh. =      1.0E-03
     Exchange-correlation= SLA  PW   PBX  PBC
                           (   1   4   3   4   0   0   0)
     nstep                     =         1000


     Effective Screening Medium Method
     =================================
     Boundary Conditions: Vacuum-Slab-Vacuum
     total charge in unit cell        =   0.0000
     grid points for fit at edges     =        4 
 

     celldm(1)=  23.819920  celldm(2)=   0.000000  celldm(3)=   0.000000
     celldm(4)=   0.000000  celldm(5)=   0.000000  celldm(6)=   0.000000

     crystal axes: (cart. coord. in units of alat)
               a(1) = (   1.000000   0.000000   0.000000 )  
               a(2) = (  -0.499999   0.866026   0.000000 )  
               a(3) = (   0.000000   0.000000   2.893000 )  

     reciprocal axes: (cart. coord. in units 2 pi/alat)
               b(1) = (  1.000000  0.577349  0.000000 )  
               b(2) = (  0.000000  1.154700  0.000000 )  
               b(3) = (  0.000000  0.000000  0.345662 )  


     PseudoPot. # 1 for Mo read from file:
     ./pseudo/Mo.pbe-spn-kjpaw_psl.1.0.0.UPF
     MD5 check sum: 317bf72632116215fd98f72de1686f13
     Pseudo is Projector augmented-wave + core cor, Zval = 14.0
     Generated using 'atomic' code by A. Dal Corso  v.7.2
     Shape of augmentation charge: PSQ
     Using radial grid of 1229 points,  6 beta functions with: 
                l(1) =   0
                l(2) =   0
                l(3) =   1
                l(4) =   1
                l(5) =   2
                l(6) =   2
     Q(r) pseudized with 0 coefficients 


     PseudoPot. # 2 for S  read from file:
     ./pseudo/S.pbe-n-kjpaw_psl.1.0.0.UPF
     MD5 check sum: 8b7b5302570d38d5e87fed6a1065abda
     Pseudo is Projector augmented-wave + core cor, Zval =  6.0
     Generated using 'atomic' code by A. Dal Corso  v.7.2
     Shape of augmentation charge: PSQ
     Using radial grid of 1151 points,  6 beta functions with: 
                l(1) =   0
                l(2) =   0
                l(3) =   1
                l(4) =   1
                l(5) =   2
                l(6) =   2
     Q(r) pseudized with 0 coefficients 


     PseudoPot. # 3 for Pt read from file:
     ./pseudo/Pt.pbe-spfn-kjpaw_psl.1.0.0.UPF
     MD5 check sum: 620096ebf4e6ebacc94de60fd67efcb5
     Pseudo is Projector augmented-wave + core cor, Zval = 32.0
     Generated using 'atomic' code by A. Dal Corso  v.7.2
     Shape of augmentation charge: PSQ
     Using radial grid of 1277 points,  8 beta functions with: 
                l(1) =   0
                l(2) =   0
                l(3) =   1
                l(4) =   1
                l(5) =   2
                l(6) =   2
                l(7) =   3
                l(8) =   3
     Q(r) pseudized with 0 coefficients 


     PseudoPot. # 4 for Pd read from file:
     ./pseudo/Pd.pbe-spn-kjpaw_psl.1.0.0.UPF
     MD5 check sum: a60571a671f2502b8a6a4569d20a6edb
     Pseudo is Projector augmented-wave + core cor, Zval = 18.0
     Generated using 'atomic' code by A. Dal Corso  v.7.2
     Shape of augmentation charge: PSQ
     Using radial grid of 1235 points,  6 beta functions with: 
                l(1) =   0
                l(2) =   0
                l(3) =   1
                l(4) =   1
                l(5) =   2
                l(6) =   2
     Q(r) pseudized with 0 coefficients 


     atomic species   valence    mass     pseudopotential
     Mo               14.00    95.95000     Mo( 1.00)
     S                 6.00    32.06000     S ( 1.00)
     Pt               32.00   195.08400     Pt( 1.00)
     Pd               18.00   106.42000     Pd( 1.00)

     No symmetry found



   Cartesian axes

     site n.     atom                  positions (alat units)
         1        Mo     tau(   1) = (   0.0000010   0.1443372  -0.7272732  )
         2        Mo     tau(   2) = (   0.1249995   0.0721706  -0.2424038  )
         3        S      tau(   3) = (   0.0000015   0.1443386  -0.3667807  )
         4        S      tau(   4) = (   0.1250010   0.0721682  -0.6030489  )
         5        S      tau(   5) = (   0.1250010   0.0721683  -0.8514963  )
         6        S      tau(   6) = (   0.0000015   0.1443389  -0.1180260  )
         7        Mo     tau(   7) = (   0.0000005   0.1443381   0.2424561  )
         8        Mo     tau(   8) = (   0.1251981   0.0716023   0.7276027  )
         9        S      tau(   9) = (  -0.0003031   0.1454842   0.6052312  )
        10        S      tau(  10) = (   0.1249558   0.0721599   0.3668208  )
        11        S      tau(  11) = (   0.1250088   0.0721517   0.1180857  )
        12        S      tau(  12) = (  -0.0004157   0.1382876   0.8564685  )
        13        Mo     tau(  13) = (  -0.1249989   0.3608437  -0.7272732  )
        14        Mo     tau(  14) = (   0.0000030   0.2886752  -0.2424042  )
        15        S      tau(  15) = (  -0.1249977   0.3608450  -0.3667802  )
        16        S      tau(  16) = (   0.0000012   0.2886747  -0.6030489  )
        17        S      tau(  17) = (   0.0000012   0.2886748  -0.8514963  )
        18        S      tau(  18) = (  -0.1249977   0.3608454  -0.1180274  )
        19        Mo     tau(  19) = (  -0.1249623   0.3608201   0.2425155  )
        20        Mo     tau(  20) = (  -0.0007801   0.2872696   0.7308518  )
        21        S      tau(  21) = (  -0.1240398   0.3604107   0.6055268  )
        22        S      tau(  22) = (   0.0000411   0.2886546   0.3669163  )
        23        S      tau(  23) = (   0.0000035   0.2886726   0.1180964  )
        24        S      tau(  24) = (  -0.1315418   0.3638985   0.8543850  )
        25        Mo     tau(  25) = (  -0.2499987   0.5773502  -0.7272732  )
        26        Mo     tau(  26) = (  -0.1249977   0.5051839  -0.2424055  )
        27        S      tau(  27) = (  -0.2499981   0.5773518  -0.3667809  )
        28        S      tau(  28) = (  -0.1249986   0.5051812  -0.6030489  )
        29        S      tau(  29) = (  -0.1249986   0.5051813  -0.8514963  )
        30        S      tau(  30) = (  -0.2499979   0.5773512  -0.1180266  )
        31        Mo     tau(  31) = (  -0.2499787   0.5773156   0.2425145  )
        32        Mo     tau(  32) = (  -0.1271807   0.5060660   0.7281741  )
        33        S      tau(  33) = (  -0.2502658   0.5775034   0.6017985  )
        34        S      tau(  34) = (  -0.1249543   0.5051367   0.3669386  )
        35        S      tau(  35) = (  -0.1249864   0.5051552   0.1181399  )
        36        S      tau(  36) = (  -0.2525628   0.5785576   0.8514793  )
        37        Mo     tau(  37) = (  -0.3749985   0.7938567  -0.7272732  )
        38        Mo     tau(  38) = (  -0.2500001   0.7216874  -0.2424031  )
        39        S      tau(  39) = (  -0.3749980   0.7938584  -0.3667800  )
        40        S      tau(  40) = (  -0.2499984   0.7216877  -0.6030489  )
        41        S      tau(  41) = (  -0.2499984   0.7216878  -0.8514963  )
        42        S      tau(  42) = (  -0.3749982   0.7938585  -0.1180264  )
        43        Mo     tau(  43) = (  -0.3750043   0.7938372   0.2424536  )
        44        Mo     tau(  44) = (  -0.2503619   0.7218808   0.7263407  )
        45        S      tau(  45) = (  -0.3755748   0.7941519   0.6023691  )
        46        S      tau(  46) = (  -0.2500067   0.7216811   0.3668312  )
        47        S      tau(  47) = (  -0.2499793   0.7216445   0.1181126  )
        48        S      tau(  48) = (  -0.3746959   0.7932047   0.8515893  )
        49        Mo     tau(  49) = (   0.2500010   0.1443372  -0.7272732  )
        50        Mo     tau(  50) = (   0.3750034   0.0721723  -0.2424032  )
        51        S      tau(  51) = (   0.2500017   0.1443391  -0.3667788  )
        52        S      tau(  52) = (   0.3750010   0.0721682  -0.6030489  )
        53        S      tau(  53) = (   0.3750010   0.0721683  -0.8514963  )
        54        S      tau(  54) = (   0.2500016   0.1443391  -0.1180271  )
        55        Mo     tau(  55) = (   0.2500033   0.1443124   0.2424881  )
        56        Mo     tau(  56) = (   0.3752595   0.0716472   0.7255395  )
        57        S      tau(  57) = (   0.2498544   0.1431280   0.6011361  )
        58        S      tau(  58) = (   0.3750516   0.0721435   0.3668117  )
        59        S      tau(  59) = (   0.3750079   0.0721203   0.1180977  )
        60        S      tau(  60) = (   0.2517312   0.1427646   0.8506906  )
        61        Mo     tau(  61) = (   0.1250012   0.3608437  -0.7272732  )
        62        Mo     tau(  62) = (   0.2500029   0.2886782  -0.2424031  )
        63        S      tau(  63) = (   0.1250024   0.3608455  -0.3667794  )
        64        S      tau(  64) = (   0.2500012   0.2886747  -0.6030489  )
        65        S      tau(  65) = (   0.2500012   0.2886748  -0.8514963  )
        66        S      tau(  66) = (   0.1250021   0.3608455  -0.1180270  )
        67        Mo     tau(  67) = (   0.1249995   0.3608273   0.2424838  )
        68        Mo     tau(  68) = (   0.2535704   0.2866116   0.7259154  )
        69        S      tau(  69) = (   0.1241106   0.3617788   0.6079553  )
        70        S      tau(  70) = (   0.2499752   0.2886689   0.3668869  )
        71        S      tau(  71) = (   0.2500098   0.2886475   0.1181123  )
        72        S      tau(  72) = (   0.1336503   0.3523048   0.8541313  )
        73        Mo     tau(  73) = (   0.0000014   0.5773502  -0.7272732  )
        74        Mo     tau(  74) = (   0.1250045   0.5051840  -0.2424036  )
        75        S      tau(  75) = (   0.0000030   0.5773520  -0.3667799  )
        76        S      tau(  76) = (   0.1250014   0.5051812  -0.6030489  )
        77        S      tau(  77) = (   0.1250014   0.5051813  -0.8514963  )
        78        S      tau(  78) = (   0.0000026   0.5773517  -0.1180274  )
        79        Mo     tau(  79) = (   0.0000276   0.5772927   0.2425177  )
        80        Mo     tau(  80) = (   0.1255270   0.5059369   0.7313762  )
        81        S      tau(  81) = (   0.0011816   0.5764663   0.6064450  )
        82        S      tau(  82) = (   0.1250222   0.5051261   0.3669341  )
        83        S      tau(  83) = (   0.1249880   0.5051467   0.1180950  )
        84        S      tau(  84) = (  -0.0088763   0.5830479   0.8565830  )
        85        Mo     tau(  85) = (  -0.1249984   0.7938567  -0.7272732  )
        86        Mo     tau(  86) = (   0.0000069   0.7216896  -0.2424039  )
        87        S      tau(  87) = (  -0.1249975   0.7938582  -0.3667782  )
        88        S      tau(  88) = (   0.0000016   0.7216877  -0.6030489  )
        89        S      tau(  89) = (   0.0000016   0.7216878  -0.8514963  )
        90        S      tau(  90) = (  -0.1249973   0.7938582  -0.1180279  )
        91        Mo     tau(  91) = (  -0.1249699   0.7938095   0.2424907  )
        92        Mo     tau(  92) = (  -0.0004895   0.7231014   0.7275053  )
        93        S      tau(  93) = (  -0.1248847   0.7932555   0.6014963  )
        94        S      tau(  94) = (   0.0000405   0.7216116   0.3668908  )
        95        S      tau(  95) = (   0.0000242   0.7216332   0.1181249  )
        96        S      tau(  96) = (  -0.1259194   0.7949777   0.8510667  )
        97        Mo     tau(  97) = (   0.5000010   0.1443372  -0.7272732  )
        98        Mo     tau(  98) = (   0.6250001   0.0721662  -0.2424040  )
        99        S      tau(  99) = (   0.5000017   0.1443386  -0.3667801  )
       100        S      tau( 100) = (   0.6250010   0.0721682  -0.6030489  )
       101        S      tau( 101) = (   0.6250010   0.0721683  -0.8514963  )
       102        S      tau( 102) = (   0.5000020   0.1443388  -0.1180261  )
       103        Mo     tau( 103) = (   0.5000355   0.1442968   0.2424343  )
       104        Mo     tau( 104) = (   0.6251054   0.0720760   0.7269638  )
       105        S      tau( 105) = (   0.5007812   0.1439212   0.6015111  )
       106        S      tau( 106) = (   0.6250309   0.0721295   0.3668346  )
       107        S      tau( 107) = (   0.6250410   0.0721183   0.1180973  )
       108        S      tau( 108) = (   0.4998652   0.1442971   0.8504179  )
       109        Mo     tau( 109) = (   0.3750012   0.3608437  -0.7272732  )
       110        Mo     tau( 110) = (   0.4999991   0.2886761  -0.2424038  )
       111        S      tau( 111) = (   0.3750012   0.3608452  -0.3667804  )
       112        S      tau( 112) = (   0.5000012   0.2886747  -0.6030489  )
       113        S      tau( 113) = (   0.5000012   0.2886748  -0.8514963  )
       114        S      tau( 114) = (   0.3750014   0.3608455  -0.1180261  )
       115        Mo     tau( 115) = (   0.3749988   0.3608207   0.2424913  )
       116        Mo     tau( 116) = (   0.5005676   0.2886014   0.7258090  )
       117        S      tau( 117) = (   0.3761076   0.3615161   0.6013079  )
       118        S      tau( 118) = (   0.5000282   0.2886169   0.3668001  )
       119        S      tau( 119) = (   0.5000158   0.2886613   0.1180928  )
       120        S      tau( 120) = (   0.3768791   0.3600665   0.8508100  )
       121        Mo     tau( 121) = (   0.2500014   0.5773502  -0.7272732  )
       122        Mo     tau( 122) = (   0.3749983   0.5051825  -0.2424043  )
       123        S      tau( 123) = (   0.2500017   0.5773519  -0.3667810  )
       124        S      tau( 124) = (   0.3750014   0.5051812  -0.6030489  )
       125        S      tau( 125) = (   0.3750014   0.5051813  -0.8514963  )
       126        S      tau( 126) = (   0.2500018   0.5773519  -0.1180256  )
       127        Mo     tau( 127) = (   0.2499755   0.5773110   0.2424609  )
       128        Mo     tau( 128) = (   0.3758691   0.5051374   0.7277779  )
       129        S      tau( 129) = (   0.2483182   0.5768077   0.6062789  )
       130        S      tau( 130) = (   0.3749464   0.5051844   0.3668408  )
       131        S      tau( 131) = (   0.3749944   0.5051486   0.1180923  )
       132        S      tau( 132) = (   0.2574557   0.5818559   0.8585037  )
       133        Mo     tau( 133) = (   0.1250016   0.7938567  -0.7272732  )
       134        Mo     tau( 134) = (   0.2499995   0.7216883  -0.2424036  )
       135        S      tau( 135) = (   0.1250024   0.7938578  -0.3667813  )
       136        S      tau( 136) = (   0.2500016   0.7216877  -0.6030489  )
       137        S      tau( 137) = (   0.2500016   0.7216878  -0.8514963  )
       138        S      tau( 138) = (   0.1250024   0.7938579  -0.1180253  )
       139        Mo     tau( 139) = (   0.1250229   0.7938069   0.2425006  )
       140        Mo     tau( 140) = (   0.2504358   0.7224862   0.7284223  )
       141        S      tau( 141) = (   0.1254429   0.7935457   0.6029055  )
       142        S      tau( 142) = (   0.2500049   0.7216116   0.3668842  )
       143        S      tau( 143) = (   0.2500022   0.7216616   0.1181021  )
       144        S      tau( 144) = (   0.1246626   0.7944127   0.8519137  )
       145        Mo     tau( 145) = (   0.7500010   0.1443372  -0.7272732  )
       146        Mo     tau( 146) = (   0.8750038   0.0721696  -0.2424038  )
       147        S      tau( 147) = (   0.7500016   0.1443382  -0.3667789  )
       148        S      tau( 148) = (   0.8750010   0.0721682  -0.6030489  )
       149        S      tau( 149) = (   0.8750010   0.0721683  -0.8514963  )
       150        S      tau( 150) = (   0.7500016   0.1443384  -0.1180279  )
       151        Mo     tau( 151) = (   0.7500289   0.1443141   0.2424936  )
       152        Mo     tau( 152) = (   0.8748115   0.0715393   0.7280420  )
       153        S      tau( 153) = (   0.7503587   0.1440662   0.6027403  )
       154        S      tau( 154) = (   0.8750369   0.0721618   0.3668742  )
       155        S      tau( 155) = (   0.8750002   0.0721408   0.1181001  )
       156        S      tau( 156) = (   0.7494385   0.1444101   0.8516821  )
       157        Mo     tau( 157) = (   0.6250012   0.3608437  -0.7272732  )
       158        Mo     tau( 158) = (   0.7500028   0.2886769  -0.2424041  )
       159        S      tau( 159) = (   0.6250015   0.3608451  -0.3667792  )
       160        S      tau( 160) = (   0.7500012   0.2886747  -0.6030489  )
       161        S      tau( 161) = (   0.7500012   0.2886748  -0.8514963  )
       162        S      tau( 162) = (   0.6250016   0.3608454  -0.1180280  )
       163        Mo     tau( 163) = (   0.6250302   0.3608127   0.2424760  )
       164        Mo     tau( 164) = (   0.7487590   0.2885376   0.7272130  )
       165        S      tau( 165) = (   0.6254237   0.3608917   0.6015174  )
       166        S      tau( 166) = (   0.7500486   0.2886525   0.3668797  )
       167        S      tau( 167) = (   0.7500385   0.2886557   0.1181169  )
       168        S      tau( 168) = (   0.6239430   0.3610912   0.8510113  )
       169        Mo     tau( 169) = (   0.5000014   0.5773502  -0.7272732  )
       170        Mo     tau( 170) = (   0.6250029   0.5051841  -0.2424047  )
       171        S      tau( 171) = (   0.5000014   0.5773518  -0.3667794  )
       172        S      tau( 172) = (   0.6250014   0.5051812  -0.6030489  )
       173        S      tau( 173) = (   0.6250014   0.5051813  -0.8514963  )
       174        S      tau( 174) = (   0.5000016   0.5773516  -0.1180277  )
       175        Mo     tau( 175) = (   0.4999859   0.5773250   0.2424709  )
       176        Mo     tau( 176) = (   0.6245890   0.5053660   0.7261562  )
       177        S      tau( 177) = (   0.4993068   0.5776651   0.6022414  )
       178        S      tau( 178) = (   0.6249823   0.5051501   0.3668388  )
       179        S      tau( 179) = (   0.6250205   0.5051637   0.1181147  )
       180        S      tau( 180) = (   0.5009766   0.5773609   0.8515797  )
       181        Mo     tau( 181) = (   0.3750016   0.7938567  -0.7272732  )
       182        Mo     tau( 182) = (   0.5000025   0.7216901  -0.2424039  )
       183        S      tau( 183) = (   0.3750019   0.7938578  -0.3667793  )
       184        S      tau( 184) = (   0.5000016   0.7216877  -0.6030489  )
       185        S      tau( 185) = (   0.5000016   0.7216878  -0.8514963  )
       186        S      tau( 186) = (   0.3750020   0.7938579  -0.1180272  )
       187        Mo     tau( 187) = (   0.3749951   0.7938323   0.2424893  )
       188        Mo     tau( 188) = (   0.4998599   0.7217391   0.7271366  )
       189        S      tau( 189) = (   0.3746033   0.7939741   0.6029663  )
       190        S      tau( 190) = (   0.4999946   0.7216688   0.3668260  )
       191        S      tau( 191) = (   0.4999891   0.7216628   0.1180901  )
       192        S      tau( 192) = (   0.3755955   0.7938624   0.8526444  )
       193        Pt     tau( 193) = (   0.1194898   0.4990527   0.9549993  )
       194        Pd     tau( 194) = (   0.0026419   0.2990244   0.9662205  )
       195        Pt     tau( 195) = (   0.3758838   0.5051187   0.9695391  )

     --------------------------------------------
     DFT-D3 Dispersion Correction (3-body terms):
     --------------------------------------------
       Reference C6 values for interpolation: 

         atom   Coordination number   C6
         S          0.000           268.01
         S          0.995           261.99
         S          1.990           251.62
         Mo         0.000          1691.79
         Mo         1.942          1004.01
         Mo        11.056           674.22
         Pd         0.000          1217.01
         Pd         1.863           573.90
         Pd         5.710           531.75
         Pt         0.000           782.29
         Pt         1.919           692.72
         Pt         6.667           673.75

       Values used:

         atom   Coordination number  R0_AB[au]  C6      C8
         Mo        10.208            3.547    674.22  77634.20
         Mo        10.221            3.547    674.22  77634.20
         S          3.858            3.128    251.62  12327.25
         S          3.859            3.128    251.62  12327.25
         S          3.758            3.128    251.62  12327.25
         S          3.859            3.128    251.62  12327.25
         Mo        10.221            3.547    674.22  77634.20
         Mo        10.229            3.547    674.22  77634.20
         S          3.849            3.128    251.62  12327.25
         S          3.859            3.128    251.62  12327.25
         S          3.859            3.128    251.62  12327.25
         S          4.621            3.128    251.62  12327.25
         Mo        10.208            3.547    674.22  77634.20
         Mo        10.221            3.547    674.22  77634.20
         S          3.858            3.128    251.62  12327.25
         S          3.859            3.128    251.62  12327.25
         S          3.758            3.128    251.62  12327.25
         S          3.859            3.128    251.62  12327.25
         Mo        10.222            3.547    674.22  77634.20
         Mo        10.721            3.547    674.22  77634.20
         S          3.862            3.128    251.62  12327.25
         S          3.850            3.128    251.62  12327.25
         S          3.859            3.128    251.62  12327.25
         S          4.668            3.128    251.62  12327.25
         Mo        10.208            3.547    674.22  77634.20
         Mo        10.221            3.547    674.22  77634.20
         S          3.858            3.128    251.62  12327.25
         S          3.859            3.128    251.62  12327.25
         S          3.758            3.128    251.62  12327.25
         S          3.859            3.128    251.62  12327.25
         Mo        10.220            3.547    674.22  77634.20
         Mo        10.171            3.547    674.22  77634.20
         S          3.843            3.128    251.62  12327.25
         S          3.853            3.128    251.62  12327.25
         S          3.859            3.128    251.62  12327.25
         S          3.844            3.128    251.62  12327.25
         Mo        10.208            3.547    674.22  77634.20
         Mo        10.220            3.547    674.22  77634.20
         S          3.858            3.128    251.62  12327.25
         S          3.859            3.128    251.62  12327.25
         S          3.758            3.128    251.62  12327.25
         S          3.859            3.128    251.62  12327.25
         Mo        10.220            3.547    674.22  77634.20
         Mo        10.260            3.547    674.22  77634.20
         S          3.856            3.128    251.62  12327.25
         S          3.861            3.128    251.62  12327.25
         S          3.859            3.128    251.62  12327.25
         S          3.809            3.128    251.62  12327.25
         Mo        10.208            3.547    674.22  77634.20
         Mo        10.221            3.547    674.22  77634.20
         S          3.858            3.128    251.62  12327.25
         S          3.859            3.128    251.62  12327.25
         S          3.758            3.128    251.62  12327.25
         S          3.859            3.128    251.62  12327.25
         Mo        10.220            3.547    674.22  77634.20
         Mo        10.278            3.547    674.22  77634.20
         S          3.837            3.128    251.62  12327.25
         S          3.863            3.128    251.62  12327.25
         S          3.859            3.128    251.62  12327.25
         S          3.842            3.128    251.62  12327.25
         Mo        10.208            3.547    674.22  77634.20
         Mo        10.221            3.547    674.22  77634.20
         S          3.858            3.128    251.62  12327.25
         S          3.859            3.128    251.62  12327.25
         S          3.758            3.128    251.62  12327.25
         S          3.859            3.128    251.62  12327.25
         Mo        10.222            3.547    674.22  77634.20
         Mo        10.187            3.547    674.22  77634.20
         S          3.873            3.128    251.62  12327.25
         S          3.855            3.128    251.62  12327.25
         S          3.859            3.128    251.62  12327.25
         S          5.656            3.128    251.62  12327.25
         Mo        10.208            3.547    674.22  77634.20
         Mo        10.221            3.547    674.22  77634.20
         S          3.858            3.128    251.62  12327.25
         S          3.859            3.128    251.62  12327.25
         S          3.758            3.128    251.62  12327.25
         S          3.859            3.128    251.62  12327.25
         Mo        10.222            3.547    674.22  77634.20
         Mo        10.878            3.547    674.22  77634.20
         S          3.860            3.128    251.62  12327.25
         S          3.850            3.128    251.62  12327.25
         S          3.859            3.128    251.62  12327.25
         S          4.673            3.128    251.62  12327.25
         Mo        10.208            3.547    674.22  77634.20
         Mo        10.221            3.547    674.22  77634.20
         S          3.858            3.128    251.62  12327.25
         S          3.859            3.128    251.62  12327.25
         S          3.758            3.128    251.62  12327.25
         S          3.859            3.128    251.62  12327.25
         Mo        10.220            3.547    674.22  77634.20
         Mo        10.215            3.547    674.22  77634.20
         S          3.850            3.128    251.62  12327.25
         S          3.856            3.128    251.62  12327.25
         S          3.859            3.128    251.62  12327.25
         S          3.827            3.128    251.62  12327.25
         Mo        10.208            3.547    674.22  77634.20
         Mo        10.221            3.547    674.22  77634.20
         S          3.858            3.128    251.62  12327.25
         S          3.859            3.128    251.62  12327.25
         S          3.758            3.128    251.62  12327.25
         S          3.859            3.128    251.62  12327.25
         Mo        10.220            3.547    674.22  77634.20
         Mo        10.250            3.547    674.22  77634.20
         S          3.856            3.128    251.62  12327.25
         S          3.861            3.128    251.62  12327.25
         S          3.859            3.128    251.62  12327.25
         S          3.791            3.128    251.62  12327.25
         Mo        10.208            3.547    674.22  77634.20
         Mo        10.221            3.547    674.22  77634.20
         S          3.858            3.128    251.62  12327.25
         S          3.859            3.128    251.62  12327.25
         S          3.758            3.128    251.62  12327.25
         S          3.859            3.128    251.62  12327.25
         Mo        10.220            3.547    674.22  77634.20
         Mo        10.288            3.547    674.22  77634.20
         S          3.841            3.128    251.62  12327.25
         S          3.863            3.128    251.62  12327.25
         S          3.859            3.128    251.62  12327.25
         S          4.784            3.128    251.62  12327.25
         Mo        10.208            3.547    674.22  77634.20
         Mo        10.221            3.547    674.22  77634.20
         S          3.858            3.128    251.62  12327.25
         S          3.859            3.128    251.62  12327.25
         S          3.758            3.128    251.62  12327.25
         S          3.859            3.128    251.62  12327.25
         Mo        10.222            3.547    674.22  77634.20
         Mo        10.847            3.547    674.22  77634.20
         S          3.852            3.128    251.62  12327.25
         S          3.858            3.128    251.62  12327.25
         S          3.859            3.128    251.62  12327.25
         S          5.627            3.128    251.62  12327.25
         Mo        10.208            3.547    674.22  77634.20
         Mo        10.221            3.547    674.22  77634.20
         S          3.858            3.128    251.62  12327.25
         S          3.859            3.128    251.62  12327.25
         S          3.758            3.128    251.62  12327.25
         S          3.859            3.128    251.62  12327.25
         Mo        10.221            3.547    674.22  77634.20
         Mo        10.237            3.547    674.22  77634.20
         S          3.863            3.128    251.62  12327.25
         S          3.856            3.128    251.62  12327.25
         S          3.859            3.128    251.62  12327.25
         S          3.765            3.128    251.62  12327.25
         Mo        10.208            3.547    674.22  77634.20
         Mo        10.221            3.547    674.22  77634.20
         S          3.858            3.128    251.62  12327.25
         S          3.859            3.128    251.62  12327.25
         S          3.758            3.128    251.62  12327.25
         S          3.859            3.128    251.62  12327.25
         Mo        10.221            3.547    674.22  77634.20
         Mo        10.241            3.547    674.22  77634.20
         S          3.864            3.128    251.62  12327.25
         S          3.857            3.128    251.62  12327.25
         S          3.859            3.128    251.62  12327.25
         S          3.767            3.128    251.62  12327.25
         Mo        10.208            3.547    674.22  77634.20
         Mo        10.220            3.547    674.22  77634.20
         S          3.858            3.128    251.62  12327.25
         S          3.859            3.128    251.62  12327.25
         S          3.758            3.128    251.62  12327.25
         S          3.859            3.128    251.62  12327.25
         Mo        10.220            3.547    674.22  77634.20
         Mo        10.226            3.547    674.22  77634.20
         S          3.854            3.128    251.62  12327.25
         S          3.857            3.128    251.62  12327.25
         S          3.859            3.128    251.62  12327.25
         S          3.822            3.128    251.62  12327.25
         Mo        10.208            3.547    674.22  77634.20
         Mo        10.221            3.547    674.22  77634.20
         S          3.858            3.128    251.62  12327.25
         S          3.859            3.128    251.62  12327.25
         S          3.758            3.128    251.62  12327.25
         S          3.859            3.128    251.62  12327.25
         Mo        10.220            3.547    674.22  77634.20
         Mo        10.277            3.547    674.22  77634.20
         S          3.854            3.128    251.62  12327.25
         S          3.861            3.128    251.62  12327.25
         S          3.859            3.128    251.62  12327.25
         S          4.789            3.128    251.62  12327.25
         Mo        10.208            3.547    674.22  77634.20
         Mo        10.221            3.547    674.22  77634.20
         S          3.858            3.128    251.62  12327.25
         S          3.859            3.128    251.62  12327.25
         S          3.758            3.128    251.62  12327.25
         S          3.859            3.128    251.62  12327.25
         Mo        10.221            3.547    674.22  77634.20
         Mo        10.261            3.547    674.22  77634.20
         S          3.853            3.128    251.62  12327.25
         S          3.860            3.128    251.62  12327.25
         S          3.859            3.128    251.62  12327.25
         S          3.835            3.128    251.62  12327.25
         Pt         4.685            3.168    673.75  70061.90
         Pd         4.114            3.168    531.75  48720.88
         Pt         3.893            3.168    692.72  72035.25

         Molecular C6 ( Ry / a.u.^6 ) =  14174368.34


     number of k points=     4  Gaussian smearing, width (Ry)=  0.0100
                       cart. coord. in units 2pi/alat
        k(    1) = (   0.0000000   0.0000000   0.0000000), wk =   0.5000000
        k(    2) = (   0.0000000  -0.5773499   0.0000000), wk =   0.5000000
        k(    3) = (  -0.5000000  -0.2886744   0.0000000), wk =   0.5000000
        k(    4) = (  -0.5000000  -0.8660242   0.0000000), wk =   0.5000000

     Dense  grid:  7154885 G-vectors     FFT dimensions: ( 180, 180, 512)

     Smooth grid:  3090769 G-vectors     FFT dimensions: ( 135, 135, 400)

     Estimated max dynamical RAM per process >       4.33 GB

     Estimated total dynamical RAM >     155.86 GB

     Initial potential from superposition of free atoms

     starting charge    1745.9388, renormalised to    1746.0000

     negative rho (up, down):  8.732E-04 0.000E+00
     Starting wfcs are 1196 randomized atomic wfcs
     Checking if some PAW data can be deallocated... 

     total cpu time spent up to now is      180.1 secs

     Self-consistent Calculation

     iteration #  1     ecut=    77.00 Ry     beta= 0.20
     Davidson diagonalization with overlap
     ethr =  1.00E-02,  avg # of iterations =  2.0

     Threshold (ethr) on eigenvalues was too large:
     Diagonalizing with lowered threshold

     Davidson diagonalization with overlap
     ethr =  1.68E-04,  avg # of iterations = 17.0

     negative rho (up, down):  2.394E-04 0.000E+00

     total cpu time spent up to now is     2248.8 secs

     total energy              =  -35654.84661425 Ry
     estimated scf accuracy    <       6.59536619 Ry

     iteration #  2     ecut=    77.00 Ry     beta= 0.20
     Davidson diagonalization with overlap
     ethr =  3.78E-04,  avg # of iterations =  1.0

     negative rho (up, down):  2.642E-05 0.000E+00

     total cpu time spent up to now is     2626.2 secs

     total energy              =  -35653.52101382 Ry
     estimated scf accuracy    <       3.42740792 Ry

     iteration #  3     ecut=    77.00 Ry     beta= 0.20
     Davidson diagonalization with overlap
     ethr =  1.96E-04,  avg # of iterations = 16.5

     negative rho (up, down):  1.879E-05 0.000E+00

     total cpu time spent up to now is     3176.1 secs

     total energy              =  -35653.92137581 Ry
     estimated scf accuracy    <       1.19721552 Ry

     iteration #  4     ecut=    77.00 Ry     beta= 0.20
     Davidson diagonalization with overlap
     ethr =  6.86E-05,  avg # of iterations = 14.5

     negative rho (up, down):  1.898E-05 0.000E+00

     total cpu time spent up to now is     4115.3 secs

     total energy              =  -35654.62341792 Ry
     estimated scf accuracy    <       0.43918760 Ry

     iteration #  5     ecut=    77.00 Ry     beta= 0.20
     Davidson diagonalization with overlap
     ethr =  2.52E-05,  avg # of iterations = 14.8

     negative rho (up, down):  3.732E-05 0.000E+00

     total cpu time spent up to now is     4879.1 secs

     total energy              =  -35654.82953424 Ry
     estimated scf accuracy    <       0.20303238 Ry

     iteration #  6     ecut=    77.00 Ry     beta= 0.20
     Davidson diagonalization with overlap
     c_bands:  1 eigenvalues not converged
     c_bands:  2 eigenvalues not converged
     ethr =  1.16E-05,  avg # of iterations = 18.0

     negative rho (up, down):  9.971E-05 0.000E+00

     total cpu time spent up to now is     5577.6 secs

     total energy              =  -35654.86370484 Ry
     estimated scf accuracy    <       0.15265117 Ry

     iteration #  7     ecut=    77.00 Ry     beta= 0.20
     Davidson diagonalization with overlap
     c_bands:  2 eigenvalues not converged
     c_bands:  2 eigenvalues not converged
     ethr =  8.74E-06,  avg # of iterations = 14.5

     negative rho (up, down):  6.609E-04 0.000E+00

     total cpu time spent up to now is     6051.9 secs

     total energy              =  -35654.86508840 Ry
     estimated scf accuracy    <       0.07028987 Ry

     iteration #  8     ecut=    77.00 Ry     beta= 0.20
     Davidson diagonalization with overlap
     c_bands:  5 eigenvalues not converged
     c_bands:  4 eigenvalues not converged
     c_bands:  4 eigenvalues not converged
     ethr =  4.03E-06,  avg # of iterations = 29.2

     negative rho (up, down):  5.575E-04 0.000E+00

     total cpu time spent up to now is     7395.1 secs

     total energy              =  -35654.90375597 Ry
     estimated scf accuracy    <       0.13655125 Ry

     iteration #  9     ecut=    77.00 Ry     beta= 0.20
     Davidson diagonalization with overlap
     c_bands:  5 eigenvalues not converged
     c_bands:  2 eigenvalues not converged
     c_bands:  3 eigenvalues not converged
     ethr =  4.03E-06,  avg # of iterations = 45.5

     negative rho (up, down):  4.277E-04 0.000E+00

     total cpu time spent up to now is     8477.4 secs

     total energy              =  -35654.89417059 Ry
     estimated scf accuracy    <       0.03794630 Ry

     iteration # 10     ecut=    77.00 Ry     beta= 0.20
     Davidson diagonalization with overlap
     c_bands:  3 eigenvalues not converged
     c_bands:  4 eigenvalues not converged
     c_bands:  5 eigenvalues not converged
     ethr =  2.17E-06,  avg # of iterations = 60.5

     negative rho (up, down):  4.733E-04 0.000E+00

     total cpu time spent up to now is    10147.8 secs

     total energy              =  -35654.91518713 Ry
     estimated scf accuracy    <       0.00242749 Ry

     iteration # 11     ecut=    77.00 Ry     beta= 0.20
     Davidson diagonalization with overlap
     c_bands:  1 eigenvalues not converged
     c_bands:  1 eigenvalues not converged
     c_bands:  1 eigenvalues not converged
     ethr =  1.39E-07,  avg # of iterations = 25.0

     negative rho (up, down):  5.512E-04 0.000E+00

     total cpu time spent up to now is    12093.3 secs

     total energy              =  -35654.92125791 Ry
     estimated scf accuracy    <       0.00981792 Ry

     iteration # 12     ecut=    77.00 Ry     beta= 0.20
     Davidson diagonalization with overlap
     ethr =  1.39E-07,  avg # of iterations =  5.8

     negative rho (up, down):  8.775E-04 0.000E+00

     total cpu time spent up to now is    12543.4 secs

     total energy              =  -35654.91841165 Ry
     estimated scf accuracy    <       0.00428462 Ry

     iteration # 13     ecut=    77.00 Ry     beta= 0.20
     Davidson diagonalization with overlap
     ethr =  1.39E-07,  avg # of iterations =  9.0

     negative rho (up, down):  7.795E-04 0.000E+00

     total cpu time spent up to now is    13779.3 secs

     total energy              =  -35654.92189519 Ry
     estimated scf accuracy    <       0.01256632 Ry

     iteration # 14     ecut=    77.00 Ry     beta= 0.20
     Davidson diagonalization with overlap
     ethr =  1.39E-07,  avg # of iterations =  1.8

     negative rho (up, down):  7.573E-04 0.000E+00

     total cpu time spent up to now is    14184.6 secs

     total energy              =  -35654.92071350 Ry
     estimated scf accuracy    <       0.00586567 Ry

     iteration # 15     ecut=    77.00 Ry     beta= 0.20
     Davidson diagonalization with overlap
     ethr =  1.39E-07,  avg # of iterations =  4.0

     negative rho (up, down):  8.216E-04 0.000E+00

     total cpu time spent up to now is    14608.5 secs

     total energy              =  -35654.91831511 Ry
     estimated scf accuracy    <       0.00355647 Ry

     iteration # 16     ecut=    77.00 Ry     beta= 0.20
     Davidson diagonalization with overlap
     ethr =  1.39E-07,  avg # of iterations =  6.2

     negative rho (up, down):  8.368E-04 0.000E+00

     total cpu time spent up to now is    15459.8 secs

     total energy              =  -35654.92165419 Ry
     estimated scf accuracy    <       0.00324653 Ry

     iteration # 17     ecut=    77.00 Ry     beta= 0.20
     Davidson diagonalization with overlap
     ethr =  1.39E-07,  avg # of iterations =  1.0

     negative rho (up, down):  8.697E-04 0.000E+00

     total cpu time spent up to now is    15836.1 secs

     total energy              =  -35654.92075053 Ry
     estimated scf accuracy    <       0.00154505 Ry

     iteration # 18     ecut=    77.00 Ry     beta= 0.20
     Davidson diagonalization with overlap
     ethr =  8.85E-08,  avg # of iterations =  5.0

     negative rho (up, down):  8.757E-04 0.000E+00

     total cpu time spent up to now is    16360.3 secs

     total energy              =  -35654.92106990 Ry
     estimated scf accuracy    <       0.00006620 Ry

     iteration # 19     ecut=    77.00 Ry     beta= 0.20
     Davidson diagonalization with overlap
     c_bands:  1 eigenvalues not converged
     c_bands:  2 eigenvalues not converged
     ethr =  3.79E-09,  avg # of iterations = 19.2

     negative rho (up, down):  8.753E-04 0.000E+00

     total cpu time spent up to now is    17807.1 secs

     total energy              =  -35654.92136755 Ry
     estimated scf accuracy    <       0.00008821 Ry

     iteration # 20     ecut=    77.00 Ry     beta= 0.20
     Davidson diagonalization with overlap
     ethr =  3.79E-09,  avg # of iterations =  6.0

     negative rho (up, down):  8.734E-04 0.000E+00

     total cpu time spent up to now is    18257.3 secs

     total energy              =  -35654.92137612 Ry
     estimated scf accuracy    <       0.00001028 Ry

     iteration # 21     ecut=    77.00 Ry     beta= 0.20
     Davidson diagonalization with overlap
     c_bands:  2 eigenvalues not converged
     ethr =  5.89E-10,  avg # of iterations = 20.8

     negative rho (up, down):  8.747E-04 0.000E+00

     total cpu time spent up to now is    20522.8 secs

     total energy              =  -35654.92141333 Ry
     estimated scf accuracy    <       0.00012919 Ry

     iteration # 22     ecut=    77.00 Ry     beta= 0.20
     Davidson diagonalization with overlap
     ethr =  5.89E-10,  avg # of iterations =  2.8

     negative rho (up, down):  8.846E-04 0.000E+00

     total cpu time spent up to now is    20948.7 secs

     total energy              =  -35654.92134604 Ry
     estimated scf accuracy    <       0.00008951 Ry

     iteration # 23     ecut=    77.00 Ry     beta= 0.20
     Davidson diagonalization with overlap
     ethr =  5.89E-10,  avg # of iterations = 16.0

     negative rho (up, down):  8.847E-04 0.000E+00

     total cpu time spent up to now is    22303.9 secs

     total energy              =  -35654.92139122 Ry
     estimated scf accuracy    <       0.00002751 Ry

     iteration # 24     ecut=    77.00 Ry     beta= 0.20
     Davidson diagonalization with overlap
     ethr =  5.89E-10,  avg # of iterations =  1.0

     negative rho (up, down):  8.816E-04 0.000E+00

     total cpu time spent up to now is    22679.7 secs

     total energy              =  -35654.92138401 Ry
     estimated scf accuracy    <       0.00001379 Ry

     iteration # 25     ecut=    77.00 Ry     beta= 0.20
     Davidson diagonalization with overlap
     ethr =  5.89E-10,  avg # of iterations = 10.0

     negative rho (up, down):  8.834E-04 0.000E+00

     total cpu time spent up to now is    23428.9 secs

     End of self-consistent calculation

          k = 0.0000 0.0000 0.0000 (386245 PWs)   bands (ev):

  -103.0685-102.5894 -88.8115 -71.3991 -71.3904 -71.3799 -71.3752 -71.3636
   -71.3450 -71.3331 -70.9300 -70.9291 -70.8964 -70.8848 -70.8724 -70.8556
   -70.8445 -66.6603 -66.6603 -66.6591 -66.6551 -66.6444 -66.6392 -66.6391
   -66.6390 -66.6390 -66.6390 -66.6390 -66.6390 -66.6390 -66.6389 -66.6389
   -66.6388 -66.6386 -66.6377 -66.6377 -66.6377 -66.6377 -66.6377 -66.6377
   -66.6352 -66.6313 -66.6218 -66.6212 -66.6179 -66.6178 -66.6177 -66.6177
   -66.6176 -66.6176 -66.6176 -66.6176 -66.6176 -66.6176 -66.6176 -66.6176
   -66.6176 -66.6175 -66.6174 -66.6174 -66.6174 -66.6171 -66.6163 -66.6163
   -66.6163 -66.6163 -66.6163 -66.6163 -66.6163 -66.6163 -66.6163 -66.6163
   -66.6092 -66.6048 -66.6008 -66.5975 -66.5937 -66.5858 -66.5823 -66.5677
   -66.5500 -57.3307 -57.2644 -57.2447 -56.9046 -56.8154 -56.7326 -54.7007
   -54.5870 -54.5285 -40.9876 -40.9876 -40.9876 -40.9876 -40.9875 -40.9874
   -40.9870 -40.9870 -40.9870 -40.9738 -40.9693 -40.9660 -40.9124 -40.9123
   -40.9123 -40.9123 -40.9123 -40.9123 -40.9122 -40.9122 -40.9122 -40.9121
   -40.9120 -40.9120 -40.9116 -40.9116 -40.9116 -40.9116 -40.9116 -40.9116
   -40.9028 -40.8972 -40.8899 -40.8877 -40.8756 -40.8722 -40.8282 -40.8199
   -40.8199 -40.8194 -40.7989 -40.7939 -40.7887 -40.7861 -40.7860 -40.7859
   -40.7859 -40.7859 -40.7859 -40.7859 -40.7859 -40.7859 -40.7858 -40.7857
   -40.7857 -40.7851 -40.7851 -40.7851 -40.7851 -40.7851 -40.7851 -40.7842
   -40.7785 -40.7784 -40.7782 -40.7782 -40.7782 -40.7782 -40.7782 -40.7782
   -40.7782 -40.7782 -40.7780 -40.7779 -40.7776 -40.7776 -40.7776 -40.7776
   -40.7776 -40.7776 -40.7775 -40.7757 -40.7732 -40.7730 -40.7693 -40.7586
   -40.7569 -40.7527 -40.7510 -40.7510 -40.7509 -40.7509 -40.7509 -40.7509
   -40.7509 -40.7509 -40.7509 -40.7508 -40.7507 -40.7507 -40.7501 -40.7501
   -40.7501 -40.7501 -40.7501 -40.7500 -40.7491 -40.7477 -40.7440 -40.7421
   -40.7393 -40.7367 -40.7365 -40.7364 -40.7364 -40.7363 -40.7363 -40.7363
   -40.7363 -40.7363 -40.7362 -40.7362 -40.7362 -40.7362 -40.7362 -40.7361
   -40.7361 -40.7360 -40.7357 -40.7357 -40.7356 -40.7356 -40.7356 -40.7356
   -40.7356 -40.7356 -40.7355 -40.7355 -40.7355 -40.7328 -40.7312 -40.7288
   -40.7276 -40.7232 -40.7221 -40.7175 -40.7063 -40.7036 -40.6726 -40.6726
   -40.6726 -40.6726 -40.6724 -40.6724 -40.6717 -40.6717 -40.6717 -40.6568
   -40.6493 -40.6440 -40.6256 -40.6256 -40.6255 -40.6255 -40.6254 -40.6254
   -40.6254 -40.6254 -40.6254 -40.6253 -40.6252 -40.6251 -40.6245 -40.6245
   -40.6245 -40.6245 -40.6245 -40.6245 -40.6053 -40.6022 -40.5979 -40.5932
   -40.5874 -40.5849 -40.5778 -40.5778 -40.5778 -40.5778 -40.5769 -40.5769
   -40.5441 -40.5306 -20.3412 -20.1409 -20.0402 -19.9287 -19.7182 -19.6809
   -19.4315 -19.3196 -19.3029 -19.2894 -19.2740 -19.2736 -19.2704 -19.2610
   -19.2533 -19.2369 -19.1885 -19.1872 -19.1808 -19.1716 -19.1664 -19.1541
   -19.0834 -19.0822 -19.0779 -19.0745 -19.0728 -19.0684 -18.9645 -18.8910
   -18.8496 -18.7785 -18.6729 -18.6353 -18.6076 -18.5902 -18.5461 -18.5317
   -18.5005 -18.4968 -18.4661 -18.4607 -18.4561 -18.4427 -18.4123 -18.3939
   -18.3411 -18.3317 -18.3215 -18.3197 -18.3064 -18.2877 -18.2534 -18.2441
   -18.2224 -18.2206 -18.2180 -18.2111 -18.2053 -18.2014 -18.1690 -18.1580
   -18.1569 -18.1557 -18.1554 -18.1545 -18.1485 -18.1288 -18.1254 -18.1210
   -18.1200 -18.1146 -18.1130 -18.1119 -18.1114 -18.1075 -18.0925 -18.0865
   -18.0858 -18.0842 -18.0752 -18.0713 -18.0688 -18.0567 -18.0533 -18.0471
   -18.0433 -18.0418 -18.0386 -18.0286 -18.0265 -18.0242 -17.9961 -17.9896
   -17.9820 -17.9818 -17.9758 -17.9616 -17.9582 -17.9563 -17.9540 -17.9346
   -17.9300 -17.9290 -17.9202 -17.9165 -17.9128 -17.9071 -17.9057 -17.9029
   -17.8947 -17.8945 -17.8939 -17.8773 -17.8766 -17.8765 -17.8676 -17.8654
   -17.8642 -17.8602 -17.8586 -17.8573 -17.8335 -17.8330 -17.8327 -17.8315
   -17.8309 -17.8302 -12.3643 -12.2877 -12.1459 -12.0298 -11.9000 -11.8426
   -11.8369 -11.8310 -11.7596 -11.7222 -11.7176 -11.6917 -11.6411 -11.5992
   -11.5940 -11.5902 -11.5503 -11.4397 -11.4286 -11.4111 -11.3630 -11.3198
   -11.2898 -11.2761 -11.2747 -11.2672 -11.2604 -11.2386 -11.2074 -11.1732
   -11.1703 -11.1664 -11.1653 -11.1624 -11.1582 -11.1331 -11.1242 -11.1180
   -11.1109 -11.1021 -11.0987 -11.0951 -11.0874 -11.0843 -11.0715 -11.0652
   -11.0474 -11.0279 -11.0067 -11.0017 -10.9993 -10.9852 -10.9825 -10.9681
   -10.9520 -10.9416 -10.9356 -10.9309 -10.9283 -10.9256 -10.9167 -10.9041
   -10.8982 -10.8887 -10.8814 -10.8790 -10.8766 -10.8683 -10.8673 -10.8658
   -10.8650 -10.8638 -10.8561 -10.8507 -10.8475 -10.8448 -10.8217 -10.8200
   -10.8169 -10.8150 -10.8142 -10.8098 -10.8087 -10.8077 -10.7989 -10.7742
   -10.7741 -10.7737 -10.7732 -10.7729 -10.7709 -10.7391 -10.7134 -10.7006
   -10.6829 -10.6695 -10.6493 -10.6359 -10.6301 -10.6230 -10.6087 -10.5998
   -10.4953 -10.4235 -10.3239 -10.2351 -10.2029 -10.1730 -10.1461 -10.0379
   -10.0049  -9.9895  -9.9521  -9.9336  -9.8876  -9.8651  -9.8524  -9.8439
    -9.8359  -9.8227  -9.8155  -9.8110  -9.8103  -9.8071  -9.8031  -9.8015
    -9.7939  -9.7903  -9.7869  -9.7861  -9.7828  -9.7780  -9.7598  -9.7468
    -9.7369  -9.7319  -9.6844  -9.6801  -9.6713  -9.6661  -9.6635  -9.6616
    -9.6578  -9.6556  -9.6548  -9.6540  -9.6515  -9.6498  -9.6270  -9.6155
    -9.6001  -9.5851  -9.5801  -9.5777  -9.5775  -9.5774  -9.5771  -9.5766
    -9.5760  -9.5679  -9.5655  -9.5486  -9.5441  -9.5383  -9.5216  -9.5104
    -9.4934  -9.4456  -9.4232  -9.4128  -9.4104  -9.4034  -9.4008  -9.3924
    -9.3870  -9.3806  -9.3717  -9.3611  -9.3524  -9.3411  -9.3131  -9.2974
    -9.2872  -9.2830  -9.2781  -9.2689  -9.2490  -9.2323  -9.2210  -9.2203
    -9.2189  -9.2175  -9.2167  -9.2060  -9.1928  -9.1793  -9.1549  -9.1484
    -9.1456  -9.1155  -9.1011  -9.0584  -9.0555  -9.0184  -9.0166  -9.0157
    -9.0116  -8.9934  -8.9848  -8.9839  -8.9732  -8.9542  -8.9535  -8.9532
    -8.9520  -8.9486  -8.9418  -8.9390  -8.9330  -8.9251  -8.8657  -8.8583
    -8.8575  -8.8574  -8.8568  -8.8567  -8.8540  -8.8189  -8.8033  -8.7973
    -8.7912  -8.7890  -8.7787  -8.7379  -8.7269  -8.7097  -8.7062  -8.7042
    -8.6961  -8.6806  -8.6665  -8.6326  -8.6294  -8.6288  -8.6276  -8.6264
    -8.6210  -8.5821  -8.5555  -8.4714  -8.4562  -8.4155  -8.4021  -8.4021
    -8.4001  -8.3971  -8.3963  -8.3909  -8.3902  -8.3835  -8.3513  -8.3177
    -8.3120  -8.3116  -8.3113  -8.3112  -8.3103  -8.3054  -8.2864  -8.2849
    -8.2845  -8.2842  -8.2829  -8.2808  -8.2586  -8.2567  -8.2565  -8.2563
    -8.2559  -8.2552  -8.2356  -8.1553  -8.1016  -8.0699  -7.9802  -7.9200
    -7.8985  -7.8929  -7.8908  -7.8579  -7.8158  -7.8045  -7.7947  -7.7741
    -7.7497  -7.7239  -7.6954  -7.6928  -7.6809  -7.6729  -7.6663  -7.6632
    -7.6528  -7.6406  -7.6345  -7.6337  -7.6232  -7.6169  -7.5956  -7.5889
    -7.5716  -7.5707  -7.5701  -7.5699  -7.5694  -7.5672  -7.5571  -7.5475
    -7.5447  -7.5432  -7.5430  -7.5415  -7.5397  -7.5369  -7.5250  -7.5202
    -7.5181  -7.5177  -7.5176  -7.5173  -7.5166  -7.5098  -7.5054  -7.4989
    -7.4760  -7.4726  -7.4656  -7.4542  -7.4493  -7.4366  -7.4163  -7.4054
    -7.3987  -7.3965  -7.3902  -7.3822  -7.3617  -7.3522  -7.3441  -7.3399
    -7.3366  -7.3318  -7.3283  -7.3265  -7.2937  -7.2863  -7.2859  -7.2681
    -7.2677  -7.2604  -7.2494  -7.2493  -7.2197  -7.2124  -7.1991  -7.1723
    -7.1646  -7.1499  -7.1317  -7.0974  -7.0532  -6.9885  -6.9845  -6.9536
    -6.9195  -6.9111  -6.9020  -6.8772  -6.8620  -6.8209  -6.8159  -6.8153
    -6.8093  -6.7795  -6.7515  -6.7405  -6.7344  -6.7331  -6.7310  -6.6973
    -6.6759  -6.6725  -6.6591  -6.6581  -6.6573  -6.6403  -6.6289  -6.6122
    -6.6096  -6.6015  -6.5943  -6.5902  -6.5735  -6.5597  -6.5528  -6.5501
    -6.5491  -6.5480  -6.5465  -6.5440  -6.5433  -6.5361  -6.5336  -6.5334
    -6.5331  -6.5330  -6.5329  -6.5326  -6.5193  -6.5061  -6.4856  -6.4771
    -6.4732  -6.4596  -6.4496  -6.4461  -6.4448  -6.4396  -6.4071  -6.3926
    -6.3737  -6.3685  -6.3661  -6.3659  -6.3651  -6.3617  -6.3483  -6.3311
    -6.3265  -6.3254  -6.3250  -6.3217  -6.3155  -6.3037  -6.2913  -6.2885
    -6.2883  -6.2873  -6.2865  -6.2855  -6.2499  -6.1583  -6.0470  -6.0073
    -5.8734  -5.7891  -5.7098  -5.5899  -5.5340  -5.4304  -5.3504  -5.3200
    -5.1827  -4.3479  -4.1858  -3.9275  -3.8889  -3.8873  -3.8835  -3.8750
    -3.8683  -3.8670  -3.8630  -3.8600  -3.8566  -3.8409  -3.8341  -3.7894
    -3.7499  -3.7427  -3.7254  -3.7242  -3.7203  -3.7168  -3.7111  -3.7101
    -3.7056  -3.6200  -3.6146  -3.5814  -3.5642  -3.5460  -3.5425  -3.5365
    -3.5287  -3.5205  -3.5118  -3.5074  -3.5070  -3.5062  -3.5008  -3.4973
    -3.4896  -3.4867  -3.4829  -3.4779  -3.4773  -3.4772  -3.4680  -3.4630
    -3.4616  -3.4590  -3.4534  -3.4451  -3.4443  -3.4436  -3.4411  -3.4381
    -3.4345  -3.4326  -3.4239  -3.4204  -3.4184  -3.3975  -3.3910  -3.3873
    -3.3851  -3.3837  -3.3797  -3.3777  -3.3737  -3.3700  -3.3596  -3.3446
    -3.3394  -3.3345  -3.3254  -3.3200  -3.3188  -3.3116  -3.3080  -3.2915
    -3.2594  -3.2466  -3.2384  -3.2343  -3.2302  -3.1431  -3.1250  -3.1155
    -3.1010  -3.0990  -3.0950  -3.0880  -3.0864  -3.0816  -3.0791  -3.0750
    -3.0464  -3.0383  -3.0253  -3.0152  -3.0132  -3.0103  -3.0083  -3.0059
    -3.0043  -3.0021  -2.9979  -2.9978  -2.9943  -2.9905  -2.9882  -2.9875
    -2.9753  -2.9736  -2.9704  -2.9695  -2.9684  -2.9678  -2.9645  -2.9630
    -2.9625  -2.9589  -2.9552  -2.9441  -2.9368  -2.9295  -2.9226  -2.9181
    -2.9069  -2.9035  -2.8977  -2.8753  -2.8418  -2.8412  -2.8412  -2.8410
    -2.8406  -2.8397  -2.8394  -2.8391  -2.8389  -2.8236  -2.8217  -2.8177
    -2.8063  -2.7905  -2.7766  -2.7714  -2.7604  -2.7508  -2.7486  -2.6997
    -2.6929  -2.6745  -2.6713  -2.6676  -2.6602  -2.6573  -2.6545  -2.6533
    -2.6478  -2.6423  -2.6131  -2.5977  -2.5813  -2.5780  -2.5714  -2.5042
    -2.4995  -2.4917  -2.4734  -2.4562  -2.4496  -2.4439  -2.4435  -2.4400

          k = 0.0000-0.5773 0.0000 (386352 PWs)   bands (ev):

  -103.0685-102.5894 -88.8115 -71.3991 -71.3904 -71.3799 -71.3752 -71.3636
   -71.3450 -71.3331 -70.9300 -70.9291 -70.8964 -70.8848 -70.8724 -70.8556
   -70.8445 -66.6543 -66.6541 -66.6541 -66.6540 -66.6539 -66.6528 -66.6528
   -66.6451 -66.6434 -66.6434 -66.6434 -66.6433 -66.6422 -66.6422 -66.6355
   -66.6325 -66.6285 -66.6284 -66.6283 -66.6283 -66.6283 -66.6283 -66.6282
   -66.6281 -66.6270 -66.6270 -66.6270 -66.6270 -66.6239 -66.6239 -66.6238
   -66.6237 -66.6226 -66.6226 -66.6222 -66.6207 -66.6179 -66.6176 -66.6176
   -66.6176 -66.6175 -66.6175 -66.6175 -66.6173 -66.6163 -66.6163 -66.6163
   -66.6163 -66.6139 -66.6132 -66.6131 -66.6131 -66.6131 -66.6119 -66.6119
   -66.6092 -66.6052 -66.6008 -66.5970 -66.5950 -66.5854 -66.5824 -66.5677
   -66.5500 -57.3307 -57.2644 -57.2447 -56.9046 -56.8154 -56.7327 -54.7007
   -54.5871 -54.5285 -40.9603 -40.9561 -40.9560 -40.9560 -40.9559 -40.9559
   -40.9559 -40.9558 -40.9557 -40.9553 -40.9553 -40.9553 -40.9553 -40.9442
   -40.9292 -40.9292 -40.9291 -40.9290 -40.9285 -40.9285 -40.9250 -40.9238
   -40.9171 -40.9171 -40.9170 -40.9170 -40.9165 -40.9164 -40.9114 -40.9067
   -40.8957 -40.8797 -40.8664 -40.8664 -40.8664 -40.8664 -40.8664 -40.8663
   -40.8663 -40.8663 -40.8657 -40.8657 -40.8657 -40.8657 -40.8491 -40.8441
   -40.8410 -40.8243 -40.8196 -40.8136 -40.8079 -40.8078 -40.8077 -40.8076
   -40.8072 -40.8072 -40.7981 -40.7981 -40.7981 -40.7980 -40.7973 -40.7973
   -40.7954 -40.7924 -40.7869 -40.7869 -40.7869 -40.7869 -40.7863 -40.7863
   -40.7788 -40.7715 -40.7678 -40.7653 -40.7599 -40.7574 -40.7574 -40.7573
   -40.7573 -40.7573 -40.7573 -40.7571 -40.7571 -40.7567 -40.7566 -40.7566
   -40.7566 -40.7566 -40.7522 -40.7488 -40.7487 -40.7486 -40.7485 -40.7484
   -40.7479 -40.7479 -40.7457 -40.7392 -40.7366 -40.7366 -40.7366 -40.7366
   -40.7365 -40.7363 -40.7363 -40.7362 -40.7362 -40.7362 -40.7362 -40.7359
   -40.7358 -40.7358 -40.7356 -40.7356 -40.7356 -40.7356 -40.7353 -40.7315
   -40.7276 -40.7275 -40.7275 -40.7275 -40.7269 -40.7269 -40.7256 -40.7220
   -40.7156 -40.7104 -40.7058 -40.7057 -40.7057 -40.7057 -40.7057 -40.7057
   -40.7056 -40.7055 -40.7048 -40.7048 -40.7048 -40.7048 -40.6940 -40.6891
   -40.6790 -40.6710 -40.6710 -40.6709 -40.6709 -40.6709 -40.6709 -40.6709
   -40.6709 -40.6701 -40.6701 -40.6701 -40.6700 -40.6663 -40.6588 -40.6588
   -40.6588 -40.6586 -40.6579 -40.6579 -40.6547 -40.6451 -40.6407 -40.6396
   -40.6395 -40.6395 -40.6395 -40.6394 -40.6386 -40.6386 -40.6322 -40.6225
   -40.6225 -40.6225 -40.6224 -40.6216 -40.6216 -40.6171 -40.6146 -40.6109
   -40.5919 -40.5918 -40.5918 -40.5917 -40.5909 -40.5909 -40.5907 -40.5778
   -40.5733 -40.5344 -20.2504 -19.9620 -19.9057 -19.8940 -19.8094 -19.7971
   -19.6988 -19.6950 -19.6323 -19.6044 -19.4682 -19.4674 -19.3806 -19.3760
   -19.3109 -19.2698 -19.2606 -19.0753 -18.9438 -18.9043 -18.8549 -18.8207
   -18.7607 -18.7596 -18.7562 -18.7553 -18.7501 -18.7260 -18.6942 -18.6905
   -18.6884 -18.6833 -18.6691 -18.6263 -18.6224 -18.5969 -18.5927 -18.5887
   -18.5851 -18.5798 -18.5538 -18.5382 -18.5259 -18.5140 -18.5057 -18.4921
   -18.4770 -18.4515 -18.4469 -18.4457 -18.4385 -18.4197 -18.3925 -18.3756
   -18.3671 -18.3554 -18.3249 -18.3064 -18.2838 -18.2771 -18.2603 -18.2512
   -18.2247 -18.2134 -18.2090 -18.1872 -18.1663 -18.1570 -18.1402 -18.1363
   -18.1343 -18.1337 -18.1243 -18.1127 -18.1119 -18.1087 -18.1055 -18.1034
   -18.0992 -18.0961 -18.0884 -18.0865 -18.0796 -18.0675 -18.0480 -18.0456
   -18.0409 -18.0395 -18.0358 -18.0352 -18.0344 -18.0269 -18.0237 -18.0178
   -17.9910 -17.9860 -17.9761 -17.9722 -17.9666 -17.9587 -17.9469 -17.9290
   -17.9234 -17.9135 -17.9132 -17.8952 -17.8824 -17.8800 -17.8765 -17.8748
   -17.8548 -17.8542 -17.8538 -17.8533 -17.8529 -17.8523 -17.8400 -17.8392
   -17.8206 -17.8189 -17.7961 -17.7944 -17.7769 -17.7745 -17.7621 -17.7605
   -17.7544 -17.7541 -12.2898 -12.2144 -12.0488 -11.8364 -11.7648 -11.7200
   -11.6894 -11.6086 -11.6019 -11.5585 -11.5368 -11.5356 -11.5303 -11.5212
   -11.5157 -11.4975 -11.4682 -11.4509 -11.4401 -11.4263 -11.4194 -11.4147
   -11.3865 -11.3776 -11.3722 -11.3565 -11.3328 -11.3247 -11.3117 -11.3082
   -11.3042 -11.2956 -11.2912 -11.2890 -11.2657 -11.2528 -11.2437 -11.2388
   -11.2312 -11.2251 -11.2158 -11.2038 -11.2029 -11.1942 -11.1831 -11.1818
   -11.1805 -11.1617 -11.1333 -11.1326 -11.1174 -11.1055 -11.0747 -11.0473
   -11.0359 -10.9979 -10.9898 -10.9871 -10.9626 -10.9506 -10.9396 -10.9334
   -10.9212 -10.8931 -10.8855 -10.8755 -10.8711 -10.8677 -10.8622 -10.8511
   -10.8464 -10.8460 -10.8451 -10.8436 -10.8408 -10.8337 -10.8303 -10.8279
   -10.8273 -10.8205 -10.8185 -10.8171 -10.8132 -10.7805 -10.7786 -10.7781
   -10.7774 -10.7425 -10.6729 -10.6254 -10.5943 -10.5803 -10.5643 -10.5424
   -10.5252 -10.4978 -10.4522 -10.4144 -10.3722 -10.3079 -10.2933 -10.2727
   -10.2395 -10.2066 -10.1743 -10.1569 -10.1561 -10.1517 -10.1368 -10.1206
   -10.0965 -10.0889 -10.0756 -10.0735 -10.0694 -10.0658 -10.0605 -10.0533
   -10.0272 -10.0027  -9.9854  -9.9766  -9.9606  -9.9551  -9.9472  -9.9375
    -9.9290  -9.9286  -9.9256  -9.8966  -9.8873  -9.8747  -9.8505  -9.8419
    -9.8251  -9.8175  -9.8137  -9.7906  -9.7796  -9.7668  -9.7562  -9.7460
    -9.7267  -9.7043  -9.6966  -9.6758  -9.6621  -9.6585  -9.6467  -9.6284
    -9.6172  -9.6055  -9.6004  -9.5904  -9.5812  -9.5749  -9.5372  -9.5290
    -9.5255  -9.5250  -9.5137  -9.5118  -9.5040  -9.5000  -9.4961  -9.4936
    -9.4759  -9.4669  -9.4455  -9.4346  -9.4181  -9.4081  -9.3908  -9.3665
    -9.3341  -9.2902  -9.2790  -9.2644  -9.2582  -9.2528  -9.2413  -9.2255
    -9.2233  -9.2066  -9.2039  -9.1822  -9.1773  -9.1711  -9.1527  -9.1278
    -9.1181  -9.1043  -9.0979  -9.0951  -9.0831  -9.0737  -9.0665  -9.0560
    -9.0436  -9.0092  -9.0071  -9.0025  -8.9942  -8.9894  -8.9825  -8.9682
    -8.9594  -8.9536  -8.9310  -8.9289  -8.9257  -8.9235  -8.9218  -8.9215
    -8.9177  -8.9104  -8.9038  -8.9031  -8.8971  -8.8939  -8.8890  -8.8802
    -8.8747  -8.8745  -8.8708  -8.8618  -8.8347  -8.8289  -8.8282  -8.8278
    -8.8242  -8.8201  -8.8049  -8.7987  -8.7974  -8.7784  -8.7730  -8.7684
    -8.7670  -8.7662  -8.7559  -8.7332  -8.7058  -8.6922  -8.6896  -8.6810
    -8.6364  -8.5709  -8.5420  -8.5366  -8.5165  -8.4911  -8.4769  -8.4712
    -8.4186  -8.3982  -8.3868  -8.3677  -8.3481  -8.3055  -8.2461  -8.2214
    -8.1768  -8.1622  -8.1618  -8.1531  -8.1523  -8.1418  -8.1414  -8.1163
    -8.1035  -8.0844  -8.0602  -8.0254  -8.0122  -8.0046  -7.9927  -7.9323
    -7.9124  -7.8921  -7.8788  -7.8746  -7.8723  -7.8648  -7.8599  -7.8493
    -7.8476  -7.8444  -7.8384  -7.8337  -7.8328  -7.8280  -7.8237  -7.8164
    -7.8164  -7.8091  -7.8081  -7.8046  -7.8036  -7.8026  -7.8001  -7.7985
    -7.7962  -7.7948  -7.7924  -7.7924  -7.7877  -7.7698  -7.7664  -7.7660
    -7.7634  -7.7482  -7.7335  -7.7323  -7.7315  -7.7305  -7.7174  -7.7131
    -7.7017  -7.7011  -7.6999  -7.6984  -7.6916  -7.6810  -7.6748  -7.6623
    -7.6437  -7.6432  -7.6429  -7.6374  -7.6253  -7.6208  -7.6204  -7.6095
    -7.6019  -7.5996  -7.5986  -7.5969  -7.5846  -7.5839  -7.5795  -7.5173
    -7.4995  -7.4965  -7.4934  -7.4873  -7.4623  -7.4564  -7.4460  -7.3516
    -7.2772  -7.2527  -7.2322  -7.2120  -7.2048  -7.2019  -7.1983  -7.1763
    -7.1618  -7.1502  -7.1443  -7.1357  -7.1211  -7.1140  -7.1051  -7.0774
    -7.0724  -7.0589  -7.0477  -7.0346  -7.0321  -7.0112  -7.0103  -6.9872
    -6.9625  -6.9514  -6.9500  -6.9247  -6.9189  -6.9146  -6.8967  -6.8944
    -6.8929  -6.8734  -6.8634  -6.8291  -6.8141  -6.8055  -6.7940  -6.7832
    -6.7563  -6.7221  -6.7041  -6.6975  -6.6856  -6.6734  -6.6572  -6.6509
    -6.6410  -6.6402  -6.6391  -6.6380  -6.6257  -6.6241  -6.6219  -6.6214
    -6.6208  -6.6142  -6.6136  -6.6135  -6.6134  -6.6076  -6.5836  -6.5773
    -6.5264  -6.4716  -6.4580  -6.4304  -6.3908  -6.3694  -6.3591  -6.3536
    -6.3508  -6.3494  -6.3436  -6.3291  -6.3130  -6.3121  -6.3093  -6.3077
    -6.3071  -6.3032  -6.2905  -6.2861  -6.2708  -6.2649  -6.2538  -6.2395
    -6.2367  -6.2345  -6.2292  -6.1243  -6.0976  -6.0278  -6.0246  -6.0163
    -5.9640  -5.9551  -5.9011  -5.8988  -5.8936  -5.8837  -5.8539  -5.8281
    -5.7650  -5.7225  -5.6601  -5.6366  -5.6217  -5.5321  -5.4475  -5.3989
    -5.3325  -4.3170  -4.2765  -4.1293  -4.1227  -4.0949  -4.0853  -3.9751
    -3.9602  -3.9559  -3.9469  -3.8997  -3.8906  -3.8752  -3.8736  -3.8632
    -3.8568  -3.8470  -3.8417  -3.8328  -3.8314  -3.7989  -3.7709  -3.7429
    -3.7220  -3.6759  -3.6741  -3.6553  -3.6372  -3.6354  -3.6326  -3.6138
    -3.5860  -3.5844  -3.5822  -3.5766  -3.5560  -3.5536  -3.5519  -3.5435
    -3.5342  -3.5256  -3.5208  -3.5145  -3.5112  -3.5040  -3.4987  -3.4906
    -3.4871  -3.4793  -3.4773  -3.4679  -3.4567  -3.4559  -3.4497  -3.4313
    -3.4041  -3.3948  -3.3895  -3.3837  -3.3811  -3.3783  -3.3727  -3.3697
    -3.3600  -3.3450  -3.3288  -3.3182  -3.3157  -3.3150  -3.3125  -3.3100
    -3.3084  -3.3043  -3.2881  -3.2823  -3.2795  -3.2724  -3.2688  -3.2620
    -3.2567  -3.2493  -3.2448  -3.2425  -3.2378  -3.2273  -3.2191  -3.2182
    -3.2155  -3.2048  -3.1954  -3.1950  -3.1948  -3.1803  -3.1752  -3.1549
    -3.1352  -3.1279  -3.1234  -3.1101  -3.1016  -3.0992  -3.0926  -3.0689
    -3.0604  -3.0582  -3.0550  -3.0543  -3.0527  -3.0508  -3.0442  -3.0437
    -3.0404  -3.0355  -3.0338  -3.0254  -3.0215  -3.0205  -3.0179  -3.0130
    -3.0120  -3.0099  -3.0013  -2.9996  -2.9935  -2.9809  -2.9798  -2.9767
    -2.9742  -2.9670  -2.9628  -2.9555  -2.9464  -2.9372  -2.9311  -2.9243
    -2.9177  -2.9083  -2.9062  -2.9037  -2.8636  -2.8369  -2.8320  -2.8224
    -2.8171  -2.7968  -2.7714  -2.7662  -2.7482  -2.6621  -2.6598  -2.6464
    -2.6310  -2.6198  -2.6052  -2.5939  -2.5829  -2.5785  -2.5772  -2.5665
    -2.5609  -2.5589  -2.5547  -2.5377  -2.5253  -2.4598  -2.4362  -2.4309
    -2.4264  -2.4209  -2.4188  -2.4180  -2.4084  -2.3934  -2.3745  -2.3738

          k =-0.5000-0.2887 0.0000 (386352 PWs)   bands (ev):

  -103.0685-102.5894 -88.8115 -71.3991 -71.3904 -71.3799 -71.3752 -71.3636
   -71.3450 -71.3331 -70.9300 -70.9291 -70.8964 -70.8848 -70.8724 -70.8556
   -70.8445 -66.6541 -66.6541 -66.6540 -66.6540 -66.6528 -66.6528 -66.6524
   -66.6492 -66.6434 -66.6434 -66.6434 -66.6433 -66.6422 -66.6422 -66.6327
   -66.6305 -66.6285 -66.6284 -66.6283 -66.6283 -66.6283 -66.6283 -66.6282
   -66.6281 -66.6270 -66.6270 -66.6270 -66.6270 -66.6239 -66.6239 -66.6238
   -66.6238 -66.6230 -66.6226 -66.6226 -66.6221 -66.6177 -66.6177 -66.6176
   -66.6176 -66.6176 -66.6176 -66.6174 -66.6174 -66.6163 -66.6163 -66.6163
   -66.6163 -66.6157 -66.6131 -66.6131 -66.6131 -66.6131 -66.6119 -66.6119
   -66.6087 -66.6047 -66.6001 -66.5962 -66.5959 -66.5855 -66.5826 -66.5676
   -66.5500 -57.3307 -57.2644 -57.2447 -56.9046 -56.8154 -56.7326 -54.7007
   -54.5870 -54.5285 -40.9560 -40.9560 -40.9560 -40.9559 -40.9559 -40.9559
   -40.9559 -40.9558 -40.9553 -40.9553 -40.9553 -40.9553 -40.9458 -40.9400
   -40.9391 -40.9291 -40.9291 -40.9291 -40.9290 -40.9287 -40.9285 -40.9285
   -40.9221 -40.9171 -40.9171 -40.9170 -40.9170 -40.9165 -40.9165 -40.9150
   -40.8924 -40.8697 -40.8664 -40.8664 -40.8664 -40.8664 -40.8664 -40.8663
   -40.8663 -40.8663 -40.8657 -40.8657 -40.8657 -40.8657 -40.8455 -40.8406
   -40.8334 -40.8236 -40.8197 -40.8130 -40.8078 -40.8077 -40.8077 -40.8077
   -40.8072 -40.8072 -40.8001 -40.7981 -40.7981 -40.7981 -40.7980 -40.7973
   -40.7973 -40.7873 -40.7869 -40.7869 -40.7869 -40.7869 -40.7863 -40.7863
   -40.7780 -40.7727 -40.7694 -40.7685 -40.7604 -40.7574 -40.7574 -40.7573
   -40.7573 -40.7573 -40.7573 -40.7571 -40.7571 -40.7566 -40.7566 -40.7566
   -40.7566 -40.7565 -40.7547 -40.7508 -40.7485 -40.7485 -40.7485 -40.7485
   -40.7479 -40.7479 -40.7417 -40.7379 -40.7366 -40.7366 -40.7366 -40.7365
   -40.7364 -40.7363 -40.7362 -40.7362 -40.7362 -40.7362 -40.7361 -40.7361
   -40.7361 -40.7358 -40.7358 -40.7356 -40.7356 -40.7356 -40.7356 -40.7322
   -40.7279 -40.7275 -40.7275 -40.7275 -40.7275 -40.7269 -40.7269 -40.7205
   -40.7169 -40.7108 -40.7057 -40.7057 -40.7057 -40.7057 -40.7057 -40.7057
   -40.7056 -40.7055 -40.7048 -40.7048 -40.7048 -40.7048 -40.6929 -40.6867
   -40.6825 -40.6789 -40.6710 -40.6710 -40.6709 -40.6709 -40.6709 -40.6709
   -40.6709 -40.6708 -40.6701 -40.6701 -40.6701 -40.6700 -40.6588 -40.6588
   -40.6588 -40.6587 -40.6579 -40.6579 -40.6499 -40.6452 -40.6431 -40.6395
   -40.6395 -40.6394 -40.6394 -40.6386 -40.6386 -40.6359 -40.6332 -40.6225
   -40.6225 -40.6225 -40.6224 -40.6216 -40.6216 -40.6186 -40.6175 -40.6108
   -40.5918 -40.5918 -40.5918 -40.5917 -40.5909 -40.5909 -40.5864 -40.5702
   -40.5595 -40.5499 -20.2390 -19.9984 -19.9060 -19.8985 -19.8102 -19.7985
   -19.6989 -19.6918 -19.6059 -19.5646 -19.4675 -19.4658 -19.3815 -19.3747
   -19.3168 -19.2701 -19.2595 -19.1565 -18.9288 -18.8847 -18.8390 -18.8120
   -18.7670 -18.7613 -18.7560 -18.7555 -18.7544 -18.7328 -18.7025 -18.6878
   -18.6867 -18.6848 -18.6580 -18.6461 -18.6337 -18.5968 -18.5923 -18.5900
   -18.5838 -18.5686 -18.5565 -18.5433 -18.5348 -18.5155 -18.5069 -18.4932
   -18.4503 -18.4463 -18.4451 -18.4414 -18.4353 -18.4123 -18.3795 -18.3736
   -18.3668 -18.3569 -18.3101 -18.2933 -18.2905 -18.2859 -18.2610 -18.2468
   -18.2248 -18.2223 -18.2048 -18.1918 -18.1690 -18.1544 -18.1434 -18.1412
   -18.1339 -18.1334 -18.1301 -18.1282 -18.1123 -18.1085 -18.1035 -18.1025
   -18.0994 -18.0966 -18.0899 -18.0829 -18.0813 -18.0775 -18.0469 -18.0451
   -18.0429 -18.0411 -18.0372 -18.0361 -18.0319 -18.0309 -18.0262 -18.0162
   -17.9898 -17.9845 -17.9743 -17.9726 -17.9711 -17.9670 -17.9338 -17.9305
   -17.9227 -17.9206 -17.9105 -17.8895 -17.8809 -17.8799 -17.8764 -17.8685
   -17.8544 -17.8541 -17.8538 -17.8537 -17.8527 -17.8522 -17.8402 -17.8388
   -17.8211 -17.8182 -17.7965 -17.7939 -17.7774 -17.7739 -17.7624 -17.7600
   -17.7544 -17.7540 -12.2570 -12.2145 -12.0344 -11.8501 -11.7941 -11.7470
   -11.7001 -11.6623 -11.6313 -11.5468 -11.5383 -11.5351 -11.5314 -11.5290
   -11.5046 -11.4950 -11.4666 -11.4378 -11.4349 -11.4268 -11.4153 -11.4061
   -11.3933 -11.3744 -11.3648 -11.3446 -11.3270 -11.3188 -11.3088 -11.3061
   -11.3052 -11.2944 -11.2904 -11.2839 -11.2563 -11.2493 -11.2407 -11.2394
   -11.2248 -11.2168 -11.2127 -11.2062 -11.2018 -11.1957 -11.1826 -11.1817
   -11.1682 -11.1569 -11.1371 -11.1253 -11.1146 -11.1027 -11.0817 -11.0489
   -11.0370 -11.0053 -10.9973 -10.9804 -10.9698 -10.9655 -10.9547 -10.9412
   -10.9256 -10.8887 -10.8863 -10.8746 -10.8699 -10.8591 -10.8543 -10.8519
   -10.8466 -10.8460 -10.8455 -10.8444 -10.8402 -10.8348 -10.8284 -10.8277
   -10.8225 -10.8220 -10.8187 -10.8174 -10.8030 -10.7823 -10.7785 -10.7782
   -10.7771 -10.7587 -10.6724 -10.6249 -10.5877 -10.5701 -10.5642 -10.5520
   -10.5232 -10.5103 -10.4453 -10.4223 -10.3446 -10.3204 -10.3120 -10.2794
   -10.2131 -10.1894 -10.1718 -10.1657 -10.1512 -10.1482 -10.1305 -10.1218
   -10.0886 -10.0753 -10.0727 -10.0715 -10.0607 -10.0595 -10.0552 -10.0447
   -10.0189 -10.0151  -9.9798  -9.9696  -9.9669  -9.9513  -9.9334  -9.9308
    -9.9283  -9.9114  -9.9003  -9.8933  -9.8730  -9.8564  -9.8548  -9.8463
    -9.8379  -9.8188  -9.8084  -9.7990  -9.7674  -9.7575  -9.7339  -9.7254
    -9.7120  -9.7010  -9.6915  -9.6806  -9.6766  -9.6577  -9.6512  -9.6503
    -9.6393  -9.6188  -9.6115  -9.5963  -9.5835  -9.5729  -9.5693  -9.5322
    -9.5268  -9.5246  -9.5175  -9.5148  -9.5109  -9.5089  -9.4961  -9.4949
    -9.4905  -9.4839  -9.4579  -9.4542  -9.4483  -9.4268  -9.4021  -9.3788
    -9.3263  -9.3130  -9.2838  -9.2719  -9.2634  -9.2561  -9.2449  -9.2318
    -9.2230  -9.2007  -9.1958  -9.1832  -9.1686  -9.1569  -9.1516  -9.1416
    -9.1222  -9.1055  -9.0981  -9.0894  -9.0838  -9.0743  -9.0503  -9.0385
    -9.0369  -9.0243  -9.0147  -9.0011  -8.9889  -8.9879  -8.9802  -8.9725
    -8.9486  -8.9423  -8.9284  -8.9278  -8.9262  -8.9242  -8.9228  -8.9156
    -8.9128  -8.9077  -8.9045  -8.9032  -8.9000  -8.8961  -8.8922  -8.8897
    -8.8864  -8.8746  -8.8743  -8.8534  -8.8306  -8.8290  -8.8284  -8.8276
    -8.8237  -8.8221  -8.8176  -8.8035  -8.7978  -8.7973  -8.7722  -8.7681
    -8.7675  -8.7652  -8.7503  -8.7271  -8.7006  -8.6926  -8.6869  -8.6775
    -8.6342  -8.5672  -8.5505  -8.5390  -8.5300  -8.5048  -8.4810  -8.4647
    -8.4278  -8.3947  -8.3845  -8.3678  -8.3367  -8.3076  -8.2307  -8.1889
    -8.1624  -8.1622  -8.1563  -8.1532  -8.1510  -8.1419  -8.1413  -8.1115
    -8.1049  -8.0947  -8.0485  -8.0072  -8.0032  -7.9879  -7.9578  -7.9477
    -7.9278  -7.9022  -7.8958  -7.8730  -7.8706  -7.8674  -7.8582  -7.8542
    -7.8446  -7.8410  -7.8386  -7.8357  -7.8335  -7.8271  -7.8269  -7.8230
    -7.8162  -7.8158  -7.8093  -7.8041  -7.8031  -7.8007  -7.7995  -7.7988
    -7.7958  -7.7929  -7.7926  -7.7880  -7.7781  -7.7698  -7.7663  -7.7642
    -7.7588  -7.7474  -7.7323  -7.7316  -7.7305  -7.7293  -7.7054  -7.7019
    -7.7011  -7.7007  -7.6955  -7.6904  -7.6865  -7.6834  -7.6729  -7.6576
    -7.6490  -7.6443  -7.6429  -7.6413  -7.6398  -7.6246  -7.6198  -7.6191
    -7.6079  -7.6017  -7.5987  -7.5982  -7.5913  -7.5789  -7.5641  -7.5398
    -7.5019  -7.4984  -7.4938  -7.4920  -7.4746  -7.4488  -7.3929  -7.3434
    -7.3163  -7.2878  -7.2262  -7.2090  -7.2062  -7.2008  -7.2000  -7.1703
    -7.1619  -7.1547  -7.1447  -7.1392  -7.1205  -7.1129  -7.0887  -7.0758
    -7.0701  -7.0637  -7.0554  -7.0460  -7.0156  -7.0107  -7.0043  -6.9755
    -6.9555  -6.9500  -6.9470  -6.9288  -6.9194  -6.9179  -6.8995  -6.8940
    -6.8929  -6.8874  -6.8769  -6.8391  -6.8241  -6.8090  -6.7921  -6.7768
    -6.7721  -6.7241  -6.7122  -6.7069  -6.6870  -6.6593  -6.6577  -6.6456
    -6.6415  -6.6397  -6.6395  -6.6329  -6.6270  -6.6223  -6.6219  -6.6193
    -6.6173  -6.6136  -6.6135  -6.6131  -6.6124  -6.5947  -6.5913  -6.5567
    -6.5218  -6.5153  -6.4615  -6.4523  -6.4130  -6.3604  -6.3546  -6.3532
    -6.3507  -6.3418  -6.3399  -6.3126  -6.3120  -6.3099  -6.3073  -6.3071
    -6.2965  -6.2935  -6.2905  -6.2878  -6.2706  -6.2627  -6.2406  -6.2398
    -6.2375  -6.2330  -6.1481  -6.1372  -6.0969  -6.0280  -6.0215  -6.0165
    -5.9800  -5.9529  -5.9503  -5.9012  -5.8918  -5.8863  -5.8484  -5.8174
    -5.7570  -5.7280  -5.6582  -5.6372  -5.6288  -5.5350  -5.4660  -5.4117
    -5.3315  -4.3521  -4.2361  -4.1312  -4.1299  -4.1065  -4.0686  -3.9823
    -3.9669  -3.9594  -3.9463  -3.9188  -3.8823  -3.8763  -3.8681  -3.8630
    -3.8522  -3.8481  -3.8418  -3.8331  -3.8315  -3.8101  -3.7763  -3.7345
    -3.7284  -3.7111  -3.6676  -3.6411  -3.6349  -3.6333  -3.6292  -3.5995
    -3.5901  -3.5867  -3.5831  -3.5700  -3.5601  -3.5542  -3.5491  -3.5441
    -3.5411  -3.5287  -3.5171  -3.5151  -3.5096  -3.5074  -3.5016  -3.4945
    -3.4848  -3.4819  -3.4717  -3.4587  -3.4531  -3.4463  -3.4377  -3.4212
    -3.4093  -3.3972  -3.3843  -3.3827  -3.3803  -3.3759  -3.3729  -3.3696
    -3.3544  -3.3400  -3.3261  -3.3200  -3.3184  -3.3146  -3.3132  -3.3109
    -3.3066  -3.3047  -3.2912  -3.2813  -3.2748  -3.2724  -3.2654  -3.2624
    -3.2555  -3.2466  -3.2436  -3.2414  -3.2351  -3.2285  -3.2194  -3.2127
    -3.2070  -3.2053  -3.1983  -3.1949  -3.1948  -3.1861  -3.1759  -3.1483
    -3.1414  -3.1300  -3.1239  -3.1100  -3.1047  -3.0971  -3.0924  -3.0618
    -3.0582  -3.0571  -3.0550  -3.0546  -3.0539  -3.0504  -3.0445  -3.0412
    -3.0403  -3.0348  -3.0291  -3.0225  -3.0225  -3.0182  -3.0158  -3.0140
    -3.0137  -3.0038  -3.0031  -2.9968  -2.9935  -2.9823  -2.9802  -2.9773
    -2.9757  -2.9657  -2.9635  -2.9540  -2.9426  -2.9392  -2.9307  -2.9245
    -2.9199  -2.9124  -2.9070  -2.9012  -2.8842  -2.8359  -2.8296  -2.8257
    -2.8231  -2.7975  -2.7839  -2.7549  -2.7477  -2.6628  -2.6508  -2.6422
    -2.6314  -2.6139  -2.6055  -2.5921  -2.5868  -2.5803  -2.5712  -2.5640
    -2.5606  -2.5593  -2.5553  -2.5432  -2.4921  -2.4774  -2.4390  -2.4336
    -2.4298  -2.4235  -2.4198  -2.4174  -2.4127  -2.4014  -2.3750  -2.3725

          k =-0.5000-0.8660 0.0000 (386352 PWs)   bands (ev):

  -103.0685-102.5894 -88.8115 -71.3991 -71.3904 -71.3799 -71.3752 -71.3636
   -71.3450 -71.3331 -70.9300 -70.9291 -70.8964 -70.8848 -70.8724 -70.8556
   -70.8445 -66.6541 -66.6541 -66.6540 -66.6539 -66.6528 -66.6528 -66.6528
   -66.6485 -66.6434 -66.6434 -66.6434 -66.6434 -66.6422 -66.6422 -66.6339
   -66.6303 -66.6284 -66.6284 -66.6283 -66.6283 -66.6283 -66.6283 -66.6282
   -66.6281 -66.6270 -66.6270 -66.6270 -66.6270 -66.6239 -66.6239 -66.6238
   -66.6237 -66.6229 -66.6226 -66.6226 -66.6216 -66.6178 -66.6176 -66.6176
   -66.6176 -66.6176 -66.6176 -66.6175 -66.6172 -66.6163 -66.6163 -66.6163
   -66.6163 -66.6137 -66.6131 -66.6131 -66.6131 -66.6131 -66.6119 -66.6119
   -66.6107 -66.6056 -66.6002 -66.5964 -66.5945 -66.5858 -66.5826 -66.5676
   -66.5500 -57.3307 -57.2644 -57.2447 -56.9046 -56.8154 -56.7326 -54.7007
   -54.5870 -54.5285 -40.9560 -40.9560 -40.9560 -40.9559 -40.9559 -40.9559
   -40.9559 -40.9557 -40.9553 -40.9553 -40.9553 -40.9553 -40.9501 -40.9449
   -40.9340 -40.9292 -40.9292 -40.9291 -40.9289 -40.9285 -40.9285 -40.9226
   -40.9203 -40.9171 -40.9171 -40.9170 -40.9170 -40.9164 -40.9164 -40.9136
   -40.8916 -40.8753 -40.8664 -40.8664 -40.8664 -40.8664 -40.8663 -40.8663
   -40.8663 -40.8663 -40.8657 -40.8657 -40.8657 -40.8657 -40.8471 -40.8414
   -40.8352 -40.8234 -40.8206 -40.8111 -40.8079 -40.8077 -40.8077 -40.8076
   -40.8072 -40.8072 -40.7981 -40.7981 -40.7981 -40.7980 -40.7973 -40.7973
   -40.7970 -40.7949 -40.7869 -40.7869 -40.7869 -40.7868 -40.7863 -40.7863
   -40.7750 -40.7721 -40.7681 -40.7644 -40.7627 -40.7595 -40.7574 -40.7574
   -40.7573 -40.7573 -40.7573 -40.7573 -40.7572 -40.7571 -40.7566 -40.7566
   -40.7566 -40.7566 -40.7542 -40.7487 -40.7485 -40.7485 -40.7484 -40.7484
   -40.7479 -40.7479 -40.7415 -40.7399 -40.7366 -40.7366 -40.7366 -40.7366
   -40.7365 -40.7364 -40.7364 -40.7363 -40.7362 -40.7362 -40.7362 -40.7362
   -40.7358 -40.7358 -40.7358 -40.7356 -40.7356 -40.7356 -40.7356 -40.7315
   -40.7276 -40.7275 -40.7275 -40.7275 -40.7269 -40.7269 -40.7261 -40.7217
   -40.7170 -40.7082 -40.7060 -40.7057 -40.7057 -40.7057 -40.7057 -40.7056
   -40.7055 -40.7054 -40.7048 -40.7048 -40.7048 -40.7048 -40.6894 -40.6861
   -40.6839 -40.6791 -40.6710 -40.6710 -40.6710 -40.6709 -40.6709 -40.6709
   -40.6709 -40.6709 -40.6701 -40.6701 -40.6701 -40.6700 -40.6588 -40.6588
   -40.6588 -40.6587 -40.6579 -40.6579 -40.6526 -40.6484 -40.6410 -40.6396
   -40.6395 -40.6395 -40.6394 -40.6392 -40.6386 -40.6386 -40.6304 -40.6225
   -40.6225 -40.6225 -40.6224 -40.6216 -40.6216 -40.6184 -40.6130 -40.6073
   -40.5946 -40.5918 -40.5918 -40.5918 -40.5917 -40.5909 -40.5909 -40.5732
   -40.5627 -40.5431 -20.2524 -19.9457 -19.9056 -19.8874 -19.8087 -19.7930
   -19.7363 -19.6969 -19.6845 -19.5581 -19.4697 -19.4646 -19.3804 -19.3730
   -19.2736 -19.2703 -19.1917 -19.1478 -18.9882 -18.9344 -18.8215 -18.8095
   -18.7617 -18.7590 -18.7569 -18.7561 -18.7427 -18.7207 -18.7126 -18.6932
   -18.6829 -18.6779 -18.6767 -18.6371 -18.6157 -18.5992 -18.5925 -18.5902
   -18.5804 -18.5701 -18.5605 -18.5357 -18.5218 -18.5156 -18.5055 -18.4955
   -18.4728 -18.4498 -18.4440 -18.4415 -18.4207 -18.4018 -18.3974 -18.3759
   -18.3622 -18.3582 -18.3366 -18.3111 -18.2851 -18.2821 -18.2542 -18.2428
   -18.2319 -18.2200 -18.2008 -18.1800 -18.1742 -18.1594 -18.1493 -18.1359
   -18.1345 -18.1337 -18.1327 -18.1135 -18.1078 -18.1070 -18.1034 -18.1032
   -18.1000 -18.0953 -18.0927 -18.0856 -18.0799 -18.0666 -18.0492 -18.0453
   -18.0435 -18.0389 -18.0357 -18.0352 -18.0346 -18.0258 -18.0239 -18.0167
   -17.9941 -17.9845 -17.9807 -17.9715 -17.9694 -17.9579 -17.9385 -17.9318
   -17.9259 -17.9135 -17.9112 -17.8954 -17.8844 -17.8783 -17.8755 -17.8724
   -17.8552 -17.8541 -17.8535 -17.8533 -17.8528 -17.8513 -17.8405 -17.8388
   -17.8213 -17.8182 -17.7965 -17.7940 -17.7773 -17.7742 -17.7622 -17.7604
   -17.7543 -17.7541 -12.2834 -12.2156 -12.0435 -11.8436 -11.7779 -11.7226
   -11.6888 -11.6215 -11.5701 -11.5474 -11.5423 -11.5363 -11.5228 -11.5202
   -11.5144 -11.4923 -11.4852 -11.4548 -11.4476 -11.4310 -11.4243 -11.4142
   -11.3926 -11.3779 -11.3635 -11.3550 -11.3448 -11.3266 -11.3132 -11.3081
[...]
     atom  172 type  2   force =    -0.00000167    0.00000038    0.00161566
     atom  173 type  2   force =    -0.00000173   -0.00000013   -0.00236011
     atom  174 type  2   force =    -0.00000692   -0.00000509    0.00001664
     atom  175 type  1   force =    -0.00001408   -0.00001267   -0.00003107
     atom  176 type  1   force =     0.00005671   -0.00002406   -0.00007813
     atom  177 type  2   force =    -0.00018713    0.00006157    0.00037943
     atom  178 type  2   force =    -0.00001561    0.00002409    0.00000245
     atom  179 type  2   force =    -0.00000072   -0.00001485   -0.00001046
     atom  180 type  2   force =     0.00021602    0.00018959    0.00019005
     atom  181 type  1   force =    -0.00000034   -0.00000051    0.00068900
     atom  182 type  1   force =    -0.00001108   -0.00000885    0.00000572
     atom  183 type  2   force =    -0.00000316   -0.00000136    0.00000423
     atom  184 type  2   force =    -0.00000161    0.00000039    0.00161564
     atom  185 type  2   force =    -0.00000178   -0.00000006   -0.00236010
     atom  186 type  2   force =    -0.00000525   -0.00000338    0.00001000
     atom  187 type  1   force =    -0.00001281   -0.00000867    0.00001610
     atom  188 type  1   force =     0.00003629    0.00003299    0.00001170
     atom  189 type  2   force =    -0.00018400    0.00018267    0.00042741
     atom  190 type  2   force =     0.00000852   -0.00001764   -0.00000206
     atom  191 type  2   force =    -0.00003083    0.00001082   -0.00001092
     atom  192 type  2   force =    -0.00002634   -0.00054868   -0.00010344
     atom  193 type  3   force =    -0.00003502   -0.00093425    0.00038408
     atom  194 type  4   force =    -0.00019422    0.00009515    0.00026627
     atom  195 type  3   force =     0.00066197    0.00032654   -0.00036096

     Total force =     0.002922     Total SCF correction =     0.000385
     SCF correction compared to forces is large: reduce conv_thr to get better values
     Energy error            =      1.4E-05 Ry
     Gradient error          =      9.3E-04 Ry/Bohr

     bfgs converged in  24 scf cycles and  23 bfgs steps
     (criteria: energy <  1.0E-04 Ry, force <  1.0E-03 Ry/Bohr)

     End of BFGS Geometry Optimization

     Final energy             =  -35654.9473917489 Ry

     File ./outdir/pwscf.bfgs deleted, as requested
Begin final coordinates

ATOMIC_POSITIONS (angstrom)
Mo               0.0000119917        1.8193638619       -9.1672481230    0   0   0
Mo               1.5756136568        0.9097075315       -3.0554901653    0   0   0
S                0.0000188998        1.8193822938       -4.6232556019    0   0   0
S                1.5756321638        0.9096773839       -7.6014065489    0   0   0
S                1.5756326175        0.9096785128      -10.7330757790    0   0   0
S                0.0000189190        1.8193860094       -1.4877129945    0   0   0
Mo               0.0000902375        1.8193694500        3.0570799180
Mo               1.5748765756        0.8988680859        9.1707775275
S               -0.0008681093        1.8263101521        7.6151776498
S                1.5748828103        0.9088019645        4.6248230334
S                1.5758160931        0.9093895820        1.4895541799
S               -0.0027353720        1.7644726310       10.7850190582
Mo              -1.5756053507        4.5484193819       -9.1672481230    0   0   0
Mo               0.0000378379        3.6387394919       -3.0554952701    0   0   0
S               -1.5755913433        4.5484363582       -4.6232494962    0   0   0
S                0.0000148214        3.6387329039       -7.6014065489    0   0   0
S                0.0000152751        3.6387340328      -10.7330757790    0   0   0
S               -1.5755906502        4.5484413613       -1.4877305502    0   0   0
Mo              -1.5754108346        4.5482299546        3.0575286479
Mo              -0.0105224642        3.6238299534        9.1857169382
S               -1.5745272123        4.5523681660        7.6210756483
S               -0.0001605958        3.6383770871        4.6259170702
S                0.0005923474        3.6390112861        1.4898999053
S               -1.6363581297        4.5772272850       10.7653768752
Mo              -3.1512226931        7.2774749019       -9.1672481230    0   0   0
Mo              -1.5755910988        6.3678216792       -3.0555115988    0   0   0
S               -3.1512162438        7.2774954350       -4.6232578178    0   0   0
S               -1.5756025210        6.3677884239       -7.6014065489    0   0   0
S               -1.5756020673        6.3677895528      -10.7330757790    0   0   0
S               -3.1512127704        7.2774877076       -1.4877200710    0   0   0
Mo              -3.1514741056        7.2770023017        3.0573287475
Mo              -1.5940624150        6.3808441588        9.1816583299
S               -3.1672574061        7.2743836055        7.6075740461
S               -1.5760962153        6.3672774409        4.6255626453
S               -1.5753920123        6.3675065442        1.4898116646
S               -3.1567719794        7.2900871928       10.7573312727
Mo              -4.7268400355       10.0065304219       -9.1672481230    0   0   0
Mo              -3.1512405618        9.0968403586       -3.0554816746    0   0   0
S               -4.7268341792       10.0065523623       -4.6232463762    0   0   0
S               -3.1512198634        9.0968439439       -7.6014065489    0   0   0
S               -3.1512194097        9.0968450728      -10.7330757790    0   0   0
S               -4.7268370797       10.0065537885       -1.4877176751    0   0   0
Mo              -4.7270296213       10.0058522949        3.0569878682
Mo              -3.1572260640        9.0941248324        9.1735742732
S               -4.7385268499        9.9947544630        7.6071694582
S               -3.1515339616        9.0963029865        4.6247091326
S               -3.1513171740        9.0961550670        1.4891610224
S               -4.7201891085       10.0096823604       10.7506459214
Mo               3.1512517547        1.8193638619       -9.1672481230    0   0   0
Mo               4.7269020221        0.9097289540       -3.0554823951    0   0   0
S                3.1512612351        1.8193882564       -4.6232320683    0   0   0
S                4.7268719268        0.9096773839       -7.6014065489    0   0   0
S                4.7268723805        0.9096785128      -10.7330757790    0   0   0
S                3.1512592485        1.8193890201       -1.4877261251    0   0   0
Mo               3.1512331065        1.8188062754        3.0578236960
Mo               4.7283104609        0.8966885177        9.1493157182
S                3.1472748259        1.7911330433        7.5742211110
S                4.7274405900        0.9087227016        4.6242910092
S                4.7266745219        0.9093056231        1.4893794433
S                3.1612397165        1.7878349691       10.7253304749
Mo               1.5756344123        4.5484193819       -9.1672481230    0   0   0
Mo               3.1512756394        3.6387769522       -3.0554814834    0   0   0
S                1.5756504879        4.5484423799       -4.6232390542    0   0   0
S                3.1512545844        3.6387329039       -7.6014065489    0   0   0
S                3.1512550381        3.6387340328      -10.7330757790    0   0   0
S                1.5756466253        4.5484431864       -1.4877251801    0   0   0
Mo               1.5758103205        4.5481798143        3.0586632019
Mo               3.1809422520        3.5935567385        9.1486242278
S                1.5708739543        4.5398550200        7.6259561763
S                3.1517468203        3.6382647870        4.6262478709
S                3.1511502313        3.6384138940        1.4905135201
S                1.6589457192        4.5067868360       10.7036665657
Mo               0.0000170699        7.2774749019       -9.1672481230    0   0   0
Mo               1.5756764447        6.3678236689       -3.0554877708    0   0   0
S                0.0000381981        7.2774979204       -4.6232454413    0   0   0
S                1.5756372420        6.3677884239       -7.6014065489    0   0   0
S                1.5756376957        6.3677895528      -10.7330757790    0   0   0
S                0.0000328088        7.2774946042       -1.4877307940    0   0   0
Mo               0.0000913074        7.2768452913        3.0579253482
Mo               1.5543324525        6.3884417329        9.1584666919
S               -0.0162212360        7.2756866111        7.6061159305
S                1.5759407638        6.3677292425        4.6268917634
S                1.5757142883        6.3672039033        1.4904847540
S               -0.0501452362        7.2992041655       10.7888713582
Mo              -1.5756002725       10.0065304219       -9.1672481230    0   0   0
Mo               0.0000873425        9.0968676911       -3.0554912329    0   0   0
S               -1.5755883952       10.0065504530       -4.6232240150    0   0   0
S                0.0000198996        9.0968439439       -7.6014065489    0   0   0
S                0.0000203533        9.0968450728      -10.7330757790    0   0   0
S               -1.5755859047       10.0065492576       -1.4877362381    0   0   0
Mo              -1.5756880682       10.0058140292        3.0567635863
Mo              -0.0074331320        9.0985692857        9.1660308952
S               -1.5832050762        9.9896608259        7.5906890528
S               -0.0000278388        9.0964700100        4.6243639717
S                0.0002265165        9.0959909006        1.4894858981
S               -1.5762488029       10.0098526332       10.7336905330
Mo               6.3024915177        1.8193638619       -9.1672481230    0   0   0
Mo               7.8781001445        0.9096521684       -3.0554919963    0   0   0
S                6.3025008696        1.8193826232       -4.6232480596    0   0   0
S                7.8781116898        0.9096773839       -7.6014065489    0   0   0
S                7.8781121435        0.9096785128      -10.7330757790    0   0   0
S                6.3025042007        1.8193849068       -1.4877147524    0   0   0
Mo               6.3026895294        1.8191561109        3.0568125708
Mo               7.8728344400        0.9142761200        9.1424965267
S                6.2991479594        1.8174047007        7.5729072742
S                7.8786457069        0.9099260442        4.6242433090
S                7.8783713340        0.9094468912        1.4891539489
S                6.3062190981        1.8018138800       10.7197134763
Mo               4.7268741753        4.5484193819       -9.1672481230    0   0   0
Mo               6.3024679138        3.6387501714       -3.0554895197    0   0   0
S                4.7268748770        4.5484386753       -4.6232519432    0   0   0
S                6.3024943474        3.6387329039       -7.6014065489    0   0   0
S                6.3024948011        3.6387340328      -10.7330757790    0   0   0
S                4.7268770533        4.5484432419       -1.4877137856    0   0   0
Mo               4.7269401636        4.5482953366        3.0578564201
Mo               6.3195334722        3.6233529066        9.1554386803
S                4.7414193790        4.5693352619        7.6179905701
S                6.3028849935        3.6384543613        4.6250452790
S                6.3023428392        3.6388258587        1.4895438772
S                4.7479913510        4.4184391528       10.7730439610
Mo               3.1512568329        7.2774749019       -9.1672481230    0   0   0
Mo               4.7268384135        6.3678043337       -3.0554959052    0   0   0
S                3.1512606125        7.2774972547       -4.6232589675    0   0   0
S                4.7268770050        6.3677884239       -7.6014065489    0   0   0
S                4.7268774587        6.3677895528      -10.7330757790    0   0   0
S                3.1512629079        7.2774963749       -1.4877081835    0   0   0
Mo               3.1513231362        7.2771799588        3.0578546673
Mo               4.7279856345        6.3669969277        9.2118712578
S                3.1674725698        7.2773914511        7.6367466487
S                4.7271159066        6.3679198232        4.6254070472
S                4.7264046116        6.3672639242        1.4895947510
S                3.0810607283        7.4189869155       10.7532161488
Mo               1.5756394905       10.0065304219       -9.1672481230    0   0   0
Mo               3.1512330605        9.0968514907       -3.0554878870    0   0   0
S                1.5756499830       10.0065443759       -4.6232632674    0   0   0
S                3.1512596626        9.0968439439       -7.6014065489    0   0   0
S                3.1512601163        9.0968450728      -10.7330757790    0   0   0
S                1.5756503041       10.0065459699       -1.4877044377    0   0   0
Mo               1.5758264609       10.0063150788        3.0571701158
Mo               3.1505868112        9.1497073722        9.1500200187
S                1.5610667478       10.0132084218        7.5730198696
S                3.1515607544        9.0968452602        4.6253440328
S                3.1514242807        9.0964369035        1.4897479733
S                1.5635840350       10.0353403358       10.7190610765
Mo               9.4537312807        1.8193638619       -9.1672481230    0   0   0
Mo              11.0293863460        0.9096952246       -3.0554894007    0   0   0
S                9.4537395970        1.8193770750       -4.6232328036    0   0   0
S               11.0293514528        0.9096773839       -7.6014065489    0   0   0
S               11.0293519066        0.9096785128      -10.7330757790    0   0   0
S                9.4537393632        1.8193794783       -1.4877366147    0   0   0
Mo               9.4540481506        1.8194786652        3.0568455659
Mo              11.0290205415        0.9109020090        9.1688283185
S                9.4600994864        1.8276147319        7.5871926311
S               11.0295471750        0.9098854434        4.6246872604
S               11.0296517334        0.9095976947        1.4892477112
S                9.4433082384        1.8198787743       10.7242462967
Mo               7.8781139383        4.5484193819       -9.1672481230    0   0   0
Mo               9.4537539161        3.6387607911       -3.0554933032    0   0   0
S                7.8781175448        4.5484378232       -4.6232366318    0   0   0
S                9.4537341104        3.6387329039       -7.6014065489    0   0   0
S                9.4537345641        3.6387340328      -10.7330757790    0   0   0
S                7.8781194018        4.5484411585       -1.4877377057    0   0   0
Mo               7.8781976190        4.5483880145        3.0573066446
Mo               9.4406042358        3.6413417847        9.1666503696
S                7.8819243828        4.5630469218        7.5955825845
S                9.4538864654        3.6388079063        4.6250467495
S                9.4540509912        3.6388856721        1.4893947380
S                7.8699649131        4.5359643589       10.7433938206
Mo               6.3024965959        7.2774749019       -9.1672481230    0   0   0
Mo               7.8781361655        6.3678242352       -3.0555014130    0   0   0
S                6.3024973331        7.2774953556       -4.6232392528    0   0   0
S                7.8781167680        6.3677884239       -7.6014065489    0   0   0
S                7.8781172217        6.3677895528      -10.7330757790    0   0   0
S                6.3024989866        7.2774929744       -1.4877349119    0   0   0
Mo               6.3022541848        7.2770319517        3.0567390165
Mo               7.8794379579        6.3660606341        9.1932101583
S                6.2840518432        7.2671881676        7.6507562868
S                7.8773926655        6.3677919255        4.6251746749
S                7.8781118155        6.3674526441        1.4892489958
S                6.3722895734        7.3128417987       10.8398204664
Mo               4.7268792535       10.0065304219       -9.1672481230    0   0   0
Mo               6.3025111524        9.0968738021       -3.0554915260    0   0   0
S                4.7268840634       10.0065452125       -4.6232380477    0   0   0
S                6.3024994256        9.0968439439       -7.6014065489    0   0   0
S                6.3024998793        9.0968450728      -10.7330757790    0   0   0
S                4.7268847312       10.0065459141       -1.4877283294    0   0   0
Mo               4.7271506985       10.0063319502        3.0573169586
Mo               6.2991864971        9.1018706249        9.1929148514
S                4.7459962793       10.0183578778        7.5902777226
S                6.3025329252        9.0957398267        4.6248675576
S                6.3023911851        9.0964838159        1.4891165651
S                4.7178957462       10.0234830764       10.7417337215
Pt               1.7155489569        6.2326323123       12.1957465718
Pd               0.1251684032        3.8079481045       12.1861495517
Pt               4.5655994168        6.3433048427       12.0483161822
End final coordinates



     Writing all to output data dir ./outdir/pwscf.save/ :
     XML data file, charge density, pseudopotentials, collected wavefunctions
 
     init_run     :    176.05s CPU    179.41s WALL (       1 calls)
     electrons    : 213770.30s CPU 216485.52s WALL (      24 calls)
     update_pot   :     44.98s CPU     46.29s WALL (      23 calls)
     forces       :   3169.29s CPU   3225.29s WALL (      24 calls)
     force_dftd3  :     16.74s CPU     17.44s WALL (      24 calls)

     Called by init_run:
     wfcinit      :    151.98s CPU    153.88s WALL (       1 calls)
     potinit      :      1.57s CPU      1.69s WALL (       1 calls)
     hinit0       :     12.78s CPU     12.87s WALL (       1 calls)

     Called by electrons:
     c_bands      : 188950.53s CPU 190750.68s WALL (     344 calls)
     sum_band     :  22096.70s CPU  22586.85s WALL (     344 calls)
     v_of_rho     :    125.74s CPU    141.00s WALL (     351 calls)
     newd         :   2214.02s CPU   2626.69s WALL (     351 calls)
     PAW_pot      :    432.70s CPU    436.29s WALL (     374 calls)
     mix_rho      :     35.23s CPU     40.52s WALL (     344 calls)
     energy_dftd3 :      9.76s CPU      9.82s WALL (      24 calls)

     Called by c_bands:
     init_us_2    :    743.07s CPU    746.84s WALL (    2944 calls)
     init_us_2:cp :    743.04s CPU    746.82s WALL (    2944 calls)
     cegterg      : 185756.50s CPU 187536.02s WALL (    1407 calls)

     Called by *egterg:
     cdiaghg      :  11493.64s CPU  11905.44s WALL (   17454 calls)
     h_psi        :  93626.56s CPU  94212.89s WALL (   17628 calls)
     s_psi        :  21383.23s CPU  21514.63s WALL (   17628 calls)
     g_psi        :    167.02s CPU    167.81s WALL (   16217 calls)

     Called by h_psi:
     h_psi:calbec :  21439.11s CPU  21507.80s WALL (   17628 calls)
     vloc_psi     :  50350.31s CPU  50602.13s WALL (   17628 calls)
     add_vuspsi   :  21452.71s CPU  21586.52s WALL (   17628 calls)

     General routines
     calbec       :  30584.63s CPU  30684.60s WALL (   19480 calls)
     fft          :    137.54s CPU    151.41s WALL (    4819 calls)
     ffts         :      6.27s CPU      6.74s WALL (     695 calls)
     fftw         :  38058.65s CPU  38247.79s WALL ( 9958528 calls)
     interpolate  :     10.96s CPU     11.99s WALL (     351 calls)
 
     Parallel routines
 
     PWSCF        :   2d12h35m CPU   2d13h23m WALL

 
   This run was terminated on:   0:48:43  16Apr2024            

=------------------------------------------------------------------------------=
   JOB DONE.
=------------------------------------------------------------------------------=
