
     Program PWSCF v.7.2 starts on 16Aug2023 at 18:56:52 

     This program is part of the open-source Quantum ESPRESSO suite
     for quantum simulation of materials; please cite
         "P. Giannozzi et al., J. Phys.:Condens. Matter 21 395502 (2009);
         "P. Giannozzi et al., J. Phys.:Condens. Matter 29 465901 (2017);
         "P. Giannozzi et al., J. Chem. Phys. 152 154105 (2020);
          URL http://www.quantum-espresso.org", 
     in publications or presentations arising from this work. More details at
     http://www.quantum-espresso.org/quote

     Parallel version (MPI), running on    36 processors

     MPI processes distributed on     1 nodes
     770049 MiB available memory on the printing compute node when the environment starts
 
     Waiting for input...
     Reading input from standard input
Warning: card &CELL ignored
Warning: card / ignored

     Current dimensions of program PWSCF are:
     Max number of different atomic species (ntypx) = 10
     Max number of k-points (npk) =  40000
     Max angular momentum in pseudopotentials (lmaxx) =  4
     file Mo.pbe-spn-kjpaw_psl.1.0.0.UPF: wavefunction(s)  4S 4D renormalized
     file S.pbe-n-kjpaw_psl.1.0.0.UPF: wavefunction(s)  3S 3P renormalized
     file Pd.pbe-spn-kjpaw_psl.1.0.0.UPF: wavefunction(s)  4S 5S 4D renormalized
 
     R & G space division:  proc/nbgrp/npool/nimage =      36
     Subspace diagonalization in iterative solution of the eigenvalue problem:
     one sub-group per band group will be used
     custom distributed-memory algorithm (size of sub-group:  6*  6 procs)

 
     Parallelization info
     --------------------
     sticks:   dense  smooth     PW     G-vecs:    dense   smooth      PW
     Min         585     334     89               198743    85850   11735
     Max         586     335     90               198750    85861   11748
     Sum       21073   12049   3205              7154885  3090769  422587
 
     Using Slab Decomposition
 


     bravais-lattice index     =            0
     lattice parameter (alat)  =      23.8199  a.u.
     unit-cell volume          =   33861.0370 (a.u.)^3
     number of atoms/cell      =          193
     number of atomic types    =            3
     number of electrons       =      1682.00
     number of Kohn-Sham states=         1009
     kinetic-energy cutoff     =      77.0000  Ry
     charge density cutoff     =     539.0000  Ry
     scf convergence threshold =      1.0E-06
     mixing beta               =       0.2000
     number of iterations used =            8  plain     mixing
     Exchange-correlation= SLA  PW   PBX  PBC
                           (   1   4   3   4   0   0   0)

     Effective Screening Medium Method
     =================================
     Boundary Conditions: Vacuum-Slab-Vacuum
     total charge in unit cell        =   0.0000
     grid points for fit at edges     =        4 
 

     celldm(1)=  23.819920  celldm(2)=   0.000000  celldm(3)=   0.000000
     celldm(4)=   0.000000  celldm(5)=   0.000000  celldm(6)=   0.000000

     crystal axes: (cart. coord. in units of alat)
               a(1) = (   1.000000   0.000000   0.000000 )  
               a(2) = (  -0.499999   0.866026   0.000000 )  
               a(3) = (   0.000000   0.000000   2.893000 )  

     reciprocal axes: (cart. coord. in units 2 pi/alat)
               b(1) = (  1.000000  0.577349  0.000000 )  
               b(2) = (  0.000000  1.154700  0.000000 )  
               b(3) = (  0.000000  0.000000  0.345662 )  


     PseudoPot. # 1 for Mo read from file:
     ./pseudo/Mo.pbe-spn-kjpaw_psl.1.0.0.UPF
     MD5 check sum: 317bf72632116215fd98f72de1686f13
     Pseudo is Projector augmented-wave + core cor, Zval = 14.0
     Generated using 'atomic' code by A. Dal Corso  v.7.2
     Shape of augmentation charge: PSQ
     Using radial grid of 1229 points,  6 beta functions with: 
                l(1) =   0
                l(2) =   0
                l(3) =   1
                l(4) =   1
                l(5) =   2
                l(6) =   2
     Q(r) pseudized with 0 coefficients 


     PseudoPot. # 2 for S  read from file:
     ./pseudo/S.pbe-n-kjpaw_psl.1.0.0.UPF
     MD5 check sum: 8b7b5302570d38d5e87fed6a1065abda
     Pseudo is Projector augmented-wave + core cor, Zval =  6.0
     Generated using 'atomic' code by A. Dal Corso  v.7.2
     Shape of augmentation charge: PSQ
     Using radial grid of 1151 points,  6 beta functions with: 
                l(1) =   0
                l(2) =   0
                l(3) =   1
                l(4) =   1
                l(5) =   2
                l(6) =   2
     Q(r) pseudized with 0 coefficients 


     PseudoPot. # 3 for Pd read from file:
     ./pseudo/Pd.pbe-spn-kjpaw_psl.1.0.0.UPF
     MD5 check sum: a60571a671f2502b8a6a4569d20a6edb
     Pseudo is Projector augmented-wave + core cor, Zval = 18.0
     Generated using 'atomic' code by A. Dal Corso  v.7.2
     Shape of augmentation charge: PSQ
     Using radial grid of 1235 points,  6 beta functions with: 
                l(1) =   0
                l(2) =   0
                l(3) =   1
                l(4) =   1
                l(5) =   2
                l(6) =   2
     Q(r) pseudized with 0 coefficients 


     atomic species   valence    mass     pseudopotential
        Mo            14.00    95.95000     Mo( 1.00)
        S              6.00    32.06000     S ( 1.00)
        Pd            18.00   106.42000     Pd( 1.00)

     No symmetry found



   Cartesian axes

     site n.     atom                  positions (alat units)
         1           Mo  tau(   1) = (   0.0000010   0.1443372  -0.7272732  )
         2           Mo  tau(   2) = (   0.1249995   0.0721706  -0.2424038  )
         3           S   tau(   3) = (   0.0000015   0.1443386  -0.3667807  )
         4           S   tau(   4) = (   0.1250010   0.0721682  -0.6030489  )
         5           S   tau(   5) = (   0.1250010   0.0721683  -0.8514963  )
         6           S   tau(   6) = (   0.0000015   0.1443389  -0.1180260  )
         7           Mo  tau(   7) = (   0.0000002   0.1443388   0.2423951  )
         8           Mo  tau(   8) = (   0.1250724   0.0722254   0.7273589  )
         9           S   tau(   9) = (  -0.0000156   0.1439685   0.6024933  )
        10           S   tau(  10) = (   0.1249984   0.0721649   0.3667635  )
        11           S   tau(  11) = (   0.1250083   0.0721731   0.1180279  )
        12           S   tau(  12) = (  -0.0001588   0.1441817   0.8516062  )
        13           Mo  tau(  13) = (  -0.1249989   0.3608437  -0.7272732  )
        14           Mo  tau(  14) = (   0.0000030   0.2886752  -0.2424042  )
        15           S   tau(  15) = (  -0.1249977   0.3608450  -0.3667802  )
        16           S   tau(  16) = (   0.0000012   0.2886747  -0.6030489  )
        17           S   tau(  17) = (   0.0000012   0.2886748  -0.8514963  )
        18           S   tau(  18) = (  -0.1249977   0.3608454  -0.1180274  )
        19           Mo  tau(  19) = (  -0.1249977   0.3608423   0.2423953  )
        20           Mo  tau(  20) = (  -0.0010164   0.2880876   0.7266553  )
        21           S   tau(  21) = (  -0.1253263   0.3610141   0.6024933  )
        22           S   tau(  22) = (   0.0000049   0.2886769   0.3667764  )
        23           S   tau(  23) = (   0.0000058   0.2886781   0.1180228  )
        24           S   tau(  24) = (  -0.1252135   0.3607835   0.8516063  )
        25           Mo  tau(  25) = (  -0.2499987   0.5773502  -0.7272732  )
        26           Mo  tau(  26) = (  -0.1249977   0.5051839  -0.2424055  )
        27           S   tau(  27) = (  -0.2499981   0.5773518  -0.3667809  )
        28           S   tau(  28) = (  -0.1249986   0.5051812  -0.6030489  )
        29           S   tau(  29) = (  -0.1249986   0.5051813  -0.8514963  )
        30           S   tau(  30) = (  -0.2499979   0.5773512  -0.1180266  )
        31           Mo  tau(  31) = (  -0.2499961   0.5773552   0.2423940  )
        32           Mo  tau(  32) = (  -0.1249137   0.5052151   0.7273590  )
        33           S   tau(  33) = (  -0.2499957   0.5773791   0.6030268  )
        34           S   tau(  34) = (  -0.1250024   0.5051807   0.3667654  )
        35           S   tau(  35) = (  -0.1249898   0.5051839   0.1180259  )
        36           S   tau(  36) = (  -0.2499958   0.5773371   0.8518185  )
        37           Mo  tau(  37) = (  -0.3749985   0.7938567  -0.7272732  )
        38           Mo  tau(  38) = (  -0.2500001   0.7216874  -0.2424031  )
        39           S   tau(  39) = (  -0.3749980   0.7938584  -0.3667800  )
        40           S   tau(  40) = (  -0.2499984   0.7216877  -0.6030489  )
        41           S   tau(  41) = (  -0.2499984   0.7216878  -0.8514963  )
        42           S   tau(  42) = (  -0.3749982   0.7938585  -0.1180264  )
        43           Mo  tau(  43) = (  -0.3749928   0.7938552   0.2423942  )
        44           Mo  tau(  44) = (  -0.2499956   0.7216897   0.7273870  )
        45           S   tau(  45) = (  -0.3749721   0.7938450   0.6030268  )
        46           S   tau(  46) = (  -0.2499961   0.7216874   0.3667795  )
        47           S   tau(  47) = (  -0.2499964   0.7216883   0.1180180  )
        48           S   tau(  48) = (  -0.3750085   0.7938661   0.8518186  )
        49           Mo  tau(  49) = (   0.2500010   0.1443372  -0.7272732  )
        50           Mo  tau(  50) = (   0.3750034   0.0721723  -0.2424032  )
        51           S   tau(  51) = (   0.2500017   0.1443391  -0.3667788  )
        52           S   tau(  52) = (   0.3750010   0.0721682  -0.6030489  )
        53           S   tau(  53) = (   0.3750010   0.0721683  -0.8514963  )
        54           S   tau(  54) = (   0.2500016   0.1443391  -0.1180271  )
        55           Mo  tau(  55) = (   0.2500034   0.1443487   0.2424118  )
        56           Mo  tau(  56) = (   0.3749350   0.0722254   0.7273590  )
        57           S   tau(  57) = (   0.2500038   0.1444465   0.6030121  )
        58           S   tau(  58) = (   0.3750082   0.0721652   0.3667637  )
        59           S   tau(  59) = (   0.3749981   0.0721736   0.1180272  )
        60           S   tau(  60) = (   0.2500037   0.1444090   0.8520664  )
        61           Mo  tau(  61) = (   0.1250012   0.3608437  -0.7272732  )
        62           Mo  tau(  62) = (   0.2500029   0.2886782  -0.2424031  )
        63           S   tau(  63) = (   0.1250024   0.3608455  -0.3667794  )
        64           S   tau(  64) = (   0.2500012   0.2886747  -0.6030489  )
        65           S   tau(  65) = (   0.2500012   0.2886748  -0.8514963  )
        66           S   tau(  66) = (   0.1250021   0.3608455  -0.1180270  )
        67           Mo  tau(  67) = (   0.1250058   0.3608461   0.2424089  )
        68           Mo  tau(  68) = (   0.2500040   0.2883718   0.7275668  )
        69           S   tau(  69) = (   0.1248204   0.3607396   0.6036385  )
        70           S   tau(  70) = (   0.2500036   0.2886966   0.3668096  )
        71           S   tau(  71) = (   0.2500037   0.2886755   0.1180357  )
        72           S   tau(  72) = (   0.1240806   0.3603125   0.8531435  )
        73           Mo  tau(  73) = (   0.0000014   0.5773502  -0.7272732  )
        74           Mo  tau(  74) = (   0.1250045   0.5051840  -0.2424036  )
        75           S   tau(  75) = (   0.0000030   0.5773520  -0.3667799  )
        76           S   tau(  76) = (   0.1250014   0.5051812  -0.6030489  )
        77           S   tau(  77) = (   0.1250014   0.5051813  -0.8514963  )
        78           S   tau(  78) = (   0.0000026   0.5773517  -0.1180274  )
        79           Mo  tau(  79) = (   0.0000125   0.5773454   0.2424121  )
        80           Mo  tau(  80) = (   0.1247398   0.5053355   0.7275668  )
        81           S   tau(  81) = (   0.0000971   0.5772986   0.6030122  )
        82           S   tau(  82) = (   0.1250216   0.5051717   0.3668097  )
        83           S   tau(  83) = (   0.1250031   0.5051822   0.1180353  )
        84           S   tau(  84) = (   0.0000646   0.5773171   0.8520665  )
        85           Mo  tau(  85) = (  -0.1249984   0.7938567  -0.7272732  )
        86           Mo  tau(  86) = (   0.0000069   0.7216896  -0.2424039  )
        87           S   tau(  87) = (  -0.1249975   0.7938582  -0.3667782  )
        88           S   tau(  88) = (   0.0000016   0.7216877  -0.6030489  )
        89           S   tau(  89) = (   0.0000016   0.7216878  -0.8514963  )
        90           S   tau(  90) = (  -0.1249973   0.7938582  -0.1180279  )
        91           Mo  tau(  91) = (  -0.1249998   0.7938556   0.2423940  )
        92           Mo  tau(  92) = (   0.0000179   0.7216026   0.7273591  )
        93           S   tau(  93) = (  -0.1250189   0.7938450   0.6030268  )
        94           S   tau(  94) = (   0.0000019   0.7216941   0.3667638  )
        95           S   tau(  95) = (   0.0000050   0.7216816   0.1180282  )
        96           S   tau(  96) = (  -0.1249826   0.7938661   0.8518186  )
        97           Mo  tau(  97) = (   0.5000010   0.1443372  -0.7272732  )
        98           Mo  tau(  98) = (   0.6250001   0.0721662  -0.2424040  )
        99           S   tau(  99) = (   0.5000017   0.1443386  -0.3667801  )
       100           S   tau( 100) = (   0.6250010   0.0721682  -0.6030489  )
       101           S   tau( 101) = (   0.6250010   0.0721683  -0.8514963  )
       102           S   tau( 102) = (   0.5000020   0.1443388  -0.1180261  )
       103           Mo  tau( 103) = (   0.5000062   0.1443386   0.2423949  )
       104           Mo  tau( 104) = (   0.6248701   0.0720927   0.7270403  )
       105           S   tau( 105) = (   0.5000231   0.1439682   0.6024932  )
       106           S   tau( 106) = (   0.6250225   0.0721806   0.3667529  )
       107           S   tau( 107) = (   0.6249981   0.0721656   0.1180090  )
       108           S   tau( 108) = (   0.5001665   0.1441816   0.8516061  )
       109           Mo  tau( 109) = (   0.3750012   0.3608437  -0.7272732  )
       110           Mo  tau( 110) = (   0.4999991   0.2886761  -0.2424038  )
       111           S   tau( 111) = (   0.3750012   0.3608452  -0.3667804  )
       112           S   tau( 112) = (   0.5000012   0.2886747  -0.6030489  )
       113           S   tau( 113) = (   0.5000012   0.2886748  -0.8514963  )
       114           S   tau( 114) = (   0.3750014   0.3608455  -0.1180261  )
       115           Mo  tau( 115) = (   0.3750010   0.3608466   0.2424089  )
       116           Mo  tau( 116) = (   0.5010247   0.2880874   0.7266550  )
       117           S   tau( 117) = (   0.3751875   0.3607396   0.6036385  )
       118           S   tau( 118) = (   0.5000016   0.2886766   0.3667763  )
       119           S   tau( 119) = (   0.5000005   0.2886782   0.1180227  )
       120           S   tau( 120) = (   0.3759281   0.3603121   0.8531433  )
       121           Mo  tau( 121) = (   0.2500014   0.5773502  -0.7272732  )
       122           Mo  tau( 122) = (   0.3749983   0.5051825  -0.2424043  )
       123           S   tau( 123) = (   0.2500017   0.5773519  -0.3667810  )
       124           S   tau( 124) = (   0.3750014   0.5051812  -0.6030489  )
       125           S   tau( 125) = (   0.3750014   0.5051813  -0.8514963  )
       126           S   tau( 126) = (   0.2500018   0.5773519  -0.1180256  )
       127           Mo  tau( 127) = (   0.2500039   0.5773474   0.2424088  )
       128           Mo  tau( 128) = (   0.3752684   0.5053354   0.7275668  )
       129           S   tau( 129) = (   0.2500041   0.5775637   0.6036388  )
       130           S   tau( 130) = (   0.3749856   0.5051720   0.3668115  )
       131           S   tau( 131) = (   0.3750040   0.5051824   0.1180338  )
       132           S   tau( 132) = (   0.2500043   0.5784167   0.8531442  )
       133           Mo  tau( 133) = (   0.1250016   0.7938567  -0.7272732  )
       134           Mo  tau( 134) = (   0.2499995   0.7216883  -0.2424036  )
       135           S   tau( 135) = (   0.1250024   0.7938578  -0.3667813  )
       136           S   tau( 136) = (   0.2500016   0.7216877  -0.6030489  )
       137           S   tau( 137) = (   0.2500016   0.7216878  -0.8514963  )
       138           S   tau( 138) = (   0.1250024   0.7938579  -0.1180253  )
       139           Mo  tau( 139) = (   0.1250059   0.7938594   0.2423954  )
       140           Mo  tau( 140) = (   0.2500046   0.7228672   0.7266560  )
       141           S   tau( 141) = (   0.1246939   0.7940599   0.6024937  )
       142           S   tau( 142) = (   0.2500042   0.7216859   0.3667764  )
       143           S   tau( 143) = (   0.2500039   0.7216847   0.1180231  )
       144           S   tau( 144) = (   0.1249496   0.7940778   0.8516066  )
       145           Mo  tau( 145) = (   0.7500010   0.1443372  -0.7272732  )
       146           Mo  tau( 146) = (   0.8750038   0.0721696  -0.2424038  )
       147           S   tau( 147) = (   0.7500016   0.1443382  -0.3667789  )
       148           S   tau( 148) = (   0.8750010   0.0721682  -0.6030489  )
       149           S   tau( 149) = (   0.8750010   0.0721683  -0.8514963  )
       150           S   tau( 150) = (   0.7500016   0.1443384  -0.1180279  )
       151           Mo  tau( 151) = (   0.7500030   0.1443378   0.2423680  )
       152           Mo  tau( 152) = (   0.8751374   0.0720928   0.7270403  )
       153           S   tau( 153) = (   0.7500038   0.1443391   0.6028107  )
       154           S   tau( 154) = (   0.8749831   0.0721804   0.3667517  )
       155           S   tau( 155) = (   0.8750076   0.0721658   0.1180101  )
       156           S   tau( 156) = (   0.7500038   0.1443391   0.8513898  )
       157           Mo  tau( 157) = (   0.6250012   0.3608437  -0.7272732  )
       158           Mo  tau( 158) = (   0.7500028   0.2886769  -0.2424041  )
       159           S   tau( 159) = (   0.6250015   0.3608451  -0.3667792  )
       160           S   tau( 160) = (   0.7500012   0.2886747  -0.6030489  )
       161           S   tau( 161) = (   0.7500012   0.2886748  -0.8514963  )
       162           S   tau( 162) = (   0.6250016   0.3608454  -0.1180280  )
       163           Mo  tau( 163) = (   0.6250042   0.3608418   0.2423953  )
       164           Mo  tau( 164) = (   0.7500041   0.2888313   0.7270402  )
       165           S   tau( 165) = (   0.6253347   0.3610142   0.6024930  )
       166           S   tau( 166) = (   0.7500035   0.2886534   0.3667530  )
       167           S   tau( 167) = (   0.7500033   0.2886823   0.1180101  )
       168           S   tau( 168) = (   0.6252217   0.3607835   0.8516063  )
       169           Mo  tau( 169) = (   0.5000014   0.5773502  -0.7272732  )
       170           Mo  tau( 170) = (   0.6250029   0.5051841  -0.2424047  )
       171           S   tau( 171) = (   0.5000014   0.5773518  -0.3667794  )
       172           S   tau( 172) = (   0.6250014   0.5051812  -0.6030489  )
       173           S   tau( 173) = (   0.6250014   0.5051813  -0.8514963  )
       174           S   tau( 174) = (   0.5000016   0.5773516  -0.1180277  )
       175           Mo  tau( 175) = (   0.4999939   0.5773456   0.2424121  )
       176           Mo  tau( 176) = (   0.6249221   0.5052151   0.7273589  )
       177           S   tau( 177) = (   0.4999114   0.5772985   0.6030121  )
       178           S   tau( 178) = (   0.6250096   0.5051809   0.3667635  )
       179           S   tau( 179) = (   0.6249967   0.5051840   0.1180276  )
       180           S   tau( 180) = (   0.4999439   0.5773171   0.8520664  )
       181           Mo  tau( 181) = (   0.3750016   0.7938567  -0.7272732  )
       182           Mo  tau( 182) = (   0.5000025   0.7216901  -0.2424039  )
       183           S   tau( 183) = (   0.3750019   0.7938578  -0.3667793  )
       184           S   tau( 184) = (   0.5000016   0.7216877  -0.6030489  )
       185           S   tau( 185) = (   0.5000016   0.7216878  -0.8514963  )
       186           S   tau( 186) = (   0.3750020   0.7938579  -0.1180272  )
       187           Mo  tau( 187) = (   0.3750021   0.7938591   0.2423953  )
       188           Mo  tau( 188) = (   0.4999910   0.7216026   0.7273591  )
       189           S   tau( 189) = (   0.3753154   0.7940600   0.6024935  )
       190           S   tau( 190) = (   0.5000053   0.7216936   0.3667647  )
       191           S   tau( 191) = (   0.5000026   0.7216812   0.1180270  )
       192           S   tau( 192) = (   0.3750595   0.7940778   0.8516066  )
       193           Pd  tau( 193) = (   0.2500048   0.4330099   0.9756438  )

     --------------------------------------------
     DFT-D3 Dispersion Correction (3-body terms):
     --------------------------------------------
       Reference C6 values for interpolation: 

         atom   Coordination number   C6
         S          0.000           268.01
         S          0.995           261.99
         S          1.990           251.62
         Mo         0.000          1691.79
         Mo         1.942          1004.01
         Mo        11.056           674.22
         Pd         0.000          1217.01
         Pd         1.863           573.90
         Pd         5.710           531.75

       Values used:

         atom   Coordination number  R0_AB[au]  C6      C8
         Mo        10.208            3.547    674.22  77634.20
         Mo        10.221            3.547    674.22  77634.20
         S          3.858            3.128    251.62  12327.25
         S          3.859            3.128    251.62  12327.25
         S          3.758            3.128    251.62  12327.25
         S          3.859            3.128    251.62  12327.25
         Mo        10.221            3.547    674.22  77634.20
         Mo        10.212            3.547    674.22  77634.20
         S          3.857            3.128    251.62  12327.25
         S          3.859            3.128    251.62  12327.25
         S          3.859            3.128    251.62  12327.25
         S          3.760            3.128    251.62  12327.25
         Mo        10.208            3.547    674.22  77634.20
         Mo        10.221            3.547    674.22  77634.20
         S          3.858            3.128    251.62  12327.25
         S          3.859            3.128    251.62  12327.25
         S          3.758            3.128    251.62  12327.25
         S          3.859            3.128    251.62  12327.25
         Mo        10.221            3.547    674.22  77634.20
         Mo        10.208            3.547    674.22  77634.20
         S          3.857            3.128    251.62  12327.25
         S          3.858            3.128    251.62  12327.25
         S          3.859            3.128    251.62  12327.25
         S          3.760            3.128    251.62  12327.25
         Mo        10.208            3.547    674.22  77634.20
         Mo        10.221            3.547    674.22  77634.20
         S          3.858            3.128    251.62  12327.25
         S          3.859            3.128    251.62  12327.25
         S          3.758            3.128    251.62  12327.25
         S          3.859            3.128    251.62  12327.25
         Mo        10.220            3.547    674.22  77634.20
         Mo        10.212            3.547    674.22  77634.20
         S          3.859            3.128    251.62  12327.25
         S          3.859            3.128    251.62  12327.25
         S          3.859            3.128    251.62  12327.25
         S          3.755            3.128    251.62  12327.25
         Mo        10.208            3.547    674.22  77634.20
         Mo        10.221            3.547    674.22  77634.20
         S          3.858            3.128    251.62  12327.25
         S          3.859            3.128    251.62  12327.25
         S          3.758            3.128    251.62  12327.25
         S          3.859            3.128    251.62  12327.25
         Mo        10.220            3.547    674.22  77634.20
         Mo        10.205            3.547    674.22  77634.20
         S          3.859            3.128    251.62  12327.25
         S          3.858            3.128    251.62  12327.25
         S          3.859            3.128    251.62  12327.25
         S          3.755            3.128    251.62  12327.25
         Mo        10.208            3.547    674.21  77634.20
         Mo        10.221            3.547    674.22  77634.20
         S          3.858            3.128    251.62  12327.25
         S          3.859            3.128    251.62  12327.25
         S          3.758            3.128    251.62  12327.25
         S          3.859            3.128    251.62  12327.25
         Mo        10.221            3.547    674.22  77634.20
         Mo        10.212            3.547    674.22  77634.20
         S          3.855            3.128    251.62  12327.25
         S          3.859            3.128    251.62  12327.25
         S          3.859            3.128    251.62  12327.25
         S          3.760            3.128    251.62  12327.25
         Mo        10.208            3.547    674.22  77634.20
         Mo        10.221            3.547    674.22  77634.20
         S          3.858            3.128    251.62  12327.25
         S          3.859            3.128    251.62  12327.25
         S          3.758            3.128    251.62  12327.25
         S          3.859            3.128    251.62  12327.25
         Mo        10.221            3.547    674.22  77634.20
         Mo        10.254            3.547    674.22  77634.20
         S          3.848            3.128    251.62  12327.25
         S          3.857            3.128    251.62  12327.25
         S          3.859            3.128    251.62  12327.25
         S          4.669            3.128    251.62  12327.25
         Mo        10.208            3.547    674.21  77634.20
         Mo        10.221            3.547    674.22  77634.20
         S          3.858            3.128    251.62  12327.25
         S          3.859            3.128    251.62  12327.25
         S          3.758            3.128    251.62  12327.25
         S          3.859            3.128    251.62  12327.25
         Mo        10.221            3.547    674.22  77634.20
         Mo        10.254            3.547    674.22  77634.20
         S          3.855            3.128    251.62  12327.25
         S          3.857            3.128    251.62  12327.25
         S          3.859            3.128    251.62  12327.25
         S          3.760            3.128    251.62  12327.25
         Mo        10.208            3.547    674.21  77634.20
         Mo        10.221            3.547    674.22  77634.20
         S          3.858            3.128    251.62  12327.25
         S          3.859            3.128    251.62  12327.25
         S          3.758            3.128    251.62  12327.25
         S          3.859            3.128    251.62  12327.25
         Mo        10.220            3.547    674.22  77634.20
         Mo        10.212            3.547    674.22  77634.20
         S          3.859            3.128    251.62  12327.25
         S          3.859            3.128    251.62  12327.25
         S          3.859            3.128    251.62  12327.25
         S          3.755            3.128    251.62  12327.25
         Mo        10.208            3.547    674.22  77634.20
         Mo        10.221            3.547    674.22  77634.20
         S          3.858            3.128    251.62  12327.25
         S          3.859            3.128    251.62  12327.25
         S          3.758            3.128    251.62  12327.25
         S          3.859            3.128    251.62  12327.25
         Mo        10.221            3.547    674.22  77634.20
         Mo        10.230            3.547    674.22  77634.20
         S          3.857            3.128    251.62  12327.25
         S          3.860            3.128    251.62  12327.25
         S          3.859            3.128    251.62  12327.25
         S          3.760            3.128    251.62  12327.25
         Mo        10.208            3.547    674.22  77634.20
         Mo        10.221            3.547    674.22  77634.20
         S          3.858            3.128    251.62  12327.25
         S          3.859            3.128    251.62  12327.25
         S          3.758            3.128    251.62  12327.25
         S          3.859            3.128    251.62  12327.25
         Mo        10.221            3.547    674.22  77634.20
         Mo        10.208            3.547    674.22  77634.20
         S          3.848            3.128    251.62  12327.25
         S          3.858            3.128    251.62  12327.25
         S          3.859            3.128    251.62  12327.25
         S          4.669            3.128    251.62  12327.25
         Mo        10.208            3.547    674.22  77634.20
         Mo        10.221            3.547    674.22  77634.20
         S          3.858            3.128    251.62  12327.25
         S          3.859            3.128    251.62  12327.25
         S          3.758            3.128    251.62  12327.25
         S          3.859            3.128    251.62  12327.25
         Mo        10.221            3.547    674.22  77634.20
         Mo        10.254            3.547    674.22  77634.20
         S          3.848            3.128    251.62  12327.25
         S          3.857            3.128    251.62  12327.25
         S          3.859            3.128    251.62  12327.25
         S          4.669            3.128    251.62  12327.25
         Mo        10.208            3.547    674.22  77634.20
         Mo        10.221            3.547    674.22  77634.20
         S          3.858            3.128    251.62  12327.25
         S          3.859            3.128    251.62  12327.25
         S          3.758            3.128    251.62  12327.25
         S          3.859            3.128    251.62  12327.25
         Mo        10.221            3.547    674.22  77634.20
         Mo        10.208            3.547    674.21  77634.20
         S          3.857            3.128    251.62  12327.25
         S          3.858            3.128    251.62  12327.25
         S          3.859            3.128    251.62  12327.25
         S          3.760            3.128    251.62  12327.25
         Mo        10.208            3.547    674.22  77634.20
         Mo        10.221            3.547    674.22  77634.20
         S          3.858            3.128    251.62  12327.25
         S          3.859            3.128    251.62  12327.25
         S          3.758            3.128    251.62  12327.25
         S          3.859            3.128    251.62  12327.25
         Mo        10.221            3.547    674.22  77634.20
         Mo        10.230            3.547    674.22  77634.20
         S          3.862            3.128    251.62  12327.25
         S          3.860            3.128    251.62  12327.25
         S          3.859            3.128    251.62  12327.25
         S          3.764            3.128    251.62  12327.25
         Mo        10.208            3.547    674.22  77634.20
         Mo        10.220            3.547    674.22  77634.20
         S          3.858            3.128    251.62  12327.25
         S          3.859            3.128    251.62  12327.25
         S          3.758            3.128    251.62  12327.25
         S          3.859            3.128    251.62  12327.25
         Mo        10.221            3.547    674.22  77634.20
         Mo        10.230            3.547    674.22  77634.20
         S          3.857            3.128    251.62  12327.25
         S          3.860            3.128    251.62  12327.25
         S          3.859            3.128    251.62  12327.25
         S          3.760            3.128    251.62  12327.25
         Mo        10.208            3.547    674.22  77634.20
         Mo        10.221            3.547    674.22  77634.20
         S          3.858            3.128    251.62  12327.25
         S          3.859            3.128    251.62  12327.25
         S          3.758            3.128    251.62  12327.25
         S          3.859            3.128    251.62  12327.25
         Mo        10.221            3.547    674.22  77634.20
         Mo        10.212            3.547    674.22  77634.20
         S          3.855            3.128    251.62  12327.25
         S          3.859            3.128    251.62  12327.25
         S          3.859            3.128    251.62  12327.25
         S          3.760            3.128    251.62  12327.25
         Mo        10.208            3.547    674.22  77634.20
         Mo        10.221            3.547    674.21  77634.20
         S          3.858            3.128    251.62  12327.25
         S          3.859            3.128    251.62  12327.25
         S          3.758            3.128    251.62  12327.25
         S          3.859            3.128    251.62  12327.25
         Mo        10.221            3.547    674.22  77634.20
         Mo        10.212            3.547    674.22  77634.20
         S          3.857            3.128    251.62  12327.25
         S          3.859            3.128    251.62  12327.25
         S          3.859            3.128    251.62  12327.25
         S          3.760            3.128    251.62  12327.25
         Pd         3.132            3.168    573.90  52583.08

         Molecular C6 ( Ry / a.u.^6 ) =  13790214.12


     number of k points=     4  Gaussian smearing, width (Ry)=  0.0100
                       cart. coord. in units 2pi/alat
        k(    1) = (   0.0000000   0.0000000   0.0000000), wk =   0.5000000
        k(    2) = (   0.0000000  -0.5773499   0.0000000), wk =   0.5000000
        k(    3) = (  -0.5000000  -0.2886744   0.0000000), wk =   0.5000000
        k(    4) = (  -0.5000000  -0.8660242   0.0000000), wk =   0.5000000

     Dense  grid:  7154885 G-vectors     FFT dimensions: ( 180, 180, 512)

     Smooth grid:  3090769 G-vectors     FFT dimensions: ( 135, 135, 400)

     Estimated max dynamical RAM per process >       3.18 GB

     Estimated total dynamical RAM >     114.35 GB

     Initial potential from superposition of free atoms

     starting charge    1681.9391, renormalised to    1682.0000

     negative rho (up, down):  9.116E-04 0.000E+00
     Starting wfcs are 1162 randomized atomic wfcs
     Checking if some PAW data can be deallocated... 

     total cpu time spent up to now is      192.7 secs

     Self-consistent Calculation

     iteration #  1     ecut=    77.00 Ry     beta= 0.20
     Davidson diagonalization with overlap
     ethr =  1.00E-02,  avg # of iterations =  2.0

     Threshold (ethr) on eigenvalues was too large:
     Diagonalizing with lowered threshold

     Davidson diagonalization with overlap
     ethr =  1.59E-04,  avg # of iterations = 14.2

     negative rho (up, down):  2.312E-04 0.000E+00

     total cpu time spent up to now is     2400.3 secs

     total energy              =  -32305.62380508 Ry
     estimated scf accuracy    <       6.68052209 Ry

     iteration #  2     ecut=    77.00 Ry     beta= 0.20
     Davidson diagonalization with overlap
     ethr =  3.97E-04,  avg # of iterations =  2.8

     negative rho (up, down):  2.150E-05 0.000E+00

     total cpu time spent up to now is     2830.1 secs

     total energy              =  -32304.20733564 Ry
     estimated scf accuracy    <       3.48843316 Ry

     iteration #  3     ecut=    77.00 Ry     beta= 0.20
     Davidson diagonalization with overlap
     ethr =  2.07E-04,  avg # of iterations = 13.2

     negative rho (up, down):  1.698E-05 0.000E+00

     total cpu time spent up to now is     3395.7 secs

     total energy              =  -32304.62172863 Ry
     estimated scf accuracy    <       1.32567808 Ry

     iteration #  4     ecut=    77.00 Ry     beta= 0.20
     Davidson diagonalization with overlap
     ethr =  7.88E-05,  avg # of iterations = 10.8

     negative rho (up, down):  1.596E-05 0.000E+00

     total cpu time spent up to now is     4270.0 secs

     total energy              =  -32305.36844404 Ry
     estimated scf accuracy    <       0.43747117 Ry

     iteration #  5     ecut=    77.00 Ry     beta= 0.20
     Davidson diagonalization with overlap
     ethr =  2.60E-05,  avg # of iterations = 14.2

     negative rho (up, down):  3.087E-05 0.000E+00

     total cpu time spent up to now is     5126.1 secs

     total energy              =  -32305.58470547 Ry
     estimated scf accuracy    <       0.24081770 Ry

     iteration #  6     ecut=    77.00 Ry     beta= 0.20
     Davidson diagonalization with overlap
     ethr =  1.43E-05,  avg # of iterations = 11.8

     negative rho (up, down):  2.276E-04 0.000E+00

     total cpu time spent up to now is     5637.9 secs

     total energy              =  -32305.55497223 Ry
     estimated scf accuracy    <       0.15358071 Ry

     iteration #  7     ecut=    77.00 Ry     beta= 0.20
     Davidson diagonalization with overlap
     c_bands:  1 eigenvalues not converged
     c_bands:  1 eigenvalues not converged
     ethr =  9.13E-06,  avg # of iterations = 20.0

     negative rho (up, down):  6.694E-04 0.000E+00

     total cpu time spent up to now is     6245.4 secs

     total energy              =  -32305.56848279 Ry
     estimated scf accuracy    <       0.24179099 Ry

     iteration #  8     ecut=    77.00 Ry     beta= 0.20
     Davidson diagonalization with overlap
     ethr =  9.13E-06,  avg # of iterations = 16.5

     negative rho (up, down):  7.059E-04 0.000E+00

     total cpu time spent up to now is     6795.6 secs

     total energy              =  -32305.59938496 Ry
     estimated scf accuracy    <       0.05530123 Ry

     iteration #  9     ecut=    77.00 Ry     beta= 0.20
     Davidson diagonalization with overlap
     c_bands:  2 eigenvalues not converged
     c_bands:  5 eigenvalues not converged
     c_bands:  4 eigenvalues not converged
     ethr =  3.29E-06,  avg # of iterations = 50.5

     negative rho (up, down):  5.254E-04 0.000E+00

     total cpu time spent up to now is     8487.4 secs

     total energy              =  -32305.61810231 Ry
     estimated scf accuracy    <       0.02313344 Ry

     iteration # 10     ecut=    77.00 Ry     beta= 0.20
     Davidson diagonalization with overlap
     c_bands:  3 eigenvalues not converged
     c_bands:  3 eigenvalues not converged
     c_bands:  2 eigenvalues not converged
     ethr =  1.38E-06,  avg # of iterations = 38.8

     negative rho (up, down):  5.569E-04 0.000E+00

     total cpu time spent up to now is     9614.7 secs

     total energy              =  -32305.62844160 Ry
     estimated scf accuracy    <       0.00179975 Ry

     iteration # 11     ecut=    77.00 Ry     beta= 0.20
     Davidson diagonalization with overlap
     c_bands:  1 eigenvalues not converged
     c_bands:  1 eigenvalues not converged
     c_bands:  5 eigenvalues not converged
     c_bands:  2 eigenvalues not converged
     ethr =  1.07E-07,  avg # of iterations = 20.0

     negative rho (up, down):  5.822E-04 0.000E+00

     total cpu time spent up to now is    11662.9 secs

     total energy              =  -32305.63614424 Ry
     estimated scf accuracy    <       0.00192555 Ry

     iteration # 12     ecut=    77.00 Ry     beta= 0.20
     Davidson diagonalization with overlap
     c_bands:  2 eigenvalues not converged
     c_bands:  3 eigenvalues not converged
     c_bands:  2 eigenvalues not converged
     ethr =  1.07E-07,  avg # of iterations = 15.5

     negative rho (up, down):  9.616E-04 0.000E+00

     total cpu time spent up to now is    12137.9 secs

     total energy              =  -32305.63574693 Ry
     estimated scf accuracy    <       0.00135481 Ry

     iteration # 13     ecut=    77.00 Ry     beta= 0.20
     Davidson diagonalization with overlap
     c_bands:  2 eigenvalues not converged
     c_bands:  2 eigenvalues not converged
     c_bands:  5 eigenvalues not converged
     c_bands:  3 eigenvalues not converged
     ethr =  8.05E-08,  avg # of iterations = 20.0

     negative rho (up, down):  9.029E-04 0.000E+00

     total cpu time spent up to now is    13047.5 secs

     total energy              =  -32305.63600907 Ry
     estimated scf accuracy    <       0.00484892 Ry

     iteration # 14     ecut=    77.00 Ry     beta= 0.20
     Davidson diagonalization with overlap
     c_bands:  1 eigenvalues not converged
     ethr =  8.05E-08,  avg # of iterations = 18.5

     negative rho (up, down):  8.536E-04 0.000E+00

     total cpu time spent up to now is    13634.9 secs

     total energy              =  -32305.63582482 Ry
     estimated scf accuracy    <       0.00129364 Ry

     iteration # 15     ecut=    77.00 Ry     beta= 0.20
     Davidson diagonalization with overlap
     ethr =  7.69E-08,  avg # of iterations = 12.5

     negative rho (up, down):  8.516E-04 0.000E+00

     total cpu time spent up to now is    14143.6 secs

     total energy              =  -32305.63601628 Ry
     estimated scf accuracy    <       0.00009517 Ry

     iteration # 16     ecut=    77.00 Ry     beta= 0.20
     Davidson diagonalization with overlap
     c_bands:  3 eigenvalues not converged
     c_bands:  1 eigenvalues not converged
     ethr =  5.66E-09,  avg # of iterations = 20.0

     negative rho (up, down):  8.535E-04 0.000E+00

     total cpu time spent up to now is    16161.6 secs

     total energy              =  -32305.63639433 Ry
     estimated scf accuracy    <       0.00062863 Ry

     iteration # 17     ecut=    77.00 Ry     beta= 0.20
     Davidson diagonalization with overlap
     c_bands:  1 eigenvalues not converged
     ethr =  5.66E-09,  avg # of iterations = 16.2

     negative rho (up, down):  9.034E-04 0.000E+00

     total cpu time spent up to now is    16649.8 secs

     total energy              =  -32305.63611497 Ry
     estimated scf accuracy    <       0.00047763 Ry

     iteration # 18     ecut=    77.00 Ry     beta= 0.20
     Davidson diagonalization with overlap
     ethr =  5.66E-09,  avg # of iterations =  8.8

     negative rho (up, down):  9.162E-04 0.000E+00

     total cpu time spent up to now is    17610.8 secs

     total energy              =  -32305.63628348 Ry
     estimated scf accuracy    <       0.00002446 Ry

     iteration # 19     ecut=    77.00 Ry     beta= 0.20
     Davidson diagonalization with overlap
     ethr =  1.45E-09,  avg # of iterations = 15.2

     negative rho (up, down):  9.103E-04 0.000E+00

     total cpu time spent up to now is    18587.9 secs

     total energy              =  -32305.63629436 Ry
     estimated scf accuracy    <       0.00006865 Ry

     iteration # 20     ecut=    77.00 Ry     beta= 0.20
     Davidson diagonalization with overlap
     ethr =  1.45E-09,  avg # of iterations =  1.0

     negative rho (up, down):  9.057E-04 0.000E+00

     total cpu time spent up to now is    18977.3 secs

     total energy              =  -32305.63627269 Ry
     estimated scf accuracy    <       0.00004300 Ry

     iteration # 21     ecut=    77.00 Ry     beta= 0.20
     Davidson diagonalization with overlap
     ethr =  1.45E-09,  avg # of iterations =  6.5

     negative rho (up, down):  9.070E-04 0.000E+00

     total cpu time spent up to now is    19610.9 secs

     total energy              =  -32305.63628141 Ry
     estimated scf accuracy    <       0.00000118 Ry

     iteration # 22     ecut=    77.00 Ry     beta= 0.20
     Davidson diagonalization with overlap
     c_bands:  4 eigenvalues not converged
     ethr =  7.01E-11,  avg # of iterations = 21.5

     negative rho (up, down):  9.085E-04 0.000E+00

     total cpu time spent up to now is    22078.4 secs

     total energy              =  -32305.63628677 Ry
     estimated scf accuracy    <       0.00000177 Ry

     iteration # 23     ecut=    77.00 Ry     beta= 0.20
     Davidson diagonalization with overlap
     ethr =  7.01E-11,  avg # of iterations =  3.0

     negative rho (up, down):  9.076E-04 0.000E+00

     total cpu time spent up to now is    22512.0 secs

     End of self-consistent calculation

          k = 0.0000 0.0000 0.0000 (386245 PWs)   bands (ev):

   -88.0153 -66.6384 -66.6384 -66.6371 -66.6313 -66.6172 -66.6171 -66.6171
   -66.6171 -66.6171 -66.6171 -66.6171 -66.6171 -66.6171 -66.6171 -66.6171
   -66.6169 -66.6158 -66.6158 -66.6158 -66.6158 -66.6158 -66.6158 -66.6149
   -66.6149 -66.6087 -66.6066 -66.6056 -66.6056 -66.5958 -66.5957 -66.5957
   -66.5957 -66.5957 -66.5957 -66.5957 -66.5957 -66.5957 -66.5957 -66.5957
   -66.5957 -66.5957 -66.5957 -66.5957 -66.5956 -66.5956 -66.5954 -66.5952
   -66.5944 -66.5944 -66.5944 -66.5944 -66.5944 -66.5944 -66.5944 -66.5944
   -66.5944 -66.5933 -66.5891 -66.5891 -66.5873 -66.5873 -66.5636 -66.5635
   -66.5613 -53.8751 -53.8087 -53.8087 -40.9658 -40.9658 -40.9658 -40.9657
   -40.9657 -40.9657 -40.9651 -40.9651 -40.9651 -40.9588 -40.9521 -40.9521
   -40.8905 -40.8905 -40.8904 -40.8904 -40.8904 -40.8904 -40.8904 -40.8904
   -40.8904 -40.8904 -40.8904 -40.8904 -40.8898 -40.8898 -40.8898 -40.8898
   -40.8898 -40.8898 -40.8860 -40.8860 -40.8789 -40.8734 -40.8729 -40.8728
   -40.7981 -40.7980 -40.7974 -40.7908 -40.7641 -40.7641 -40.7641 -40.7641
   -40.7641 -40.7641 -40.7641 -40.7641 -40.7641 -40.7641 -40.7640 -40.7640
   -40.7633 -40.7633 -40.7633 -40.7633 -40.7633 -40.7633 -40.7585 -40.7583
   -40.7583 -40.7564 -40.7564 -40.7563 -40.7563 -40.7563 -40.7563 -40.7563
   -40.7563 -40.7563 -40.7563 -40.7563 -40.7562 -40.7557 -40.7557 -40.7557
   -40.7557 -40.7557 -40.7557 -40.7546 -40.7546 -40.7521 -40.7521 -40.7501
   -40.7490 -40.7428 -40.7427 -40.7424 -40.7291 -40.7291 -40.7291 -40.7291
   -40.7291 -40.7291 -40.7291 -40.7291 -40.7291 -40.7291 -40.7290 -40.7290
   -40.7282 -40.7282 -40.7282 -40.7282 -40.7282 -40.7282 -40.7235 -40.7228
   -40.7228 -40.7144 -40.7144 -40.7144 -40.7144 -40.7144 -40.7144 -40.7144
   -40.7144 -40.7144 -40.7144 -40.7144 -40.7144 -40.7143 -40.7143 -40.7143
   -40.7143 -40.7143 -40.7143 -40.7143 -40.7141 -40.7137 -40.7137 -40.7137
   -40.7137 -40.7137 -40.7137 -40.7136 -40.7136 -40.7136 -40.7136 -40.7126
   -40.7101 -40.7100 -40.7083 -40.7083 -40.6988 -40.6922 -40.6922 -40.6819
   -40.6508 -40.6507 -40.6507 -40.6507 -40.6507 -40.6507 -40.6498 -40.6498
   -40.6498 -40.6451 -40.6356 -40.6356 -40.6036 -40.6036 -40.6036 -40.6036
   -40.6036 -40.6036 -40.6036 -40.6036 -40.6036 -40.6036 -40.6035 -40.6035
   -40.6026 -40.6026 -40.6026 -40.6026 -40.6026 -40.6026 -40.6011 -40.5948
   -40.5948 -40.5844 -40.5844 -40.5835 -40.5560 -40.5560 -40.5560 -40.5560
   -40.5550 -40.5550 -40.5412 -40.5412 -20.1359 -20.0693 -19.9770 -19.8914
   -19.2931 -19.2646 -19.2645 -19.2612 -19.2611 -19.2608 -19.2376 -19.2083
   -19.2083 -19.1965 -19.1965 -19.1957 -19.1483 -19.1263 -19.1262 -19.1094
   -19.1094 -19.1086 -19.0519 -19.0440 -19.0440 -19.0354 -19.0354 -19.0352
   -18.9009 -18.7716 -18.6256 -18.5236 -18.5018 -18.5018 -18.4939 -18.4803
   -18.4803 -18.4791 -18.4117 -18.4057 -18.4057 -18.3718 -18.3718 -18.3686
   -18.2910 -18.2910 -18.2885 -18.2634 -18.2634 -18.2603 -18.2032 -18.2032
   -18.1958 -18.1881 -18.1881 -18.1869 -18.1603 -18.1603 -18.1362 -18.1360
   -18.1360 -18.1356 -18.1310 -18.1310 -18.1053 -18.1039 -18.1039 -18.1021
   -18.0948 -18.0948 -18.0924 -18.0886 -18.0886 -18.0675 -18.0634 -18.0634
   -18.0601 -18.0569 -18.0569 -18.0536 -18.0391 -18.0391 -18.0291 -18.0195
   -18.0195 -18.0129 -18.0083 -18.0083 -18.0061 -17.9929 -17.9929 -17.9895
   -17.9546 -17.9546 -17.9367 -17.9272 -17.9272 -17.9253 -17.9239 -17.9238
   -17.9238 -17.9019 -17.9018 -17.8979 -17.8839 -17.8839 -17.8777 -17.8732
   -17.8729 -17.8729 -17.8676 -17.8676 -17.8672 -17.8539 -17.8539 -17.8538
   -17.8389 -17.8389 -17.8332 -17.8324 -17.8324 -17.8324 -17.8101 -17.8101
   -17.8082 -17.8079 -17.8078 -17.8077 -11.9954 -11.8556 -11.8311 -11.8311
   -11.7910 -11.7472 -11.7472 -11.7427 -11.6686 -11.6414 -11.6414 -11.5652
   -11.5552 -11.5552 -11.4209 -11.2789 -11.2537 -11.2537 -11.2500 -11.2500
   -11.2497 -11.1982 -11.1580 -11.1580 -11.1480 -11.1477 -11.1477 -11.1395
   -11.1064 -11.1064 -11.0944 -11.0757 -11.0753 -11.0753 -11.0739 -11.0709
   -11.0709 -11.0651 -11.0651 -11.0642 -11.0310 -11.0155 -11.0155 -10.9897
   -10.9878 -10.9878 -10.9550 -10.9381 -10.9381 -10.9232 -10.9214 -10.9214
   -10.8909 -10.8715 -10.8715 -10.8636 -10.8617 -10.8616 -10.8583 -10.8577
   -10.8577 -10.8451 -10.8391 -10.8391 -10.8303 -10.8182 -10.8182 -10.8175
   -10.8147 -10.8147 -10.8139 -10.8139 -10.8137 -10.8108 -10.8108 -10.8107
   -10.7853 -10.7800 -10.7799 -10.7779 -10.7743 -10.7743 -10.7537 -10.7537
   -10.7512 -10.7474 -10.7457 -10.7457 -10.7433 -10.7433 -10.7332 -10.6645
   -10.6645 -10.6543 -10.6069 -10.5909 -10.5909 -10.5874 -10.5874 -10.5857
   -10.2740 -10.2740 -10.1988 -10.0998 -10.0997  -9.9911  -9.9087  -9.9087
    -9.8208  -9.8192  -9.8192  -9.8122  -9.8117  -9.8117  -9.7951  -9.7825
    -9.7815  -9.7815  -9.7797  -9.7797  -9.7785  -9.7650  -9.7650  -9.7611
    -9.7587  -9.7587  -9.7583  -9.7363  -9.7363  -9.6996  -9.6442  -9.6442
    -9.6399  -9.6391  -9.6391  -9.6347  -9.6324  -9.6324  -9.6324  -9.6279
    -9.6279  -9.6279  -9.6263  -9.6142  -9.6142  -9.5706  -9.5706  -9.5673
    -9.5555  -9.5555  -9.5554  -9.5542  -9.5542  -9.5535  -9.5317  -9.5317
    -9.5260  -9.5260  -9.5216  -9.5203  -9.4982  -9.4982  -9.4621  -9.4577
    -9.4577  -9.4545  -9.3632  -9.3632  -9.3507  -9.3408  -9.3408  -9.3348
    -9.3348  -9.3327  -9.3210  -9.3166  -9.3165  -9.3158  -9.2377  -9.2376
    -9.2357  -9.2327  -9.2326  -9.2251  -9.1938  -9.1938  -9.1918  -9.1918
    -9.1918  -9.1879  -9.1518  -9.1518  -9.1189  -9.1188  -9.1164  -9.1101
    -9.0226  -9.0226  -8.9987  -8.9948  -8.9948  -8.9757  -8.9682  -8.9682
    -8.9484  -8.9429  -8.9429  -8.9333  -8.9323  -8.9323  -8.9314  -8.9259
    -8.9256  -8.9256  -8.8838  -8.8838  -8.8631  -8.8488  -8.8429  -8.8429
    -8.8350  -8.8342  -8.8342  -8.8341  -8.8328  -8.8328  -8.7530  -8.7460
    -8.7460  -8.7413  -8.7377  -8.7377  -8.6709  -8.6623  -8.6623  -8.6589
    -8.6538  -8.6538  -8.6036  -8.6012  -8.6011  -8.6000  -8.5980  -8.5980
    -8.5316  -8.3825  -8.3825  -8.3801  -8.3801  -8.3746  -8.3745  -8.3686
    -8.3686  -8.3128  -8.3128  -8.2948  -8.2948  -8.2937  -8.2923  -8.2878
    -8.2878  -8.2778  -8.2778  -8.2751  -8.2708  -8.2608  -8.2607  -8.2537
    -8.2537  -8.2510  -8.2451  -8.2340  -8.2340  -8.2317  -8.2317  -8.2307
    -8.2273  -8.0728  -8.0622  -8.0622  -7.8918  -7.8705  -7.8705  -7.8356
    -7.7817  -7.7817  -7.7468  -7.6963  -7.6963  -7.6687  -7.6593  -7.6593
    -7.6455  -7.6448  -7.6447  -7.6370  -7.6130  -7.6130  -7.6029  -7.5898
    -7.5898  -7.5539  -7.5534  -7.5533  -7.5527  -7.5512  -7.5512  -7.5507
    -7.5394  -7.5394  -7.5341  -7.5305  -7.5305  -7.5269  -7.5217  -7.5176
    -7.5176  -7.5116  -7.5086  -7.5086  -7.5012  -7.4956  -7.4956  -7.4934
    -7.4925  -7.4925  -7.4819  -7.4662  -7.4662  -7.4404  -7.4404  -7.4194
    -7.4187  -7.4152  -7.4152  -7.4140  -7.4140  -7.4136  -7.4039  -7.3372
    -7.3328  -7.3328  -7.3120  -7.3120  -7.3013  -7.2982  -7.2957  -7.2957
    -7.2936  -7.2872  -7.2872  -7.2666  -7.2666  -7.2526  -7.2526  -7.2370
    -7.2370  -7.2249  -7.2249  -7.1465  -7.1124  -7.1124  -7.0873  -7.0815
    -7.0815  -6.8999  -6.8841  -6.8841  -6.8592  -6.8592  -6.8562  -6.8255
    -6.8255  -6.8086  -6.7768  -6.7768  -6.7565  -6.7523  -6.6996  -6.6996
    -6.6829  -6.6681  -6.6680  -6.6347  -6.6326  -6.6326  -6.6268  -6.6180
    -6.6162  -6.6162  -6.5789  -6.5789  -6.5584  -6.5506  -6.5506  -6.5483
    -6.5326  -6.5326  -6.5277  -6.5216  -6.5216  -6.5208  -6.5188  -6.5188
    -6.5175  -6.5110  -6.5110  -6.5107  -6.5107  -6.5107  -6.5101  -6.4908
    -6.4908  -6.4872  -6.4520  -6.4520  -6.4505  -6.4228  -6.4224  -6.4224
    -6.3703  -6.3520  -6.3508  -6.3508  -6.3500  -6.3500  -6.3405  -6.3237
    -6.3220  -6.3220  -6.3187  -6.3187  -6.3012  -6.2898  -6.2897  -6.2897
    -6.2852  -6.2852  -6.2662  -6.2630  -6.2629  -6.2625  -6.2612  -6.2612
    -6.2157  -5.9983  -5.9983  -5.9750  -5.6798  -5.4931  -5.4931  -5.3561
    -5.1715  -4.0226  -3.8673  -3.8673  -3.8586  -3.8585  -3.8580  -3.8392
    -3.8367  -3.8367  -3.8345  -3.8337  -3.8336  -3.7990  -3.7178  -3.7178
    -3.6907  -3.6907  -3.6889  -3.6872  -3.6869  -3.6853  -3.6853  -3.6840
    -3.6840  -3.5683  -3.5186  -3.5185  -3.5032  -3.5023  -3.5023  -3.4933
    -3.4907  -3.4863  -3.4856  -3.4856  -3.4830  -3.4830  -3.4703  -3.4702
    -3.4612  -3.4611  -3.4569  -3.4566  -3.4557  -3.4555  -3.4451  -3.4415
    -3.4415  -3.4379  -3.4277  -3.4277  -3.4267  -3.4246  -3.4233  -3.4233
    -3.4174  -3.4174  -3.4150  -3.4039  -3.4039  -3.3633  -3.3594  -3.3553
    -3.3553  -3.3526  -3.3519  -3.3519  -3.3482  -3.3458  -3.3457  -3.3311
    -3.3311  -3.2988  -3.2951  -3.2948  -3.2948  -3.2820  -3.2820  -3.2788
    -3.2279  -3.2279  -3.2162  -3.2138  -3.2137  -3.0817  -3.0741  -3.0725
    -3.0724  -3.0716  -3.0715  -3.0576  -3.0537  -3.0537  -3.0314  -2.9869
    -2.9861  -2.9857  -2.9849  -2.9846  -2.9805  -2.9765  -2.9765  -2.9739
    -2.9738  -2.9726  -2.9678  -2.9677  -2.9664  -2.9663  -2.9597  -2.9537
    -2.9533  -2.9496  -2.9495  -2.9416  -2.9414  -2.9412  -2.9409  -2.9406
    -2.9405  -2.9378  -2.9376  -2.9023  -2.8828  -2.8828  -2.8604  -2.8564
    -2.8354  -2.8352  -2.8195  -2.8192  -2.8160  -2.8158  -2.8157  -2.8156
    -2.8155  -2.8148  -2.8141  -2.8140  -2.8127  -2.8014  -2.8014  -2.7678
    -2.7544  -2.7543  -2.7536  -2.7451  -2.7450  -2.7428  -2.7427  -2.6868
    -2.6868  -2.6503  -2.6503  -2.6369  -2.6346  -2.6310  -2.6297  -2.6282
    -2.6276  -2.5786  -2.5619  -2.5618  -2.5617  -2.5544  -2.5543  -2.4283
    -2.4217

          k = 0.0000-0.5773 0.0000 (386352 PWs)   bands (ev):

   -88.0153 -66.6322 -66.6322 -66.6322 -66.6321 -66.6309 -66.6309 -66.6282
   -66.6218 -66.6215 -66.6215 -66.6215 -66.6215 -66.6202 -66.6202 -66.6159
   -66.6116 -66.6064 -66.6064 -66.6064 -66.6064 -66.6064 -66.6064 -66.6064
   -66.6063 -66.6051 -66.6051 -66.6051 -66.6051 -66.6030 -66.6020 -66.6020
   -66.6020 -66.6019 -66.6007 -66.6007 -66.6007 -66.6000 -66.5970 -66.5965
   -66.5957 -66.5957 -66.5957 -66.5957 -66.5957 -66.5957 -66.5957 -66.5955
   -66.5944 -66.5944 -66.5944 -66.5944 -66.5913 -66.5913 -66.5912 -66.5912
   -66.5909 -66.5899 -66.5899 -66.5887 -66.5882 -66.5866 -66.5633 -66.5627
   -66.5621 -53.8751 -53.8087 -53.8087 -40.9342 -40.9341 -40.9341 -40.9341
   -40.9341 -40.9341 -40.9341 -40.9341 -40.9335 -40.9335 -40.9335 -40.9335
   -40.9282 -40.9257 -40.9237 -40.9131 -40.9073 -40.9073 -40.9073 -40.9073
   -40.9067 -40.9066 -40.9012 -40.8953 -40.8953 -40.8952 -40.8952 -40.8946
   -40.8946 -40.8929 -40.8849 -40.8796 -40.8446 -40.8446 -40.8446 -40.8446
   -40.8446 -40.8446 -40.8446 -40.8445 -40.8438 -40.8438 -40.8438 -40.8438
   -40.8348 -40.8326 -40.8325 -40.8298 -40.7859 -40.7859 -40.7858 -40.7858
   -40.7852 -40.7852 -40.7814 -40.7763 -40.7763 -40.7763 -40.7763 -40.7763
   -40.7754 -40.7754 -40.7674 -40.7650 -40.7650 -40.7650 -40.7650 -40.7644
   -40.7644 -40.7616 -40.7583 -40.7565 -40.7354 -40.7354 -40.7354 -40.7354
   -40.7354 -40.7354 -40.7353 -40.7353 -40.7347 -40.7347 -40.7347 -40.7347
   -40.7320 -40.7311 -40.7280 -40.7267 -40.7266 -40.7266 -40.7266 -40.7260
   -40.7260 -40.7220 -40.7214 -40.7179 -40.7148 -40.7148 -40.7148 -40.7148
   -40.7144 -40.7144 -40.7143 -40.7143 -40.7143 -40.7143 -40.7143 -40.7142
   -40.7140 -40.7140 -40.7136 -40.7136 -40.7136 -40.7136 -40.7104 -40.7101
   -40.7063 -40.7057 -40.7057 -40.7057 -40.7056 -40.7054 -40.7049 -40.7049
   -40.7009 -40.6904 -40.6900 -40.6891 -40.6839 -40.6839 -40.6839 -40.6839
   -40.6839 -40.6839 -40.6839 -40.6838 -40.6830 -40.6830 -40.6830 -40.6830
   -40.6781 -40.6742 -40.6739 -40.6629 -40.6491 -40.6491 -40.6491 -40.6491
   -40.6491 -40.6491 -40.6491 -40.6491 -40.6482 -40.6482 -40.6482 -40.6482
   -40.6421 -40.6375 -40.6370 -40.6370 -40.6370 -40.6369 -40.6360 -40.6360
   -40.6347 -40.6314 -40.6273 -40.6192 -40.6177 -40.6177 -40.6176 -40.6176
   -40.6167 -40.6167 -40.6095 -40.6007 -40.6007 -40.6007 -40.6006 -40.5997
   -40.5997 -40.5997 -40.5861 -40.5833 -40.5700 -40.5700 -40.5700 -40.5700
   -40.5690 -40.5690 -40.5605 -40.5510 -19.9024 -19.8956 -19.8438 -19.8247
   -19.7528 -19.7313 -19.6613 -19.6520 -19.4617 -19.4593 -19.4034 -19.3957
   -19.3185 -19.3087 -19.2335 -19.2291 -18.8190 -18.7864 -18.7486 -18.7483
   -18.7475 -18.7424 -18.7211 -18.7095 -18.7048 -18.6881 -18.6748 -18.6581
   -18.6378 -18.6327 -18.6244 -18.6133 -18.5823 -18.5787 -18.5623 -18.5566
   -18.5565 -18.5471 -18.5258 -18.5144 -18.4929 -18.4903 -18.4683 -18.4671
   -18.4585 -18.4442 -18.4177 -18.4147 -18.4000 -18.3818 -18.3513 -18.3494
   -18.3355 -18.3221 -18.2685 -18.2614 -18.2468 -18.2457 -18.2367 -18.2306
   -18.1840 -18.1795 -18.1590 -18.1444 -18.1282 -18.1201 -18.1189 -18.1153
   -18.1147 -18.1145 -18.1065 -18.0951 -18.0847 -18.0846 -18.0794 -18.0766
   -18.0738 -18.0639 -18.0554 -18.0543 -18.0489 -18.0447 -18.0411 -18.0411
   -18.0186 -18.0152 -18.0123 -18.0100 -18.0070 -18.0042 -17.9972 -17.9972
   -17.9923 -17.9844 -17.9486 -17.9480 -17.9452 -17.9380 -17.9266 -17.9266
   -17.8981 -17.8953 -17.8823 -17.8823 -17.8573 -17.8571 -17.8487 -17.8486
   -17.8333 -17.8326 -17.8319 -17.8318 -17.8293 -17.8292 -17.8226 -17.8203
   -17.8088 -17.8029 -17.7902 -17.7812 -17.7705 -17.7668 -17.7517 -17.7506
   -17.7387 -17.7384 -17.7324 -17.7324 -11.7442 -11.7276 -11.6230 -11.5294
   -11.5271 -11.5261 -11.5199 -11.4950 -11.4937 -11.4854 -11.4781 -11.4545
   -11.4458 -11.4432 -11.4242 -11.4011 -11.3831 -11.3569 -11.3458 -11.3412
   -11.3316 -11.3297 -11.3153 -11.2851 -11.2796 -11.2760 -11.2751 -11.2731
   -11.2674 -11.2656 -11.2473 -11.2395 -11.2169 -11.1946 -11.1927 -11.1910
   -11.1862 -11.1804 -11.1799 -11.1791 -11.1733 -11.1549 -11.1503 -11.1490
   -11.1222 -11.1183 -11.0727 -11.0668 -11.0659 -11.0613 -10.9712 -10.9664
   -10.9409 -10.9316 -10.9259 -10.9130 -10.9051 -10.8949 -10.8676 -10.8612
   -10.8550 -10.8438 -10.8373 -10.8261 -10.8256 -10.8254 -10.8239 -10.8184
   -10.8179 -10.8080 -10.8066 -10.8057 -10.8029 -10.8021 -10.8012 -10.8009
   -10.8002 -10.7998 -10.7914 -10.7827 -10.7714 -10.7661 -10.7557 -10.7551
   -10.7517 -10.7489 -10.5552 -10.5452 -10.5377 -10.5331 -10.5079 -10.4829
   -10.4305 -10.3845 -10.3207 -10.2573 -10.2519 -10.1952 -10.1533 -10.1518
   -10.1465 -10.1405 -10.1007 -10.0972 -10.0923 -10.0894 -10.0634 -10.0626
   -10.0583 -10.0330 -10.0290 -10.0201 -10.0179 -10.0176 -10.0071  -9.9772
    -9.9358  -9.9302  -9.9292  -9.9287  -9.9108  -9.9098  -9.9089  -9.9078
    -9.8882  -9.8677  -9.8494  -9.8395  -9.8137  -9.7945  -9.7919  -9.7842
    -9.7667  -9.7655  -9.7537  -9.7378  -9.7221  -9.7210  -9.6916  -9.6838
    -9.6781  -9.6659  -9.6501  -9.6427  -9.6210  -9.6104  -9.6010  -9.5728
    -9.5633  -9.5498  -9.5477  -9.5461  -9.5445  -9.5441  -9.5210  -9.5184
    -9.4976  -9.4968  -9.4793  -9.4734  -9.4732  -9.4698  -9.4627  -9.4618
    -9.4381  -9.4367  -9.4345  -9.4280  -9.3658  -9.3575  -9.2769  -9.2692
    -9.2549  -9.2425  -9.2157  -9.2142  -9.1995  -9.1900  -9.1822  -9.1805
    -9.1671  -9.1661  -9.1246  -9.1224  -9.1115  -9.0871  -9.0815  -9.0673
    -9.0551  -9.0481  -9.0370  -9.0357  -9.0311  -9.0265  -9.0249  -9.0210
    -8.9719  -8.9642  -8.9623  -8.9594  -8.9509  -8.9409  -8.9361  -8.9321
    -8.9033  -8.9004  -8.8956  -8.8942  -8.8867  -8.8839  -8.8823  -8.8799
    -8.8794  -8.8774  -8.8712  -8.8694  -8.8604  -8.8542  -8.8523  -8.8466
    -8.8408  -8.8373  -8.8361  -8.8304  -8.8115  -8.8110  -8.7983  -8.7941
    -8.7931  -8.7916  -8.7896  -8.7883  -8.7688  -8.7616  -8.7445  -8.7410
    -8.7322  -8.7319  -8.7080  -8.7028  -8.6592  -8.6567  -8.6145  -8.5859
    -8.5338  -8.5270  -8.5033  -8.4967  -8.4374  -8.4359  -8.3616  -8.3598
    -8.2827  -8.2614  -8.2270  -8.2203  -8.1409  -8.1406  -8.1333  -8.1318
    -8.1226  -8.1204  -8.1146  -8.0805  -8.0773  -8.0720  -7.9827  -7.9823
    -7.9378  -7.9341  -7.8852  -7.8803  -7.8590  -7.8526  -7.8493  -7.8372
    -7.8360  -7.8241  -7.8238  -7.8205  -7.8143  -7.8103  -7.8056  -7.8035
    -7.8022  -7.7980  -7.7956  -7.7955  -7.7873  -7.7863  -7.7843  -7.7841
    -7.7811  -7.7805  -7.7778  -7.7766  -7.7735  -7.7704  -7.7674  -7.7641
    -7.7579  -7.7569  -7.7462  -7.7409  -7.7356  -7.7274  -7.7253  -7.7148
    -7.7118  -7.7064  -7.7051  -7.7041  -7.6994  -7.6977  -7.6788  -7.6787
    -7.6756  -7.6751  -7.6580  -7.6548  -7.6254  -7.6243  -7.6166  -7.6113
    -7.6089  -7.6071  -7.6058  -7.6053  -7.6015  -7.5927  -7.5881  -7.5756
    -7.5736  -7.5700  -7.5640  -7.5603  -7.5497  -7.5471  -7.4711  -7.4693
    -7.4643  -7.4604  -7.4461  -7.4263  -7.2855  -7.2694  -7.2496  -7.1995
    -7.1802  -7.1793  -7.1788  -7.1715  -7.1289  -7.1249  -7.1207  -7.1129
    -7.1105  -7.1102  -7.0528  -7.0442  -7.0400  -7.0347  -7.0300  -7.0244
    -7.0083  -6.9983  -6.9744  -6.9556  -6.9532  -6.9237  -6.9183  -6.9027
    -6.9014  -6.8906  -6.8714  -6.8695  -6.8657  -6.8560  -6.8456  -6.8247
    -6.7862  -6.7696  -6.7425  -6.7275  -6.6965  -6.6820  -6.6404  -6.6337
    -6.6333  -6.6304  -6.6298  -6.6239  -6.6151  -6.6141  -6.6136  -6.6084
    -6.5989  -6.5984  -6.5979  -6.5957  -6.5916  -6.5914  -6.5913  -6.5908
    -6.5577  -6.5293  -6.4949  -6.4720  -6.4217  -6.4158  -6.3554  -6.3531
    -6.3439  -6.3411  -6.3163  -6.3153  -6.3038  -6.3015  -6.2979  -6.2927
    -6.2885  -6.2880  -6.2838  -6.2834  -6.2607  -6.2554  -6.2519  -6.2456
    -6.2378  -6.2171  -6.2141  -6.2122  -6.2112  -6.2097  -6.0500  -6.0152
    -6.0059  -5.9999  -5.9859  -5.9573  -5.9437  -5.8987  -5.8920  -5.8577
    -5.8535  -5.8514  -5.8193  -5.6848  -5.6773  -5.6040  -5.6009  -5.4912
    -5.4896  -4.1407  -4.1002  -4.0991  -4.0960  -4.0198  -3.9476  -3.9376
    -3.9231  -3.9185  -3.9122  -3.8540  -3.8526  -3.8406  -3.8340  -3.8338
    -3.8197  -3.8159  -3.8091  -3.8050  -3.7984  -3.7408  -3.6918  -3.6813
    -3.6786  -3.6331  -3.6189  -3.6117  -3.6117  -3.6107  -3.6058  -3.5648
    -3.5633  -3.5469  -3.5367  -3.5317  -3.5300  -3.5254  -3.5219  -3.5140
    -3.4907  -3.4885  -3.4855  -3.4851  -3.4816  -3.4769  -3.4755  -3.4584
    -3.4561  -3.4532  -3.4427  -3.4292  -3.4274  -3.4266  -3.4099  -3.3838
    -3.3630  -3.3605  -3.3567  -3.3555  -3.3550  -3.3527  -3.3527  -3.3407
    -3.3122  -3.3092  -3.3028  -3.2956  -3.2938  -3.2924  -3.2916  -3.2900
    -3.2890  -3.2809  -3.2652  -3.2473  -3.2469  -3.2464  -3.2436  -3.2382
    -3.2364  -3.2224  -3.2193  -3.2160  -3.2074  -3.1967  -3.1927  -3.1809
    -3.1787  -3.1781  -3.1766  -3.1747  -3.1731  -3.1731  -3.1508  -3.1122
    -3.1104  -3.0821  -3.0778  -3.0756  -3.0724  -3.0707  -3.0670  -3.0337
    -3.0333  -3.0329  -3.0326  -3.0323  -3.0307  -3.0204  -3.0194  -3.0189
    -3.0150  -3.0124  -3.0122  -3.0003  -2.9997  -2.9889  -2.9796  -2.9790
    -2.9742  -2.9724  -2.9698  -2.9650  -2.9642  -2.9584  -2.9577  -2.9531
    -2.9512  -2.9470  -2.9404  -2.9377  -2.9337  -2.9030  -2.8978  -2.8939
    -2.8884  -2.8865  -2.8806  -2.8722  -2.8715  -2.8048  -2.8001  -2.7958
    -2.7940  -2.7309  -2.7218  -2.7178  -2.7149  -2.6215  -2.6193  -2.5847
    -2.5793  -2.5773  -2.5759  -2.5505  -2.5481  -2.5381  -2.5356  -2.5345
    -2.5309  -2.5282  -2.5279  -2.4110  -2.4040  -2.4004  -2.3982  -2.3707
    -2.3675

          k =-0.5000-0.2887 0.0000 (386352 PWs)   bands (ev):

   -88.0153 -66.6322 -66.6322 -66.6322 -66.6321 -66.6309 -66.6309 -66.6282
   -66.6218 -66.6215 -66.6215 -66.6215 -66.6215 -66.6202 -66.6202 -66.6159
   -66.6116 -66.6064 -66.6064 -66.6064 -66.6064 -66.6064 -66.6064 -66.6064
   -66.6063 -66.6051 -66.6051 -66.6051 -66.6051 -66.6030 -66.6020 -66.6020
   -66.6020 -66.6019 -66.6007 -66.6007 -66.6007 -66.6000 -66.5970 -66.5965
   -66.5957 -66.5957 -66.5957 -66.5957 -66.5957 -66.5957 -66.5957 -66.5955
   -66.5944 -66.5944 -66.5944 -66.5944 -66.5913 -66.5913 -66.5912 -66.5912
   -66.5909 -66.5899 -66.5899 -66.5887 -66.5882 -66.5866 -66.5633 -66.5627
   -66.5621 -53.8751 -53.8087 -53.8087 -40.9342 -40.9341 -40.9341 -40.9341
   -40.9341 -40.9341 -40.9341 -40.9341 -40.9335 -40.9335 -40.9335 -40.9335
   -40.9282 -40.9257 -40.9237 -40.9131 -40.9073 -40.9073 -40.9073 -40.9073
   -40.9067 -40.9066 -40.9012 -40.8953 -40.8953 -40.8952 -40.8952 -40.8946
   -40.8946 -40.8928 -40.8849 -40.8796 -40.8446 -40.8446 -40.8446 -40.8446
   -40.8446 -40.8446 -40.8445 -40.8445 -40.8438 -40.8438 -40.8438 -40.8438
   -40.8348 -40.8326 -40.8325 -40.8298 -40.7859 -40.7859 -40.7858 -40.7858
   -40.7852 -40.7852 -40.7814 -40.7763 -40.7763 -40.7763 -40.7763 -40.7763
   -40.7754 -40.7754 -40.7674 -40.7650 -40.7650 -40.7650 -40.7650 -40.7644
   -40.7643 -40.7616 -40.7583 -40.7565 -40.7354 -40.7354 -40.7354 -40.7354
   -40.7354 -40.7354 -40.7353 -40.7353 -40.7347 -40.7347 -40.7347 -40.7347
   -40.7320 -40.7311 -40.7280 -40.7267 -40.7267 -40.7266 -40.7266 -40.7260
   -40.7260 -40.7220 -40.7214 -40.7179 -40.7148 -40.7148 -40.7148 -40.7148
   -40.7144 -40.7144 -40.7144 -40.7143 -40.7143 -40.7143 -40.7143 -40.7142
   -40.7140 -40.7140 -40.7136 -40.7136 -40.7136 -40.7136 -40.7104 -40.7101
   -40.7063 -40.7057 -40.7057 -40.7057 -40.7056 -40.7054 -40.7049 -40.7049
   -40.7009 -40.6904 -40.6900 -40.6891 -40.6839 -40.6839 -40.6839 -40.6839
   -40.6839 -40.6838 -40.6838 -40.6838 -40.6830 -40.6830 -40.6830 -40.6830
   -40.6781 -40.6742 -40.6740 -40.6629 -40.6491 -40.6491 -40.6491 -40.6491
   -40.6491 -40.6491 -40.6491 -40.6491 -40.6482 -40.6482 -40.6482 -40.6482
   -40.6421 -40.6375 -40.6370 -40.6370 -40.6370 -40.6369 -40.6360 -40.6360
   -40.6348 -40.6314 -40.6274 -40.6192 -40.6177 -40.6177 -40.6176 -40.6176
   -40.6167 -40.6167 -40.6095 -40.6007 -40.6007 -40.6007 -40.6006 -40.5997
   -40.5997 -40.5997 -40.5861 -40.5833 -40.5700 -40.5700 -40.5700 -40.5700
   -40.5690 -40.5690 -40.5605 -40.5510 -19.9024 -19.8956 -19.8438 -19.8247
   -19.7528 -19.7313 -19.6613 -19.6520 -19.4617 -19.4593 -19.4034 -19.3957
   -19.3185 -19.3087 -19.2335 -19.2291 -18.8190 -18.7864 -18.7486 -18.7483
   -18.7475 -18.7424 -18.7211 -18.7095 -18.7048 -18.6881 -18.6748 -18.6581
   -18.6378 -18.6327 -18.6244 -18.6133 -18.5823 -18.5787 -18.5623 -18.5566
   -18.5565 -18.5471 -18.5258 -18.5144 -18.4929 -18.4903 -18.4683 -18.4671
   -18.4585 -18.4442 -18.4177 -18.4147 -18.4000 -18.3818 -18.3513 -18.3494
   -18.3355 -18.3221 -18.2685 -18.2614 -18.2468 -18.2457 -18.2367 -18.2306
   -18.1840 -18.1795 -18.1591 -18.1444 -18.1281 -18.1201 -18.1189 -18.1153
   -18.1147 -18.1145 -18.1065 -18.0951 -18.0847 -18.0846 -18.0794 -18.0766
   -18.0738 -18.0639 -18.0554 -18.0543 -18.0489 -18.0447 -18.0412 -18.0411
   -18.0186 -18.0152 -18.0123 -18.0100 -18.0070 -18.0042 -17.9972 -17.9972
   -17.9923 -17.9844 -17.9486 -17.9480 -17.9452 -17.9380 -17.9266 -17.9265
   -17.8981 -17.8952 -17.8823 -17.8823 -17.8573 -17.8571 -17.8486 -17.8486
   -17.8333 -17.8326 -17.8319 -17.8318 -17.8293 -17.8293 -17.8226 -17.8203
   -17.8088 -17.8029 -17.7902 -17.7812 -17.7705 -17.7668 -17.7517 -17.7506
   -17.7387 -17.7384 -17.7324 -17.7324 -11.7442 -11.7276 -11.6230 -11.5294
   -11.5271 -11.5261 -11.5199 -11.4950 -11.4937 -11.4854 -11.4781 -11.4545
   -11.4458 -11.4432 -11.4242 -11.4011 -11.3831 -11.3569 -11.3458 -11.3412
   -11.3316 -11.3297 -11.3153 -11.2851 -11.2796 -11.2760 -11.2751 -11.2730
   -11.2674 -11.2656 -11.2473 -11.2395 -11.2169 -11.1946 -11.1927 -11.1910
   -11.1862 -11.1804 -11.1799 -11.1791 -11.1733 -11.1549 -11.1503 -11.1490
   -11.1222 -11.1183 -11.0727 -11.0668 -11.0659 -11.0613 -10.9712 -10.9664
   -10.9409 -10.9316 -10.9259 -10.9130 -10.9051 -10.8949 -10.8676 -10.8612
   -10.8550 -10.8438 -10.8373 -10.8261 -10.8256 -10.8254 -10.8240 -10.8184
   -10.8179 -10.8080 -10.8066 -10.8057 -10.8029 -10.8021 -10.8012 -10.8009
   -10.8002 -10.7997 -10.7915 -10.7827 -10.7714 -10.7661 -10.7558 -10.7551
   -10.7517 -10.7489 -10.5552 -10.5452 -10.5377 -10.5331 -10.5078 -10.4830
   -10.4305 -10.3845 -10.3207 -10.2573 -10.2519 -10.1953 -10.1533 -10.1518
   -10.1465 -10.1405 -10.1007 -10.0972 -10.0922 -10.0895 -10.0634 -10.0626
   -10.0583 -10.0330 -10.0290 -10.0201 -10.0179 -10.0176 -10.0071  -9.9772
    -9.9358  -9.9302  -9.9292  -9.9287  -9.9108  -9.9098  -9.9089  -9.9078
    -9.8882  -9.8677  -9.8494  -9.8395  -9.8137  -9.7945  -9.7919  -9.7842
    -9.7667  -9.7655  -9.7537  -9.7378  -9.7221  -9.7210  -9.6916  -9.6838
    -9.6781  -9.6659  -9.6501  -9.6427  -9.6210  -9.6104  -9.6010  -9.5728
    -9.5634  -9.5498  -9.5477  -9.5461  -9.5445  -9.5442  -9.5210  -9.5184
    -9.4975  -9.4968  -9.4793  -9.4734  -9.4732  -9.4698  -9.4627  -9.4618
    -9.4381  -9.4367  -9.4345  -9.4280  -9.3658  -9.3575  -9.2769  -9.2692
    -9.2549  -9.2425  -9.2157  -9.2142  -9.1995  -9.1900  -9.1822  -9.1805
    -9.1671  -9.1661  -9.1246  -9.1224  -9.1115  -9.0871  -9.0815  -9.0673
    -9.0551  -9.0481  -9.0370  -9.0358  -9.0311  -9.0265  -9.0249  -9.0210
    -8.9719  -8.9642  -8.9623  -8.9594  -8.9509  -8.9409  -8.9361  -8.9321
    -8.9033  -8.9004  -8.8956  -8.8942  -8.8867  -8.8839  -8.8823  -8.8799
    -8.8794  -8.8774  -8.8712  -8.8694  -8.8604  -8.8542  -8.8522  -8.8466
    -8.8408  -8.8373  -8.8361  -8.8304  -8.8116  -8.8109  -8.7983  -8.7942
    -8.7930  -8.7916  -8.7896  -8.7883  -8.7688  -8.7616  -8.7445  -8.7410
    -8.7322  -8.7319  -8.7080  -8.7028  -8.6592  -8.6567  -8.6145  -8.5859
    -8.5338  -8.5270  -8.5033  -8.4967  -8.4374  -8.4359  -8.3616  -8.3598
    -8.2827  -8.2614  -8.2271  -8.2203  -8.1409  -8.1406  -8.1333  -8.1318
    -8.1225  -8.1204  -8.1146  -8.0805  -8.0773  -8.0720  -7.9827  -7.9823
    -7.9378  -7.9341  -7.8852  -7.8803  -7.8590  -7.8526  -7.8493  -7.8372
    -7.8359  -7.8242  -7.8238  -7.8206  -7.8142  -7.8103  -7.8056  -7.8035
    -7.8022  -7.7980  -7.7956  -7.7955  -7.7873  -7.7863  -7.7843  -7.7841
    -7.7811  -7.7805  -7.7779  -7.7766  -7.7735  -7.7704  -7.7674  -7.7641
    -7.7578  -7.7569  -7.7462  -7.7409  -7.7356  -7.7274  -7.7253  -7.7148
    -7.7119  -7.7064  -7.7051  -7.7041  -7.6994  -7.6977  -7.6788  -7.6787
    -7.6756  -7.6751  -7.6580  -7.6548  -7.6254  -7.6243  -7.6165  -7.6113
    -7.6089  -7.6071  -7.6058  -7.6053  -7.6015  -7.5927  -7.5881  -7.5756
    -7.5736  -7.5700  -7.5640  -7.5603  -7.5497  -7.5471  -7.4711  -7.4693
    -7.4643  -7.4604  -7.4461  -7.4263  -7.2855  -7.2694  -7.2496  -7.1995
    -7.1802  -7.1793  -7.1788  -7.1715  -7.1289  -7.1249  -7.1207  -7.1129
    -7.1105  -7.1102  -7.0528  -7.0442  -7.0400  -7.0347  -7.0300  -7.0244
    -7.0083  -6.9983  -6.9744  -6.9556  -6.9532  -6.9237  -6.9183  -6.9027
    -6.9014  -6.8906  -6.8714  -6.8695  -6.8657  -6.8560  -6.8456  -6.8247
    -6.7862  -6.7696  -6.7425  -6.7275  -6.6965  -6.6820  -6.6404  -6.6337
    -6.6333  -6.6304  -6.6298  -6.6239  -6.6151  -6.6141  -6.6136  -6.6084
    -6.5989  -6.5984  -6.5979  -6.5957  -6.5915  -6.5914  -6.5913  -6.5908
    -6.5577  -6.5293  -6.4949  -6.4720  -6.4217  -6.4158  -6.3554  -6.3531
    -6.3440  -6.3411  -6.3163  -6.3153  -6.3038  -6.3015  -6.2979  -6.2927
    -6.2885  -6.2880  -6.2838  -6.2834  -6.2607  -6.2554  -6.2519  -6.2456
    -6.2378  -6.2171  -6.2140  -6.2122  -6.2112  -6.2097  -6.0500  -6.0152
    -6.0059  -5.9999  -5.9859  -5.9573  -5.9437  -5.8987  -5.8920  -5.8577
    -5.8535  -5.8514  -5.8193  -5.6848  -5.6773  -5.6040  -5.6009  -5.4911
    -5.4896  -4.1407  -4.1002  -4.0993  -4.0962  -4.0198  -3.9475  -3.9376
    -3.9230  -3.9184  -3.9123  -3.8538  -3.8524  -3.8407  -3.8340  -3.8338
    -3.8196  -3.8159  -3.8091  -3.8050  -3.7984  -3.7407  -3.6918  -3.6812
    -3.6786  -3.6331  -3.6190  -3.6117  -3.6117  -3.6106  -3.6059  -3.5649
    -3.5633  -3.5469  -3.5368  -3.5317  -3.5300  -3.5254  -3.5220  -3.5139
    -3.4907  -3.4884  -3.4855  -3.4851  -3.4815  -3.4769  -3.4756  -3.4584
    -3.4562  -3.4531  -3.4428  -3.4291  -3.4274  -3.4266  -3.4098  -3.3838
    -3.3629  -3.3604  -3.3565  -3.3552  -3.3552  -3.3526  -3.3526  -3.3405
    -3.3122  -3.3091  -3.3027  -3.2956  -3.2937  -3.2923  -3.2915  -3.2900
    -3.2890  -3.2808  -3.2651  -3.2473  -3.2469  -3.2463  -3.2435  -3.2381
    -3.2364  -3.2222  -3.2192  -3.2160  -3.2074  -3.1965  -3.1925  -3.1807
    -3.1786  -3.1780  -3.1765  -3.1746  -3.1732  -3.1730  -3.1507  -3.1125
    -3.1108  -3.0821  -3.0777  -3.0756  -3.0723  -3.0706  -3.0669  -3.0337
    -3.0333  -3.0330  -3.0327  -3.0324  -3.0308  -3.0204  -3.0194  -3.0189
    -3.0152  -3.0125  -3.0124  -3.0002  -2.9996  -2.9891  -2.9802  -2.9794
    -2.9746  -2.9726  -2.9696  -2.9650  -2.9642  -2.9582  -2.9577  -2.9529
    -2.9512  -2.9469  -2.9404  -2.9377  -2.9337  -2.9024  -2.8984  -2.8945
    -2.8891  -2.8864  -2.8806  -2.8718  -2.8712  -2.8046  -2.8011  -2.7960
    -2.7943  -2.7312  -2.7221  -2.7182  -2.7150  -2.6215  -2.6193  -2.5828
    -2.5791  -2.5736  -2.5545  -2.5487  -2.5471  -2.5364  -2.5356  -2.5343
    -2.5293  -2.5281  -2.5276  -2.4086  -2.4042  -2.3953  -2.3942  -2.3652
    -2.3624

          k =-0.5000-0.8660 0.0000 (386352 PWs)   bands (ev):

   -88.0153 -66.6322 -66.6322 -66.6321 -66.6321 -66.6309 -66.6309 -66.6282
   -66.6218 -66.6215 -66.6215 -66.6215 -66.6215 -66.6202 -66.6202 -66.6159
   -66.6116 -66.6064 -66.6064 -66.6064 -66.6064 -66.6064 -66.6064 -66.6064
   -66.6063 -66.6051 -66.6051 -66.6051 -66.6051 -66.6030 -66.6020 -66.6020
   -66.6020 -66.6019 -66.6007 -66.6007 -66.6007 -66.6000 -66.5970 -66.5965
   -66.5957 -66.5957 -66.5957 -66.5957 -66.5957 -66.5957 -66.5957 -66.5955
   -66.5944 -66.5944 -66.5944 -66.5944 -66.5913 -66.5913 -66.5912 -66.5912
   -66.5909 -66.5899 -66.5899 -66.5887 -66.5882 -66.5866 -66.5633 -66.5628
   -66.5621 -53.8751 -53.8087 -53.8087 -40.9342 -40.9341 -40.9341 -40.9341
   -40.9341 -40.9341 -40.9341 -40.9341 -40.9335 -40.9335 -40.9335 -40.9335
   -40.9282 -40.9257 -40.9237 -40.9131 -40.9074 -40.9073 -40.9073 -40.9073
   -40.9067 -40.9066 -40.9012 -40.8953 -40.8953 -40.8953 -40.8952 -40.8946
   -40.8946 -40.8928 -40.8849 -40.8796 -40.8446 -40.8446 -40.8446 -40.8446
   -40.8446 -40.8446 -40.8446 -40.8445 -40.8438 -40.8438 -40.8438 -40.8438
   -40.8348 -40.8326 -40.8325 -40.8298 -40.7859 -40.7859 -40.7858 -40.7858
   -40.7852 -40.7852 -40.7814 -40.7763 -40.7763 -40.7763 -40.7763 -40.7763
   -40.7754 -40.7754 -40.7674 -40.7650 -40.7650 -40.7650 -40.7650 -40.7644
   -40.7644 -40.7616 -40.7583 -40.7565 -40.7354 -40.7354 -40.7354 -40.7354
   -40.7354 -40.7354 -40.7353 -40.7353 -40.7347 -40.7347 -40.7347 -40.7347
   -40.7320 -40.7311 -40.7280 -40.7267 -40.7267 -40.7266 -40.7266 -40.7260
   -40.7259 -40.7220 -40.7214 -40.7179 -40.7148 -40.7148 -40.7148 -40.7148
   -40.7144 -40.7144 -40.7144 -40.7144 -40.7143 -40.7143 -40.7143 -40.7142
   -40.7140 -40.7140 -40.7136 -40.7136 -40.7136 -40.7136 -40.7104 -40.7101
   -40.7063 -40.7057 -40.7057 -40.7057 -40.7056 -40.7054 -40.7049 -40.7049
   -40.7009 -40.6905 -40.6900 -40.6891 -40.6839 -40.6839 -40.6839 -40.6839
   -40.6838 -40.6838 -40.6838 -40.6838 -40.6830 -40.6830 -40.6830 -40.6829
   -40.6781 -40.6742 -40.6740 -40.6628 -40.6491 -40.6491 -40.6491 -40.6491
   -40.6491 -40.6491 -40.6491 -40.6491 -40.6482 -40.6482 -40.6482 -40.6482
   -40.6421 -40.6375 -40.6370 -40.6370 -40.6370 -40.6369 -40.6360 -40.6360
   -40.6348 -40.6313 -40.6274 -40.6192 -40.6177 -40.6177 -40.6176 -40.6176
   -40.6167 -40.6167 -40.6095 -40.6007 -40.6007 -40.6007 -40.6006 -40.5997
   -40.5997 -40.5997 -40.5860 -40.5834 -40.5700 -40.5700 -40.5700 -40.5700
   -40.5690 -40.5690 -40.5605 -40.5510 -19.9024 -19.8956 -19.8438 -19.8247
   -19.7528 -19.7313 -19.6613 -19.6520 -19.4617 -19.4593 -19.4034 -19.3957
   -19.3185 -19.3087 -19.2335 -19.2291 -18.8190 -18.7864 -18.7486 -18.7483
   -18.7475 -18.7424 -18.7211 -18.7095 -18.7048 -18.6881 -18.6748 -18.6581
   -18.6378 -18.6327 -18.6244 -18.6133 -18.5823 -18.5787 -18.5623 -18.5566
   -18.5565 -18.5471 -18.5258 -18.5144 -18.4929 -18.4903 -18.4683 -18.4671
   -18.4585 -18.4442 -18.4177 -18.4147 -18.4000 -18.3818 -18.3513 -18.3494
   -18.3355 -18.3221 -18.2685 -18.2614 -18.2468 -18.2457 -18.2367 -18.2306
   -18.1840 -18.1795 -18.1591 -18.1444 -18.1281 -18.1201 -18.1189 -18.1153
   -18.1147 -18.1145 -18.1065 -18.0951 -18.0847 -18.0846 -18.0794 -18.0766
   -18.0738 -18.0639 -18.0554 -18.0543 -18.0489 -18.0447 -18.0412 -18.0411
   -18.0186 -18.0152 -18.0123 -18.0100 -18.0070 -18.0042 -17.9972 -17.9972
   -17.9923 -17.9844 -17.9486 -17.9480 -17.9452 -17.9380 -17.9266 -17.9266
   -17.8981 -17.8953 -17.8823 -17.8823 -17.8573 -17.8571 -17.8486 -17.8486
   -17.8333 -17.8326 -17.8319 -17.8318 -17.8293 -17.8292 -17.8226 -17.8203
   -17.8088 -17.8029 -17.7902 -17.7812 -17.7705 -17.7668 -17.7517 -17.7506
   -17.7387 -17.7384 -17.7324 -17.7324 -11.7441 -11.7276 -11.6230 -11.5294
   -11.5271 -11.5261 -11.5199 -11.4950 -11.4937 -11.4854 -11.4781 -11.4545
   -11.4458 -11.4432 -11.4242 -11.4011 -11.3830 -11.3569 -11.3458 -11.3412
   -11.3316 -11.3297 -11.3153 -11.2851 -11.2796 -11.2760 -11.2751 -11.2730
   -11.2674 -11.2656 -11.2473 -11.2395 -11.2169 -11.1946 -11.1927 -11.1910
   -11.1862 -11.1804 -11.1799 -11.1791 -11.1733 -11.1549 -11.1503 -11.1490
   -11.1222 -11.1183 -11.0727 -11.0668 -11.0659 -11.0613 -10.9712 -10.9664
   -10.9409 -10.9316 -10.9259 -10.9130 -10.9051 -10.8949 -10.8676 -10.8612
   -10.8550 -10.8438 -10.8373 -10.8261 -10.8256 -10.8254 -10.8239 -10.8184
   -10.8179 -10.8080 -10.8066 -10.8057 -10.8029 -10.8021 -10.8012 -10.8009
   -10.8002 -10.7998 -10.7914 -10.7827 -10.7714 -10.7661 -10.7557 -10.7551
   -10.7517 -10.7489 -10.5552 -10.5452 -10.5377 -10.5331 -10.5078 -10.4829
   -10.4305 -10.3845 -10.3207 -10.2573 -10.2519 -10.1953 -10.1533 -10.1518
   -10.1465 -10.1405 -10.1007 -10.0972 -10.0922 -10.0894 -10.0634 -10.0626
   -10.0583 -10.0330 -10.0290 -10.0201 -10.0179 -10.0176 -10.0071  -9.9772
    -9.9358  -9.9302  -9.9292  -9.9287  -9.9108  -9.9098  -9.9089  -9.9078
    -9.8882  -9.8677  -9.8494  -9.8395  -9.8137  -9.7945  -9.7919  -9.7842
    -9.7667  -9.7655  -9.7537  -9.7378  -9.7221  -9.7210  -9.6916  -9.6838
    -9.6781  -9.6659  -9.6501  -9.6427  -9.6210  -9.6104  -9.6010  -9.5728
    -9.5634  -9.5498  -9.5477  -9.5461  -9.5445  -9.5441  -9.5210  -9.5184
    -9.4976  -9.4968  -9.4793  -9.4734  -9.4732  -9.4698  -9.4627  -9.4618
    -9.4381  -9.4367  -9.4345  -9.4280  -9.3658  -9.3575  -9.2769  -9.2692
    -9.2549  -9.2425  -9.2157  -9.2142  -9.1995  -9.1900  -9.1822  -9.1805
    -9.1671  -9.1661  -9.1246  -9.1224  -9.1115  -9.0871  -9.0815  -9.0673
    -9.0551  -9.0481  -9.0370  -9.0358  -9.0311  -9.0265  -9.0249  -9.0210
    -8.9719  -8.9642  -8.9623  -8.9594  -8.9509  -8.9409  -8.9361  -8.9321
    -8.9033  -8.9004  -8.8956  -8.8942  -8.8867  -8.8839  -8.8823  -8.8799
    -8.8794  -8.8774  -8.8712  -8.8694  -8.8604  -8.8542  -8.8522  -8.8466
    -8.8408  -8.8373  -8.8361  -8.8304  -8.8116  -8.8110  -8.7983  -8.7941
    -8.7931  -8.7916  -8.7896  -8.7883  -8.7688  -8.7616  -8.7445  -8.7410
    -8.7322  -8.7319  -8.7080  -8.7028  -8.6592  -8.6567  -8.6145  -8.5859
    -8.5338  -8.5270  -8.5033  -8.4967  -8.4374  -8.4359  -8.3616  -8.3598
    -8.2827  -8.2613  -8.2271  -8.2203  -8.1410  -8.1406  -8.1333  -8.1318
    -8.1226  -8.1204  -8.1146  -8.0805  -8.0773  -8.0720  -7.9827  -7.9823
    -7.9378  -7.9341  -7.8852  -7.8803  -7.8590  -7.8526  -7.8493  -7.8372
    -7.8359  -7.8241  -7.8238  -7.8206  -7.8143  -7.8103  -7.8056  -7.8035
    -7.8022  -7.7980  -7.7956  -7.7955  -7.7873  -7.7863  -7.7843  -7.7841
    -7.7811  -7.7805  -7.7778  -7.7766  -7.7735  -7.7704  -7.7674  -7.7641
    -7.7578  -7.7569  -7.7462  -7.7409  -7.7356  -7.7274  -7.7253  -7.7148
    -7.7118  -7.7064  -7.7051  -7.7041  -7.6994  -7.6977  -7.6788  -7.6787
    -7.6756  -7.6751  -7.6580  -7.6548  -7.6254  -7.6243  -7.6165  -7.6113
    -7.6089  -7.6071  -7.6058  -7.6053  -7.6015  -7.5927  -7.5882  -7.5756
    -7.5736  -7.5700  -7.5640  -7.5603  -7.5497  -7.5471  -7.4711  -7.4693
    -7.4643  -7.4604  -7.4461  -7.4263  -7.2854  -7.2694  -7.2496  -7.1995
    -7.1802  -7.1793  -7.1788  -7.1715  -7.1289  -7.1249  -7.1207  -7.1129
    -7.1105  -7.1102  -7.0528  -7.0442  -7.0400  -7.0347  -7.0300  -7.0244
    -7.0083  -6.9983  -6.9744  -6.9556  -6.9532  -6.9237  -6.9183  -6.9027
[...]
     atom  161 type  2   force =     0.00000109   -0.00000199    0.00018783
     atom  162 type  2   force =    -0.00000958    0.00001250   -0.00016195
     atom  163 type  1   force =    -0.00005701    0.00002695    0.00000447
     atom  164 type  1   force =     0.00005823   -0.00019620   -0.00028795
     atom  165 type  2   force =    -0.00000368   -0.00002602    0.00016892
     atom  166 type  2   force =     0.00000864   -0.00000020   -0.00016580
     atom  167 type  2   force =     0.00000992   -0.00000748    0.00015566
     atom  168 type  2   force =    -0.00001359   -0.00001562   -0.00009244
     atom  169 type  1   force =    -0.00000378   -0.00001400   -0.00000568
     atom  170 type  1   force =     0.00001022   -0.00003303    0.00000548
     atom  171 type  2   force =    -0.00001219   -0.00000204    0.00014900
     atom  172 type  2   force =    -0.00000675   -0.00000166   -0.00013022
     atom  173 type  2   force =    -0.00001055   -0.00000118    0.00018707
     atom  174 type  2   force =    -0.00001947    0.00000235   -0.00015403
     atom  175 type  1   force =    -0.00005992   -0.00002144    0.00003297
     atom  176 type  1   force =     0.00007145   -0.00001337   -0.00023405
     atom  177 type  2   force =    -0.00002721    0.00000641    0.00016329
     atom  178 type  2   force =    -0.00002886   -0.00000890   -0.00018006
     atom  179 type  2   force =    -0.00001067    0.00000154    0.00015610
     atom  180 type  2   force =    -0.00005215   -0.00002160   -0.00007911
     atom  181 type  1   force =    -0.00002734    0.00000398    0.00000803
     atom  182 type  1   force =    -0.00004172    0.00000820    0.00003355
     atom  183 type  2   force =    -0.00000461   -0.00001259    0.00014760
     atom  184 type  2   force =    -0.00000728   -0.00000040   -0.00011950
     atom  185 type  2   force =    -0.00000992   -0.00000635    0.00018499
     atom  186 type  2   force =     0.00000492   -0.00001515   -0.00015280
     atom  187 type  1   force =    -0.00001746   -0.00005789    0.00000925
     atom  188 type  1   force =    -0.00002826    0.00008065   -0.00027594
     atom  189 type  2   force =    -0.00004523   -0.00000153    0.00017987
     atom  190 type  2   force =    -0.00003375   -0.00000906   -0.00017500
     atom  191 type  2   force =    -0.00001585    0.00000121    0.00014430
     atom  192 type  2   force =    -0.00003883   -0.00000331   -0.00010633
     atom  193 type  3   force =    -0.00001660    0.00000319   -0.00131106

     DFT-D3 dispersion contribution to forces:
     atom    1 type  1   force =     0.00000002    0.00000002    0.00255980
     atom    2 type  1   force =    -0.00000004    0.00000002    0.00001539
     atom    3 type  2   force =     0.00000001    0.00000001   -0.00003300
     atom    4 type  2   force =    -0.00000002    0.00000000    0.00017155
     atom    5 type  2   force =    -0.00000001    0.00000000    0.00441521
     atom    6 type  2   force =    -0.00000010   -0.00000001    0.00009790
     atom    7 type  1   force =    -0.00000407   -0.00000118   -0.00000788
     atom    8 type  1   force =     0.00006465    0.00019016   -0.00240007
     atom    9 type  2   force =    -0.00000207    0.00000795   -0.00014853
     atom   10 type  2   force =    -0.00000351   -0.00000350    0.00003747
     atom   11 type  2   force =    -0.00000015   -0.00000023   -0.00009720
     atom   12 type  2   force =     0.00020011    0.00023161   -0.00430993
     atom   13 type  1   force =     0.00000003    0.00000001    0.00255980
     atom   14 type  1   force =    -0.00000002   -0.00000001    0.00001536
     atom   15 type  2   force =     0.00000003    0.00000001   -0.00003301
     atom   16 type  2   force =     0.00000001    0.00000000    0.00017156
     atom   17 type  2   force =    -0.00000002   -0.00000001    0.00441517
     atom   18 type  2   force =    -0.00000003   -0.00000008    0.00009789
     atom   19 type  1   force =    -0.00000306   -0.00000291   -0.00000785
     atom   20 type  1   force =     0.00031074    0.00017942   -0.00219283
     atom   21 type  2   force =     0.00000584   -0.00000576   -0.00014852
     atom   22 type  2   force =    -0.00000701   -0.00000404    0.00003857
     atom   23 type  2   force =    -0.00000007   -0.00000006   -0.00009719
     atom   24 type  2   force =     0.00030063    0.00005749   -0.00430994
     atom   25 type  1   force =     0.00000000   -0.00000002    0.00255976
     atom   26 type  1   force =     0.00000004   -0.00000001    0.00001537
     atom   27 type  2   force =     0.00000003    0.00000000   -0.00003299
     atom   28 type  2   force =     0.00000000   -0.00000000    0.00017155
     atom   29 type  2   force =     0.00000000   -0.00000000    0.00441521
     atom   30 type  2   force =     0.00000002   -0.00000007    0.00009792
     atom   31 type  1   force =     0.00000000   -0.00000313   -0.00000991
     atom   32 type  1   force =     0.00019699   -0.00003909   -0.00240010
     atom   33 type  2   force =    -0.00000000   -0.00000031   -0.00017579
     atom   34 type  2   force =    -0.00000478   -0.00000131    0.00003745
     atom   35 type  2   force =    -0.00000029    0.00000002   -0.00009716
     atom   36 type  2   force =     0.00000000   -0.00002394   -0.00440192
     atom   37 type  1   force =    -0.00000001    0.00000000    0.00255975
     atom   38 type  1   force =     0.00000001    0.00000001    0.00001537
     atom   39 type  2   force =     0.00000001    0.00000001   -0.00003298
     atom   40 type  2   force =    -0.00000000   -0.00000001    0.00017152
     atom   41 type  2   force =    -0.00000000    0.00000000    0.00441525
     atom   42 type  2   force =    -0.00000006    0.00000005    0.00009791
     atom   43 type  1   force =    -0.00000270    0.00000154   -0.00000991
     atom   44 type  1   force =    -0.00000000   -0.00000001   -0.00253823
     atom   45 type  2   force =    -0.00000026    0.00000014   -0.00017578
     atom   46 type  2   force =    -0.00000000    0.00000001    0.00003684
     atom   47 type  2   force =    -0.00000000   -0.00000001   -0.00009723
     atom   48 type  2   force =    -0.00002073    0.00001197   -0.00440192
     atom   49 type  1   force =    -0.00000000    0.00000005    0.00255978
     atom   50 type  1   force =     0.00000004   -0.00000000    0.00001541
     atom   51 type  2   force =    -0.00000002   -0.00000000   -0.00003300
     atom   52 type  2   force =     0.00000001    0.00000000    0.00017155
     atom   53 type  2   force =     0.00000000    0.00000001    0.00441521
     atom   54 type  2   force =    -0.00000001   -0.00000005    0.00009789
     atom   55 type  1   force =     0.00000001   -0.00000185   -0.00001391
     atom   56 type  1   force =    -0.00006465    0.00019016   -0.00240007
     atom   57 type  2   force =     0.00000000    0.00004607   -0.00008455
     atom   58 type  2   force =     0.00000350   -0.00000350    0.00003746
     atom   59 type  2   force =     0.00000015   -0.00000024   -0.00009720
     atom   60 type  2   force =     0.00000000    0.00055350   -0.00417271
     atom   61 type  1   force =    -0.00000002   -0.00000001    0.00255986
     atom   62 type  1   force =    -0.00000002   -0.00000001    0.00001522
     atom   63 type  2   force =    -0.00000003    0.00000000   -0.00003300
     atom   64 type  2   force =    -0.00000000    0.00000002    0.00017158
     atom   65 type  2   force =    -0.00000000    0.00000004    0.00441507
     atom   66 type  2   force =    -0.00000005   -0.00000001    0.00009787
     atom   67 type  1   force =    -0.00000430   -0.00000247   -0.00001953
     atom   68 type  1   force =    -0.00000000    0.00016626   -0.00222655
     atom   69 type  2   force =     0.00008597    0.00004964    0.00013756
     atom   70 type  2   force =     0.00000000   -0.00000671    0.00003404
     atom   71 type  2   force =    -0.00000000   -0.00000023   -0.00009872
     atom   72 type  2   force =     0.00006728    0.00003884   -0.00434420
     atom   73 type  1   force =     0.00000004   -0.00000002    0.00255980
     atom   74 type  1   force =    -0.00000002    0.00000004    0.00001522
     atom   75 type  2   force =     0.00000000   -0.00000002   -0.00003299
     atom   76 type  2   force =     0.00000002    0.00000000    0.00017159
     atom   77 type  2   force =     0.00000003   -0.00000002    0.00441507
     atom   78 type  2   force =    -0.00000003    0.00000002    0.00009788
     atom   79 type  1   force =    -0.00000161    0.00000092   -0.00001390
     atom   80 type  1   force =     0.00014399   -0.00008314   -0.00222654
     atom   81 type  2   force =     0.00003989   -0.00002304   -0.00008456
     atom   82 type  2   force =    -0.00000582    0.00000337    0.00003403
     atom   83 type  2   force =    -0.00000019    0.00000013   -0.00009873
     atom   84 type  2   force =     0.00047935   -0.00027676   -0.00417272
     atom   85 type  1   force =     0.00000002    0.00000000    0.00255975
     atom   86 type  1   force =     0.00000006    0.00000002    0.00001540
     atom   87 type  2   force =    -0.00000000   -0.00000001   -0.00003298
     atom   88 type  2   force =     0.00000002    0.00000000    0.00017157
     atom   89 type  2   force =     0.00000001    0.00000000    0.00441521
     atom   90 type  2   force =     0.00000007    0.00000003    0.00009791
     atom   91 type  1   force =     0.00000271    0.00000155   -0.00000992
     atom   92 type  1   force =     0.00013234   -0.00015106   -0.00240009
     atom   93 type  2   force =     0.00000027    0.00000014   -0.00017579
     atom   94 type  2   force =    -0.00000125    0.00000479    0.00003746
     atom   95 type  2   force =    -0.00000013    0.00000024   -0.00009721
     atom   96 type  2   force =     0.00002073    0.00001197   -0.00440192
     atom   97 type  1   force =    -0.00000002    0.00000002    0.00255980
     atom   98 type  1   force =     0.00000007   -0.00000002    0.00001554
     atom   99 type  2   force =     0.00000002    0.00000000   -0.00003300
     atom  100 type  2   force =     0.00000000   -0.00000001    0.00017154
     atom  101 type  2   force =    -0.00000001   -0.00000001    0.00441523
     atom  102 type  2   force =     0.00000012   -0.00000001    0.00009790
     atom  103 type  1   force =     0.00000408   -0.00000118   -0.00000788
     atom  104 type  1   force =    -0.00000755   -0.00000435   -0.00251950
     atom  105 type  2   force =     0.00000207    0.00000796   -0.00014852
     atom  106 type  2   force =     0.00000338    0.00000194    0.00004142
     atom  107 type  2   force =    -0.00000010   -0.00000005   -0.00009585
     atom  108 type  2   force =    -0.00020011    0.00023162   -0.00430993
     atom  109 type  1   force =     0.00000002   -0.00000001    0.00255985
     atom  110 type  1   force =     0.00000004   -0.00000002    0.00001538
     atom  111 type  2   force =     0.00000002    0.00000001   -0.00003300
     atom  112 type  2   force =    -0.00000001    0.00000000    0.00017156
     atom  113 type  2   force =     0.00000002   -0.00000001    0.00441517
     atom  114 type  2   force =     0.00000005   -0.00000001    0.00009788
     atom  115 type  1   force =     0.00000431   -0.00000246   -0.00001953
     atom  116 type  1   force =    -0.00031075    0.00017941   -0.00219283
     atom  117 type  2   force =    -0.00008597    0.00004964    0.00013756
     atom  118 type  2   force =     0.00000701   -0.00000402    0.00003856
     atom  119 type  2   force =     0.00000007   -0.00000006   -0.00009718
     atom  120 type  2   force =    -0.00006728    0.00003884   -0.00434420
     atom  121 type  1   force =    -0.00000000    0.00000003    0.00255987
     atom  122 type  1   force =    -0.00000000    0.00000005    0.00001521
     atom  123 type  2   force =     0.00000001    0.00000003   -0.00003299
     atom  124 type  2   force =    -0.00000002   -0.00000000    0.00017158
     atom  125 type  2   force =    -0.00000003   -0.00000002    0.00441507
     atom  126 type  2   force =     0.00000002    0.00000007    0.00009786
     atom  127 type  1   force =     0.00000001    0.00000496   -0.00001954
     atom  128 type  1   force =    -0.00014399   -0.00008313   -0.00222655
     atom  129 type  2   force =     0.00000000   -0.00009928    0.00013755
     atom  130 type  2   force =     0.00000583    0.00000335    0.00003402
     atom  131 type  2   force =     0.00000018    0.00000012   -0.00009869
     atom  132 type  2   force =     0.00000000   -0.00007768   -0.00434421
     atom  133 type  1   force =     0.00000001   -0.00000004    0.00255981
     atom  134 type  1   force =    -0.00000000    0.00000007    0.00001538
     atom  135 type  2   force =     0.00000003   -0.00000001   -0.00003299
     atom  136 type  2   force =    -0.00000001   -0.00000000    0.00017158
     atom  137 type  2   force =    -0.00000000    0.00000002    0.00441517
     atom  138 type  2   force =     0.00000007    0.00000009    0.00009789
     atom  139 type  1   force =     0.00000102    0.00000410   -0.00000788
     atom  140 type  1   force =     0.00000000   -0.00035883   -0.00219285
     atom  141 type  2   force =     0.00000790   -0.00000218   -0.00014854
     atom  142 type  2   force =    -0.00000001    0.00000809    0.00003856
     atom  143 type  2   force =    -0.00000001    0.00000009   -0.00009720
     atom  144 type  2   force =     0.00010052   -0.00028909   -0.00430995
     atom  145 type  1   force =     0.00000000   -0.00000000    0.00255983
     atom  146 type  1   force =    -0.00000008   -0.00000001    0.00001554
     atom  147 type  2   force =    -0.00000001   -0.00000003   -0.00003295
     atom  148 type  2   force =    -0.00000000   -0.00000001    0.00017155
     atom  149 type  2   force =     0.00000001   -0.00000001    0.00441523
     atom  150 type  2   force =    -0.00000001   -0.00000003    0.00009796
     atom  151 type  1   force =    -0.00000001   -0.00000000   -0.00000315
     atom  152 type  1   force =     0.00000755   -0.00000435   -0.00251950
     atom  153 type  2   force =     0.00000000    0.00000000   -0.00017698
     atom  154 type  2   force =    -0.00000337    0.00000195    0.00004143
     atom  155 type  2   force =     0.00000010   -0.00000006   -0.00009587
     atom  156 type  2   force =     0.00000000   -0.00000000   -0.00441159
     atom  157 type  1   force =    -0.00000003    0.00000001    0.00255980
     atom  158 type  1   force =    -0.00000001   -0.00000009    0.00001554
     atom  159 type  2   force =    -0.00000003   -0.00000001   -0.00003300
     atom  160 type  2   force =     0.00000000    0.00000000    0.00017154
     atom  161 type  2   force =    -0.00000000    0.00000001    0.00441523
     atom  162 type  2   force =     0.00000004   -0.00000010    0.00009790
     atom  163 type  1   force =     0.00000305   -0.00000292   -0.00000785
     atom  164 type  1   force =    -0.00000000    0.00000873   -0.00251950
     atom  165 type  2   force =    -0.00000585   -0.00000576   -0.00014853
     atom  166 type  2   force =    -0.00000000   -0.00000388    0.00004143
     atom  167 type  2   force =    -0.00000001    0.00000010   -0.00009584
     atom  168 type  2   force =    -0.00030063    0.00005749   -0.00430994
     atom  169 type  1   force =    -0.00000004   -0.00000002    0.00255979
     atom  170 type  1   force =    -0.00000002   -0.00000003    0.00001539
     atom  171 type  2   force =    -0.00000005   -0.00000001   -0.00003299
     atom  172 type  2   force =     0.00000000   -0.00000000    0.00017155
     atom  173 type  2   force =    -0.00000000   -0.00000000    0.00441521
     atom  174 type  2   force =    -0.00000000    0.00000002    0.00009789
     atom  175 type  1   force =     0.00000160    0.00000092   -0.00001389
     atom  176 type  1   force =    -0.00019700   -0.00003909   -0.00240010
     atom  177 type  2   force =    -0.00003989   -0.00002304   -0.00008456
     atom  178 type  2   force =     0.00000478   -0.00000132    0.00003746
     atom  179 type  2   force =     0.00000028    0.00000002   -0.00009719
     atom  180 type  2   force =    -0.00047935   -0.00027676   -0.00417272
     atom  181 type  1   force =    -0.00000001   -0.00000003    0.00255981
     atom  182 type  1   force =    -0.00000008    0.00000003    0.00001540
     atom  183 type  2   force =    -0.00000003   -0.00000002   -0.00003299
     atom  184 type  2   force =    -0.00000001    0.00000001    0.00017156
     atom  185 type  2   force =    -0.00000001    0.00000000    0.00441521
     atom  186 type  2   force =    -0.00000008    0.00000007    0.00009789
     atom  187 type  1   force =    -0.00000101    0.00000409   -0.00000788
     atom  188 type  1   force =    -0.00013235   -0.00015106   -0.00240010
     atom  189 type  2   force =    -0.00000791   -0.00000219   -0.00014854
     atom  190 type  2   force =     0.00000126    0.00000479    0.00003745
     atom  191 type  2   force =     0.00000013    0.00000024   -0.00009719
     atom  192 type  2   force =    -0.00010052   -0.00028909   -0.00430995
     atom  193 type  3   force =     0.00000000   -0.00000002   -0.00627716

     Total force =     0.012521     Total SCF correction =     0.002529
     SCF correction compared to forces is large: reduce conv_thr to get better values

     Writing all to output data dir ./outdir/pwscf.save/
 
     init_run     :    188.98s CPU    192.40s WALL (       1 calls)
     electrons    :  22141.75s CPU  22319.89s WALL (       1 calls)
     forces       :    119.63s CPU    122.48s WALL (       1 calls)
     force_dftd3  :      0.77s CPU      0.81s WALL (       1 calls)

     Called by init_run:
     wfcinit      :    164.06s CPU    166.07s WALL (       1 calls)
     potinit      :      2.24s CPU      2.30s WALL (       1 calls)
     hinit0       :     15.81s CPU     15.85s WALL (       1 calls)

     Called by electrons:
     c_bands      :  20500.43s CPU  20608.74s WALL (      24 calls)
     sum_band     :   1543.93s CPU   1583.39s WALL (      24 calls)
     v_of_rho     :     11.76s CPU     11.93s WALL (      24 calls)
     newd         :     63.90s CPU     95.02s WALL (      24 calls)
     PAW_pot      :     15.90s CPU     15.90s WALL (      24 calls)
     mix_rho      :      3.36s CPU      3.36s WALL (      24 calls)
     energy_dftd3 :      0.36s CPU      0.36s WALL (       1 calls)

     Called by c_bands:
     init_us_2    :     56.15s CPU     56.42s WALL (     200 calls)
     init_us_2:cp :     56.15s CPU     56.42s WALL (     200 calls)
     cegterg      :  20298.94s CPU  20403.90s WALL (     112 calls)

     Called by *egterg:
     cdiaghg      :   1124.94s CPU   1128.49s WALL (    1602 calls)
     h_psi        :  10581.02s CPU  10615.10s WALL (    1610 calls)
     s_psi        :   2178.94s CPU   2185.87s WALL (    1610 calls)
     g_psi        :     20.66s CPU     20.60s WALL (    1494 calls)

     Called by h_psi:
     h_psi:calbec :   2238.86s CPU   2239.09s WALL (    1610 calls)
     vloc_psi     :   6126.34s CPU   6138.99s WALL (    1610 calls)
     add_vuspsi   :   2190.34s CPU   2197.29s WALL (    1610 calls)

     General routines
     calbec       :   2806.26s CPU   2806.61s WALL (    1722 calls)
     fft          :     13.47s CPU     13.64s WALL (     322 calls)
     ffts         :      0.62s CPU      0.63s WALL (      48 calls)
     fftw         :   4804.06s CPU   4815.77s WALL (  934570 calls)
     interpolate  :      1.24s CPU      1.24s WALL (      24 calls)
 
     Parallel routines
 
     PWSCF        :      6h14m CPU      6h18m WALL

 
   This run was terminated on:   1:14:57  17Aug2023            

=------------------------------------------------------------------------------=
   JOB DONE.
=------------------------------------------------------------------------------=
Application 11047259 resources: utime ~809826s, stime ~6773s, Rss ~3488424, inblocks ~0, outblocks ~49567712
