ITEM: TIMESTEP
0
ITEM: NUMBER OF ATOMS
393
ITEM: BOX BOUNDS xy xz yz pp pp ff
-7.3724492699999997e+00 2.4574830899999998e+01 -7.3724492699999997e+00
0.0000000000000000e+00 2.0701456793999998e+01 0.0000000000000000e+00
0.0000000000000000e+00 3.6159325252999999e+01 0.0000000000000000e+00
ITEM: ATOMS id type element x y z ix iy iz
1 6 Si 0.00622726 5.39871 5.84924 0 0 0
2 6 Si 1.38346 1.27811 6.48741 0 0 0
3 6 Si 3.89733 2.51221 5 0 0 0
4 5 O 0.858352 4.68694 7.13486 0 0 0
5 5 O -1.14378 6.50859 6.46205 0 0 0
6 5 O 2.94457 1.78139 6.226 0 0 0
7 5 O -0.952567 4.11933 5.15665 0 0 0
8 5 O 0.442021 1.86105 5.21008 0 0 0
9 5 O 0.870684 1.7965 7.98348 0 0 0
10 6 Si 0.108347 1.0673 9.29214 0 0 0
11 6 Si -0.932944 3.88682 9.96119 0 0 0
12 6 Si 1.53387 5.10158 8.5903 0 0 0
13 5 O 1.25995 0.548871 10.3652 0 0 0
14 5 O 4.0475 2.23179 9.99057 0 0 0
15 5 O 0.616427 4.50304 9.86346 0 0 0
16 5 O 1.55993 6.7512 8.75528 0 0 0
17 5 O 3.0434 4.40433 8.67773 0 0 0
18 5 O 3.39493 4.54421 11.3942 0 0 0
20 6 Si -1.07443 8.17899 6.48741 0 0 0
21 6 Si 1.43985 9.41269 5 0 0 0
24 5 O 0.48677 8.68222 6.22631 0 0 0
26 5 O -2.01546 8.76153 5.21008 0 0 0
27 5 O -1.58752 8.69681 7.98347 0 0 0
28 6 Si -2.34944 7.96739 9.29251 0 0 0
31 5 O -1.19709 7.44814 10.364 0 0 0
32 5 O 1.58973 9.13228 9.98983 0 0 0
55 6 Si 4.92164 5.3998 5.84881 0 0 0
56 6 Si 6.29867 1.27862 6.48761 0 0 0
57 6 Si 8.8123 2.51221 5 0 0 0
58 5 O 5.77436 4.68857 7.13341 0 0 0
59 5 O 3.77178 6.50872 6.46115 0 0 0
60 5 O 7.85968 1.78234 6.2264 0 0 0
61 5 O 3.9624 4.11933 5.15665 0 0 0
62 5 O 5.35699 1.86105 5.21008 0 0 0
63 5 O 5.78483 1.79682 7.98346 0 0 0
64 6 Si 5.02283 1.06715 9.29213 0 0 0
65 6 Si 3.98204 3.88696 9.96118 0 0 0
66 6 Si 6.44906 5.10138 8.58986 0 0 0
67 5 O 6.17476 0.548476 10.3642 0 0 0
68 5 O 8.9627 2.23168 9.98953 0 0 0
69 5 O 5.53151 4.50162 9.86252 0 0 0
70 5 O 6.4755 6.75064 8.75727 0 0 0
71 5 O 7.95899 4.40475 8.67802 0 0 0
72 5 O 8.30915 4.54312 11.3937 0 0 0
74 6 Si 3.84116 8.17897 6.4874 0 0 0
75 6 Si 6.35482 9.41269 5 0 0 0
78 5 O 5.40192 8.68265 6.2263 0 0 0
80 5 O 2.8995 8.76153 5.21008 0 0 0
81 5 O 3.32757 8.69718 7.98326 0 0 0
82 6 Si 2.56495 7.96765 9.29157 0 0 0
85 5 O 3.71742 7.44801 10.3633 0 0 0
86 5 O 6.5055 9.13243 9.98953 0 0 0
109 6 Si 9.8366 5.39916 5.84913 0 0 0
110 6 Si 11.2129 1.27822 6.48797 0 0 0
113 5 O 8.68707 6.50833 6.46242 0 0 0
115 5 O 8.87737 4.11933 5.15665 0 0 0
116 5 O 10.272 1.86105 5.21008 0 0 0
117 5 O 10.6991 1.7961 7.98356 0 0 0
118 6 Si 9.93775 1.06695 9.29289 0 0 0
119 6 Si 8.8973 3.88685 9.96147 0 0 0
121 5 O 11.0905 0.548691 10.3647 0 0 0
123 5 O 10.4464 4.50259 9.86373 0 0 0
128 6 Si 8.75579 8.17886 6.48773 0 0 0
134 5 O 7.81447 8.76153 5.21008 0 0 0
135 5 O 8.24249 8.69677 7.98368 0 0 0
136 6 Si 7.48025 7.96744 9.29255 0 0 0
139 5 O 8.63292 7.44897 10.3645 0 0 0
234 5 O -1.52147 4.54409 11.3937 1 0 0
272 2 H 2.46779 4.31228 11.5991 0 0 0
273 2 H -1.36069 6.63353 10.8837 0 0 0
278 2 H 7.38169 4.31262 11.5974 0 0 0
279 2 H 3.55329 6.63381 10.8841 0 0 0
285 2 H 8.47008 6.63393 10.8828 0 0 0
316 1 C 0.514238 9.08974 16.3336 0 0 0
317 1 C 1.92191 9.00497 15.6912 0 0 0
318 1 C 1.93514 9.66557 14.2919 0 0 0
319 1 C 2.46536 7.55528 15.6358 0 0 0
320 1 C 3.13108 9.61642 17.7785 0 0 0
355 2 H 0.178964 10.152 16.3984 0 0 0
356 2 H -0.218298 8.53383 15.7015 0 0 0
357 2 H 0.51532 8.65247 17.355 0 0 0
358 2 H 1.25237 9.11962 13.5998 0 0 0
359 2 H 2.96237 9.65285 13.8604 0 0 0
361 2 H 2.4632 7.08932 16.6457 0 0 0
362 2 H 1.83274 6.93799 14.9549 0 0 0
363 2 H 3.50818 7.54983 15.2394 0 0 0
388 5 O 2.89562 9.8683 16.4483 0 0 0
321 1 C 4.71685 10.2855 19.6163 0 0 0
330 1 C 6.25594 10.2788 19.5285 0 0 0
365 2 H 4.40264 9.25843 19.9377 0 0 0
379 3 Mg 8.59713 10.249 19.4012 0 0 0
389 5 O 2.57878 8.76884 18.4855 0 0 0
390 5 O 2.37278 10.1785 21.8125 0 0 0
393 5 O 6.83742 10.1863 18.3729 0 0 0
19 6 Si -2.45133 12.2998 5.84837 0 0 0
22 5 O -1.59813 11.5887 7.13367 0 0 0
23 5 O -3.60089 13.4094 6.46218 0 0 0
25 5 O -3.41005 11.0198 5.15665 0 0 0
29 6 Si -3.38971 10.7876 9.96123 0 0 0
30 6 Si -0.92316 12.0018 8.59021 0 0 0
33 5 O -1.84036 11.4025 9.86277 0 0 0
34 5 O -0.897893 13.6514 8.7566 0 0 0
35 5 O 0.586401 11.3048 8.67714 0 0 0
36 5 O 0.938456 11.4444 11.3935 0 0 0
37 6 Si -4.90833 19.2005 5.84786 0 0 0
38 6 Si -3.53169 15.0798 6.48776 0 0 0
39 6 Si -1.01763 16.3132 5 0 0 0
40 5 O -4.05457 18.4899 7.13316 0 0 0
41 5 O -6.05829 20.3093 6.46125 0 0 0
42 5 O -1.97072 15.5828 6.22614 0 0 0
43 5 O -5.86753 17.9203 5.15665 0 0 0
44 5 O -4.47294 15.662 5.21008 0 0 0
45 5 O -4.04527 15.5976 7.98349 0 0 0
46 6 Si -4.80722 14.8679 9.29252 0 0 0
47 6 Si -5.84679 17.6884 9.96068 0 0 0
48 6 Si -3.38015 18.9025 8.58982 0 0 0
49 5 O -3.65443 14.349 10.364 0 0 0
50 5 O -0.867282 16.0326 9.99043 0 0 0
51 5 O -4.29754 18.3025 9.86237 0 0 0
52 5 O -3.35408 20.5521 8.75656 0 0 0
53 5 O -1.8709 18.2053 8.67713 0 0 0
54 5 O -1.51777 18.3454 11.3935 0 0 0
73 6 Si 2.46397 12.3001 5.84797 0 0 0
76 5 O 3.31828 11.5895 7.13296 0 0 0
77 5 O 1.31394 13.4094 6.46173 0 0 0
79 5 O 1.50492 11.0198 5.15665 0 0 0
83 6 Si 1.52498 10.7875 9.96049 0 0 0
84 6 Si 3.99234 12.0015 8.59018 0 0 0
87 5 O 3.07454 11.401 9.86173 0 0 0
88 5 O 4.01872 13.651 8.75862 0 0 0
89 5 O 5.50193 11.3048 8.67728 0 0 0
90 5 O 5.85433 11.4445 11.3934 0 0 0
91 6 Si 0.00694918 19.201 5.84707 0 0 0
92 6 Si 1.38342 15.0795 6.48729 0 0 0
93 6 Si 3.89733 16.3132 5 0 0 0
94 5 O 0.861677 18.4905 7.1319 0 0 0
95 5 O -1.14296 20.3094 6.46134 0 0 0
96 5 O 2.94449 15.5833 6.22677 0 0 0
97 5 O -0.952567 17.9203 5.15665 0 0 0
98 5 O 0.442021 15.662 5.21008 0 0 0
99 5 O 0.87001 15.5973 7.98323 0 0 0
100 6 Si 0.107459 14.868 9.29174 0 0 0
101 6 Si -0.932015 17.6877 9.96069 0 0 0
102 6 Si 1.53526 18.902 8.58949 0 0 0
103 5 O 1.26076 14.3485 10.3627 0 0 0
104 5 O 4.04813 16.0326 9.98984 0 0 0
105 5 O 0.61733 18.3012 9.86141 0 0 0
106 5 O 1.561 20.5513 8.75865 0 0 0
107 5 O 3.04481 18.2049 8.67733 0 0 0
108 5 O 3.39513 18.3445 11.3938 0 0 0
127 6 Si 7.37866 12.3006 5.84735 0 0 0
131 5 O 6.22896 13.4093 6.46112 0 0 0
133 5 O 6.41988 11.0198 5.15665 0 0 0
137 6 Si 6.44089 10.7875 9.96079 0 0 0
141 5 O 7.98945 11.4025 9.86156 0 0 0
145 6 Si 4.92133 19.2002 5.84878 0 0 0
146 6 Si 6.29826 15.0794 6.48799 0 0 0
149 5 O 3.77141 20.3095 6.46133 0 0 0
151 5 O 3.9624 17.9203 5.15665 0 0 0
152 5 O 5.35699 15.662 5.21008 0 0 0
153 5 O 5.78455 15.5969 7.98355 0 0 0
154 6 Si 5.02347 14.8677 9.29329 0 0 0
155 6 Si 3.9831 17.6875 9.96117 0 0 0
157 5 O 6.17591 14.35 10.3651 0 0 0
159 5 O 5.53201 18.3032 9.8634 0 0 0
252 5 O -3.97757 11.444 11.394 1 0 0
270 5 O -6.4338 18.3453 11.3933 1 0 0
271 2 H -6.27489 20.4349 10.8827 0 -1 0
274 2 H 0.0114738 11.2129 11.599 0 0 0
275 2 H -3.81741 13.5343 10.8835 0 0 0
276 2 H -2.4443 18.1136 11.5997 0 0 0
277 2 H -1.36002 20.4349 10.8831 0 -1 0
280 2 H 4.92726 11.2135 11.5985 0 0 0
281 2 H 1.09721 13.535 10.8835 0 0 0
282 2 H 2.46833 18.1128 11.5982 0 0 0
283 2 H 3.55569 20.4351 10.8827 0 -1 0
287 2 H 6.01437 13.5335 10.8827 0 0 0
360 2 H 1.59915 10.7259 14.3592 0 0 0
364 2 H 4.77557 10.8856 17.533 0 0 0
322 1 C 4.24091 11.3044 20.7007 0 0 0
323 1 C 2.76751 11.0754 21.0728 0 0 0
324 1 C 0.497038 11.868 20.7195 0 0 0
325 1 C 0.140629 12.7467 21.9393 0 0 0
326 1 C 0.502416 14.2536 21.7164 0 0 0
327 1 C 0.426208 14.6821 20.2127 0 0 0
328 1 C -0.620383 13.8386 19.4376 0 0 0
329 1 C -0.228561 12.3267 19.4226 0 0 0
366 2 H 4.85152 11.1435 21.6167 0 0 0
367 2 H 4.39081 12.3436 20.3296 0 0 0
368 2 H 0.313976 10.7924 20.9386 0 0 0
369 2 H 0.643545 12.3422 22.8487 0 0 0
370 2 H -0.957853 12.6338 22.1161 0 0 0
371 2 H 1.52835 14.4557 22.1066 0 0 0
372 2 H -0.191644 14.8806 22.3281 0 0 0
373 2 H 1.425 14.5388 19.7332 0 0 0
374 2 H 0.18692 15.7697 20.1362 0 0 0
375 2 H -1.62291 13.9674 19.9184 0 0 0
376 2 H -0.730168 14.209 18.3901 0 0 0
377 2 H 0.449087 12.1051 18.5632 0 0 0
378 2 H -1.13936 11.6964 19.2807 0 0 0
381 4 N 4.11024 10.5498 18.2603 0 0 0
391 5 O 1.96026 12.0009 20.4575 0 0 0
392 5 O 6.96408 10.3626 20.6112 0 0 0
111 6 Si 13.7273 2.51221 5 0 0 0
112 5 O 10.6894 4.68788 7.13438 0 0 0
114 5 O 12.7743 1.78154 6.22629 0 0 0
120 6 Si 11.3641 5.10176 8.59055 0 0 0
122 5 O 13.8776 2.23195 9.99051 0 0 0
124 5 O 11.3905 6.7513 8.7556 0 0 0
125 5 O 12.8743 4.40484 8.67788 0 0 0
126 5 O 13.2237 4.54352 11.3941 0 0 0
129 6 Si 11.2698 9.41269 5 0 0 0
132 5 O 10.317 8.68229 6.2264 0 0 0
140 5 O 11.4201 9.13291 9.98979 0 0 0
163 6 Si 14.7513 5.39871 5.84878 0 0 0
164 6 Si 16.1283 1.27851 6.48752 0 0 0
165 6 Si 18.6422 2.51221 5 0 0 0
166 5 O 15.6031 4.68765 7.13501 0 0 0
167 5 O 13.601 6.5086 6.46098 0 0 0
168 5 O 17.6894 1.78187 6.22632 0 0 0
169 5 O 13.7923 4.11933 5.15665 0 0 0
170 5 O 15.1869 1.86105 5.21008 0 0 0
171 5 O 15.6147 1.79635 7.98323 0 0 0
172 6 Si 14.8525 1.06698 9.29196 0 0 0
173 6 Si 13.8123 3.88715 9.96143 0 0 0
174 6 Si 16.2787 5.10172 8.59072 0 0 0
175 5 O 16.0051 0.546953 10.363 0 0 0
176 5 O 18.7929 2.2321 9.98969 0 0 0
177 5 O 15.3614 4.50234 9.86343 0 0 0
178 5 O 16.3038 6.75143 8.75585 0 0 0
179 5 O 17.7884 4.40497 8.67838 0 0 0
180 5 O 18.1381 4.54373 11.3945 0 0 0
182 6 Si 13.6707 8.17899 6.48732 0 0 0
183 6 Si 16.1847 9.41269 5 0 0 0
186 5 O 15.232 8.68168 6.22531 0 0 0
188 5 O 12.7294 8.76153 5.21008 0 0 0
189 5 O 13.1577 8.69727 7.98351 0 0 0
190 6 Si 12.395 7.96824 9.292 0 0 0
193 5 O 13.5469 7.44804 10.3641 0 0 0
194 5 O 16.3348 9.13247 9.99042 0 0 0
217 6 Si 19.6662 5.39926 5.84946 0 0 0
218 6 Si 21.0433 1.27862 6.48757 0 0 0
219 6 Si 23.5572 2.51221 5 0 0 0
220 5 O 20.5182 4.68744 7.13522 0 0 0
221 5 O 18.5169 6.50884 6.46116 0 0 0
222 5 O 22.6045 1.78242 6.22653 0 0 0
223 5 O 18.7073 4.11933 5.15665 0 0 0
224 5 O 20.1019 1.86105 5.21008 0 0 0
225 5 O 20.5296 1.79651 7.98319 0 0 0
226 6 Si 19.7675 1.06698 9.29243 0 0 0
227 6 Si 18.7266 3.88706 9.96154 0 0 0
228 6 Si 21.1938 5.10146 8.59111 0 0 0
229 5 O 20.9204 0.547795 10.3634 0 0 0
230 5 O 23.7073 2.2319 9.98954 0 0 0
231 5 O 20.276 4.50181 9.86319 0 0 0
232 5 O 21.22 6.75119 8.7573 0 0 0
233 5 O 22.7035 4.40464 8.67757 0 0 0
236 6 Si 18.5857 8.17881 6.48717 0 0 0
237 6 Si 21.0997 9.41269 5 0 0 0
240 5 O 20.1467 8.68252 6.22655 0 0 0
242 5 O 17.6444 8.76153 5.21008 0 0 0
243 5 O 18.0724 8.69715 7.98349 0 0 0
244 6 Si 17.3099 7.96747 9.29208 0 0 0
247 5 O 18.4629 7.44684 10.3624 0 0 0
248 5 O 21.2502 9.13225 9.99037 0 0 0
284 2 H 12.2964 4.31179 11.598 0 0 0
290 2 H 17.2106 4.31282 11.5976 0 0 0
291 2 H 13.3826 6.63406 10.8841 0 0 0
296 2 H 22.1257 4.31306 11.597 0 0 0
297 2 H 18.297 6.63391 10.8851 0 0 0
337 2 H 14.4323 5.93141 17.8169 0 0 0
301 1 C 16.4853 6.53316 19.6393 0 0 0
302 1 C 15.0536 6.01818 19.9336 0 0 0
303 1 C 15.0314 5.1319 21.202 0 0 0
304 1 C 14.423 5.28595 18.7227 0 0 0
305 1 C 13.9562 8.20281 19.4691 0 0 0
306 1 C 12.4778 10.222 19.1915 0 0 0
315 1 C 10.9389 10.2345 19.2827 0 0 0
331 2 H 16.8854 7.09435 20.5168 0 0 0
332 2 H 17.161 5.66644 19.4457 0 0 0
333 2 H 16.4935 7.20284 18.7528 0 0 0
334 2 H 15.6559 4.22109 21.0486 0 0 0
335 2 H 13.9909 4.81271 21.4408 0 0 0
336 2 H 15.4322 5.69426 22.0764 0 0 0
338 2 H 14.9937 4.3526 18.5036 0 0 0
339 2 H 13.3686 5.00173 18.951 0 0 0
340 2 H 12.3828 8.71532 20.7487 0 0 0
341 2 H 12.7411 9.97428 18.1303 0 0 0
353 2 H 16.8075 9.95326 21.1447 0 0 0
354 2 H 18.3926 10.2787 20.3789 0 0 0
380 4 N 13.0517 9.14041 20.0732 0 0 0
382 5 O 14.16 7.15957 20.3401 0 0 0
383 5 O 14.481 8.364 18.3638 0 0 0
387 5 O 10.3133 9.22119 19.7965 0 0 0
130 5 O 8.23309 11.5899 7.13242 0 0 0
138 6 Si 8.90744 12.0025 8.58903 0 0 0
142 5 O 8.9328 13.6522 8.75521 0 0 0
143 5 O 10.4162 11.3045 8.67659 0 0 0
144 5 O 10.7665 11.4443 11.393 0 0 0
147 6 Si 8.8123 16.3132 5 0 0 0
148 5 O 5.77541 18.4897 7.13395 0 0 0
150 5 O 7.85932 15.583 6.22657 0 0 0
156 6 Si 6.44903 18.9028 8.59048 0 0 0
158 5 O 8.96263 16.0332 9.98989 0 0 0
160 5 O 6.47435 20.5524 8.75618 0 0 0
161 5 O 7.95902 18.206 8.67795 0 0 0
162 5 O 8.31045 18.3449 11.3943 0 0 0
181 6 Si 12.2938 12.3002 5.84841 0 0 0
184 5 O 13.1463 11.5899 7.13412 0 0 0
185 5 O 11.1436 13.4094 6.46197 0 0 0
187 5 O 11.3348 11.0198 5.15665 0 0 0
191 6 Si 11.3547 10.7881 9.96091 0 0 0
192 6 Si 13.822 12.0022 8.59018 0 0 0
195 5 O 12.9038 11.4033 9.86272 0 0 0
196 5 O 13.8482 13.6516 8.75608 0 0 0
197 5 O 15.3314 11.3051 8.6782 0 0 0
198 5 O 15.6835 11.4448 11.3934 0 0 0
199 6 Si 9.83637 19.2007 5.84833 0 0 0
200 6 Si 11.2136 15.0796 6.48748 0 0 0
201 6 Si 13.7273 16.3132 5 0 0 0
202 5 O 10.6895 18.4902 7.13352 0 0 0
203 5 O 8.68599 20.3099 6.46143 0 0 0
204 5 O 12.7745 15.583 6.22641 0 0 0
205 5 O 8.87737 17.9203 5.15665 0 0 0
206 5 O 10.272 15.662 5.21008 0 0 0
207 5 O 10.7003 15.5978 7.98372 0 0 0
208 6 Si 9.93785 14.8685 9.29191 0 0 0
209 6 Si 8.89786 17.6885 9.96108 0 0 0
210 6 Si 11.3645 18.903 8.58998 0 0 0
211 5 O 11.0901 14.3487 10.3631 0 0 0
212 5 O 13.878 16.0331 9.99044 0 0 0
213 5 O 10.4472 18.3025 9.86215 0 0 0
214 5 O 11.3902 20.5523 8.75723 0 0 0
215 5 O 12.8737 18.2054 8.67801 0 0 0
216 5 O 13.2253 18.3447 11.3938 0 0 0
235 6 Si 17.2095 12.3004 5.84793 0 0 0
238 5 O 18.0625 11.5898 7.13367 0 0 0
239 5 O 16.0589 13.4092 6.46124 0 0 0
241 5 O 16.2498 11.0198 5.15665 0 0 0
245 6 Si 16.2705 10.788 9.96085 0 0 0
246 6 Si 18.7373 12.002 8.58975 0 0 0
249 5 O 17.8196 11.4025 9.86237 0 0 0
250 5 O 18.7626 13.6513 8.75785 0 0 0
251 5 O 20.2468 11.3051 8.67771 0 0 0
253 6 Si 14.7516 19.2008 5.84829 0 0 0
254 6 Si 16.1281 15.0794 6.48753 0 0 0
255 6 Si 18.6422 16.3132 5 0 0 0
256 5 O 15.605 18.4901 7.13321 0 0 0
257 5 O 13.6019 20.3097 6.46192 0 0 0
258 5 O 17.6894 15.583 6.22632 0 0 0
259 5 O 13.7923 17.9203 5.15665 0 0 0
260 5 O 15.1869 15.662 5.21008 0 0 0
261 5 O 15.6151 15.5977 7.98368 0 0 0
262 6 Si 14.8528 14.8684 9.29201 0 0 0
263 6 Si 13.813 17.6881 9.96124 0 0 0
264 6 Si 16.2796 18.9027 8.5899 0 0 0
265 5 O 16.0051 14.349 10.364 0 0 0
266 5 O 18.7928 16.0329 9.99024 0 0 0
267 5 O 15.3621 18.3026 9.86264 0 0 0
268 5 O 16.3063 20.5519 8.75693 0 0 0
269 5 O 17.7892 18.2055 8.67726 0 0 0
286 2 H 9.839 11.2135 11.5963 0 0 0
288 2 H 7.38359 18.1126 11.5994 0 0 0
289 2 H 8.46807 20.4346 10.8842 0 -1 0
292 2 H 14.7563 11.2125 11.599 0 0 0
293 2 H 10.9263 13.5347 10.8841 0 0 0
294 2 H 12.2984 18.1132 11.5988 0 0 0
295 2 H 13.3846 20.4348 10.883 0 -1 0
298 2 H 19.6702 11.2122 11.5984 0 0 0
299 2 H 15.8415 13.5348 10.8833 0 0 0
300 2 H 17.2136 18.1138 11.5978 0 0 0
384 5 O 14.886 11.9338 17.9268 0 0 0
307 1 C 13.051 11.6377 19.5201 0 0 0
308 1 C 14.5201 11.7592 19.0857 0 0 0
309 1 C 16.8202 11.709 19.8699 0 0 0
310 1 C 17.2705 13.1799 20.0137 0 0 0
311 1 C 16.9918 13.7531 21.4437 0 0 0
312 1 C 17.0413 12.6562 22.5596 0 0 0
313 1 C 18.0082 11.5046 22.1768 0 0 0
314 1 C 17.5265 10.7677 20.8866 0 0 0
342 2 H 12.464 12.3889 18.9468 0 0 0
343 2 H 12.9506 11.8384 20.6108 0 0 0
344 2 H 16.9462 11.3565 18.8218 0 0 0
345 2 H 16.7761 13.7987 19.2286 0 0 0
346 2 H 18.3658 13.2119 19.79 0 0 0
347 2 H 15.9939 14.2526 21.4608 0 0 0
348 2 H 17.7428 14.552 21.6597 0 0 0
349 2 H 16.0197 12.2292 22.7081 0 0 0
350 2 H 17.3423 13.1131 23.5326 0 0 0
351 2 H 19.0327 11.9255 22.015 0 0 0
352 2 H 18.1035 10.7727 23.0144 0 0 0
385 5 O 15.3593 11.6348 20.1659 0 0 0
386 5 O 10.275 11.2571 18.8421 0 0 0
ITEM: TIMESTEP
100000
ITEM: NUMBER OF ATOMS
393
ITEM: BOX BOUNDS xy xz yz pp pp ff
-7.3724492699999997e+00 2.4574830899999998e+01 -7.3724492699999997e+00
0.0000000000000000e+00 2.0701456793999998e+01 0.0000000000000000e+00
0.0000000000000000e+00 3.6159325252999999e+01 0.0000000000000000e+00
ITEM: ATOMS id type element x y z ix iy iz
1 6 Si 0.00622726 5.39871 5.84924 0 0 0
2 6 Si 1.38346 1.27811 6.48741 0 0 0
3 6 Si 3.89733 2.51221 5 0 0 0
4 5 O 0.858352 4.68694 7.13486 0 0 0
5 5 O -1.14378 6.50859 6.46205 0 0 0
6 5 O 2.94457 1.78139 6.226 0 0 0
7 5 O -0.952567 4.11933 5.15665 0 0 0
8 5 O 0.442021 1.86105 5.21008 0 0 0
9 5 O 0.870684 1.7965 7.98348 0 0 0
10 6 Si 0.108347 1.0673 9.29214 0 0 0
11 6 Si -0.932944 3.88682 9.96119 0 0 0
12 6 Si 1.53387 5.10158 8.5903 0 0 0
13 5 O 1.25995 0.548871 10.3652 0 0 0
14 5 O 4.0475 2.23179 9.99057 0 0 0
15 5 O 0.616427 4.50304 9.86346 0 0 0
16 5 O 1.55993 6.7512 8.75528 0 0 0
17 5 O 3.0434 4.40433 8.67773 0 0 0
18 5 O 3.39493 4.54421 11.3942 0 0 0
20 6 Si -1.07443 8.17899 6.48741 0 0 0
21 6 Si 1.43985 9.41269 5 0 0 0
24 5 O 0.48677 8.68222 6.22631 0 0 0
26 5 O -2.01546 8.76153 5.21008 0 0 0
27 5 O -1.58752 8.69681 7.98347 0 0 0
28 6 Si -2.34944 7.96739 9.29251 0 0 0
31 5 O -1.19709 7.44814 10.364 0 0 0
32 5 O 1.58973 9.13228 9.98983 0 0 0
55 6 Si 4.92164 5.3998 5.84881 0 0 0
56 6 Si 6.29867 1.27862 6.48761 0 0 0
57 6 Si 8.8123 2.51221 5 0 0 0
58 5 O 5.77436 4.68857 7.13341 0 0 0
59 5 O 3.77178 6.50872 6.46115 0 0 0
60 5 O 7.85968 1.78234 6.2264 0 0 0
61 5 O 3.9624 4.11933 5.15665 0 0 0
62 5 O 5.35699 1.86105 5.21008 0 0 0
63 5 O 5.78483 1.79682 7.98346 0 0 0
64 6 Si 5.02283 1.06715 9.29213 0 0 0
65 6 Si 3.98204 3.88696 9.96118 0 0 0
66 6 Si 6.44906 5.10138 8.58986 0 0 0
67 5 O 6.17476 0.548476 10.3642 0 0 0
68 5 O 8.9627 2.23168 9.98953 0 0 0
69 5 O 5.53151 4.50162 9.86252 0 0 0
70 5 O 6.4755 6.75064 8.75727 0 0 0
71 5 O 7.95899 4.40475 8.67802 0 0 0
72 5 O 8.30915 4.54312 11.3937 0 0 0
74 6 Si 3.84116 8.17897 6.4874 0 0 0
75 6 Si 6.35482 9.41269 5 0 0 0
78 5 O 5.40192 8.68265 6.2263 0 0 0
80 5 O 2.8995 8.76153 5.21008 0 0 0
81 5 O 3.32757 8.69718 7.98326 0 0 0
82 6 Si 2.56495 7.96765 9.29157 0 0 0
85 5 O 3.71742 7.44801 10.3633 0 0 0
86 5 O 6.5055 9.13243 9.98953 0 0 0
109 6 Si 9.8366 5.39916 5.84913 0 0 0
110 6 Si 11.2129 1.27822 6.48797 0 0 0
113 5 O 8.68707 6.50833 6.46242 0 0 0
115 5 O 8.87737 4.11933 5.15665 0 0 0
116 5 O 10.272 1.86105 5.21008 0 0 0
117 5 O 10.6991 1.7961 7.98356 0 0 0
118 6 Si 9.93775 1.06695 9.29289 0 0 0
119 6 Si 8.8973 3.88685 9.96147 0 0 0
121 5 O 11.0905 0.548691 10.3647 0 0 0
123 5 O 10.4464 4.50259 9.86373 0 0 0
128 6 Si 8.75579 8.17886 6.48773 0 0 0
134 5 O 7.81447 8.76153 5.21008 0 0 0
135 5 O 8.24249 8.69677 7.98368 0 0 0
136 6 Si 7.48025 7.96744 9.29255 0 0 0
139 5 O 8.63292 7.44897 10.3645 0 0 0
234 5 O -1.52147 4.54409 11.3937 1 0 0
272 2 H 2.46779 4.31228 11.5991 0 0 0
273 2 H -1.36069 6.63353 10.8837 0 0 0
278 2 H 7.38169 4.31262 11.5974 0 0 0
279 2 H 3.55329 6.63381 10.8841 0 0 0
285 2 H 8.47008 6.63393 10.8828 0 0 0
316 1 C 0.18216 6.64225 15.512 0 0 0
317 1 C 1.3391 6.83498 14.4993 0 0 0
318 1 C 0.800419 7.27561 13.1171 0 0 0
319 1 C 2.24133 5.58133 14.3795 0 0 0
320 1 C 2.81905 8.02143 16.1101 0 0 0
355 2 H -0.414658 7.58043 15.6048 0 0 0
356 2 H -0.497839 5.83398 15.1521 0 0 0
357 2 H 0.572381 6.36632 16.515 0 0 0
358 2 H 0.147986 6.48138 12.685 0 0 0
359 2 H 1.64023 7.46842 12.4106 0 0 0
361 2 H 2.63384 5.27556 15.3743 0 0 0
362 2 H 1.6585 4.73338 13.9481 0 0 0
363 2 H 3.10252 5.78999 13.7016 0 0 0
388 5 O 2.18584 8.01672 14.8905 0 0 0
393 5 O 6.22889 9.60469 15.5798 0 0 0
389 5 O 2.73498 7.1668 16.9966 0 0 0
381 4 N 3.5796 9.23333 16.2323 0 0 0
360 2 H 0.204148 8.21208 13.2126 0 0 0
364 2 H 3.90926 9.62493 15.3254 0 0 0
330 1 C 5.96461 9.70379 16.8457 0 0 0
321 1 C 4.56545 9.3254 17.3708 0 0 0
365 2 H 4.65278 8.30702 17.8314 0 0 0
392 5 O 6.87377 10.1169 17.6724 0 0 0
377 2 H -0.165262 9.81822 17.4767 0 0 0
379 3 Mg 8.10018 10.2614 16.0541 0 0 0
368 2 H 0.70003 8.85828 19.8671 0 0 0
324 1 C 0.504204 9.90353 19.5389 0 0 0
329 1 C -0.631784 9.97476 18.4791 0 0 0
378 2 H -1.32822 9.11749 18.6435 0 0 0
390 5 O 3.00113 8.92371 20.1495 0 0 0
323 1 C 2.91723 9.78031 19.2739 0 0 0
391 5 O 1.74838 10.3715 18.8604 0 0 0
322 1 C 4.11483 10.3275 18.4814 0 0 0
19 6 Si -2.45133 12.2998 5.84837 0 0 0
22 5 O -1.59813 11.5887 7.13367 0 0 0
23 5 O -3.60089 13.4094 6.46218 0 0 0
25 5 O -3.41005 11.0198 5.15665 0 0 0
29 6 Si -3.38971 10.7876 9.96123 0 0 0
30 6 Si -0.92316 12.0018 8.59021 0 0 0
33 5 O -1.84036 11.4025 9.86277 0 0 0
34 5 O -0.897893 13.6514 8.7566 0 0 0
35 5 O 0.586401 11.3048 8.67714 0 0 0
36 5 O 0.938456 11.4444 11.3935 0 0 0
37 6 Si -4.90833 19.2005 5.84786 0 0 0
38 6 Si -3.53169 15.0798 6.48776 0 0 0
39 6 Si -1.01763 16.3132 5 0 0 0
40 5 O -4.05457 18.4899 7.13316 0 0 0
41 5 O -6.05829 20.3093 6.46125 0 0 0
42 5 O -1.97072 15.5828 6.22614 0 0 0
43 5 O -5.86753 17.9203 5.15665 0 0 0
44 5 O -4.47294 15.662 5.21008 0 0 0
45 5 O -4.04527 15.5976 7.98349 0 0 0
46 6 Si -4.80722 14.8679 9.29252 0 0 0
47 6 Si -5.84679 17.6884 9.96068 0 0 0
48 6 Si -3.38015 18.9025 8.58982 0 0 0
49 5 O -3.65443 14.349 10.364 0 0 0
50 5 O -0.867282 16.0326 9.99043 0 0 0
51 5 O -4.29754 18.3025 9.86237 0 0 0
52 5 O -3.35408 20.5521 8.75656 0 0 0
53 5 O -1.8709 18.2053 8.67713 0 0 0
54 5 O -1.51777 18.3454 11.3935 0 0 0
73 6 Si 2.46397 12.3001 5.84797 0 0 0
76 5 O 3.31828 11.5895 7.13296 0 0 0
77 5 O 1.31394 13.4094 6.46173 0 0 0
79 5 O 1.50492 11.0198 5.15665 0 0 0
83 6 Si 1.52498 10.7875 9.96049 0 0 0
84 6 Si 3.99234 12.0015 8.59018 0 0 0
87 5 O 3.07454 11.401 9.86173 0 0 0
88 5 O 4.01872 13.651 8.75862 0 0 0
89 5 O 5.50193 11.3048 8.67728 0 0 0
90 5 O 5.85433 11.4445 11.3934 0 0 0
91 6 Si 0.00694918 19.201 5.84707 0 0 0
92 6 Si 1.38342 15.0795 6.48729 0 0 0
93 6 Si 3.89733 16.3132 5 0 0 0
94 5 O 0.861677 18.4905 7.1319 0 0 0
95 5 O -1.14296 20.3094 6.46134 0 0 0
96 5 O 2.94449 15.5833 6.22677 0 0 0
97 5 O -0.952567 17.9203 5.15665 0 0 0
98 5 O 0.442021 15.662 5.21008 0 0 0
99 5 O 0.87001 15.5973 7.98323 0 0 0
100 6 Si 0.107459 14.868 9.29174 0 0 0
101 6 Si -0.932015 17.6877 9.96069 0 0 0
102 6 Si 1.53526 18.902 8.58949 0 0 0
103 5 O 1.26076 14.3485 10.3627 0 0 0
104 5 O 4.04813 16.0326 9.98984 0 0 0
105 5 O 0.61733 18.3012 9.86141 0 0 0
106 5 O 1.561 20.5513 8.75865 0 0 0
107 5 O 3.04481 18.2049 8.67733 0 0 0
108 5 O 3.39513 18.3445 11.3938 0 0 0
127 6 Si 7.37866 12.3006 5.84735 0 0 0
131 5 O 6.22896 13.4093 6.46112 0 0 0
133 5 O 6.41988 11.0198 5.15665 0 0 0
137 6 Si 6.44089 10.7875 9.96079 0 0 0
141 5 O 7.98945 11.4025 9.86156 0 0 0
145 6 Si 4.92133 19.2002 5.84878 0 0 0
146 6 Si 6.29826 15.0794 6.48799 0 0 0
149 5 O 3.77141 20.3095 6.46133 0 0 0
151 5 O 3.9624 17.9203 5.15665 0 0 0
152 5 O 5.35699 15.662 5.21008 0 0 0
153 5 O 5.78455 15.5969 7.98355 0 0 0
154 6 Si 5.02347 14.8677 9.29329 0 0 0
155 6 Si 3.9831 17.6875 9.96117 0 0 0
157 5 O 6.17591 14.35 10.3651 0 0 0
159 5 O 5.53201 18.3032 9.8634 0 0 0
252 5 O -3.97757 11.444 11.394 1 0 0
270 5 O -6.4338 18.3453 11.3933 1 0 0
271 2 H -6.27489 20.4349 10.8827 0 -1 0
274 2 H 0.0114738 11.2129 11.599 0 0 0
275 2 H -3.81741 13.5343 10.8835 0 0 0
276 2 H -2.4443 18.1136 11.5997 0 0 0
277 2 H -1.36002 20.4349 10.8831 0 -1 0
280 2 H 4.92726 11.2135 11.5985 0 0 0
281 2 H 1.09721 13.535 10.8835 0 0 0
282 2 H 2.46833 18.1128 11.5982 0 0 0
283 2 H 3.55569 20.4351 10.8827 0 -1 0
287 2 H 6.01437 13.5335 10.8827 0 0 0
376 2 H -1.90053 11.5017 17.5202 0 0 0
367 2 H 3.85958 11.3082 18.0197 0 0 0
374 2 H -1.05014 13.473 18.8302 0 0 0
373 2 H 0.340485 12.5594 18.1655 0 0 0
372 2 H -0.57819 12.8298 21.089 0 0 0
366 2 H 4.96098 10.4584 19.1917 0 0 0
326 1 C 0.0836285 12.3243 20.3437 0 0 0
327 1 C -0.498075 12.5055 18.9017 0 0 0
328 1 C -1.42244 11.3214 18.5128 0 0 0
375 2 H -2.25996 11.2528 19.2522 0 0 0
371 2 H 1.07309 12.8363 20.4098 0 0 0
369 2 H 1.05392 10.6904 21.5032 0 0 0
325 1 C 0.239029 10.8212 20.7532 0 0 0
370 2 H -0.696406 10.4546 21.2443 0 0 0
111 6 Si 13.7273 2.51221 5 0 0 0
112 5 O 10.6894 4.68788 7.13438 0 0 0
114 5 O 12.7743 1.78154 6.22629 0 0 0
120 6 Si 11.3641 5.10176 8.59055 0 0 0
122 5 O 13.8776 2.23195 9.99051 0 0 0
124 5 O 11.3905 6.7513 8.7556 0 0 0
125 5 O 12.8743 4.40484 8.67788 0 0 0
126 5 O 13.2237 4.54352 11.3941 0 0 0
129 6 Si 11.2698 9.41269 5 0 0 0
132 5 O 10.317 8.68229 6.2264 0 0 0
140 5 O 11.4201 9.13291 9.98979 0 0 0
163 6 Si 14.7513 5.39871 5.84878 0 0 0
164 6 Si 16.1283 1.27851 6.48752 0 0 0
165 6 Si 18.6422 2.51221 5 0 0 0
166 5 O 15.6031 4.68765 7.13501 0 0 0
167 5 O 13.601 6.5086 6.46098 0 0 0
168 5 O 17.6894 1.78187 6.22632 0 0 0
169 5 O 13.7923 4.11933 5.15665 0 0 0
170 5 O 15.1869 1.86105 5.21008 0 0 0
171 5 O 15.6147 1.79635 7.98323 0 0 0
172 6 Si 14.8525 1.06698 9.29196 0 0 0
173 6 Si 13.8123 3.88715 9.96143 0 0 0
174 6 Si 16.2787 5.10172 8.59072 0 0 0
175 5 O 16.0051 0.546953 10.363 0 0 0
176 5 O 18.7929 2.2321 9.98969 0 0 0
177 5 O 15.3614 4.50234 9.86343 0 0 0
178 5 O 16.3038 6.75143 8.75585 0 0 0
179 5 O 17.7884 4.40497 8.67838 0 0 0
180 5 O 18.1381 4.54373 11.3945 0 0 0
182 6 Si 13.6707 8.17899 6.48732 0 0 0
183 6 Si 16.1847 9.41269 5 0 0 0
186 5 O 15.232 8.68168 6.22531 0 0 0
188 5 O 12.7294 8.76153 5.21008 0 0 0
189 5 O 13.1577 8.69727 7.98351 0 0 0
190 6 Si 12.395 7.96824 9.292 0 0 0
193 5 O 13.5469 7.44804 10.3641 0 0 0
194 5 O 16.3348 9.13247 9.99042 0 0 0
217 6 Si 19.6662 5.39926 5.84946 0 0 0
218 6 Si 21.0433 1.27862 6.48757 0 0 0
219 6 Si 23.5572 2.51221 5 0 0 0
220 5 O 20.5182 4.68744 7.13522 0 0 0
221 5 O 18.5169 6.50884 6.46116 0 0 0
222 5 O 22.6045 1.78242 6.22653 0 0 0
223 5 O 18.7073 4.11933 5.15665 0 0 0
224 5 O 20.1019 1.86105 5.21008 0 0 0
225 5 O 20.5296 1.79651 7.98319 0 0 0
226 6 Si 19.7675 1.06698 9.29243 0 0 0
227 6 Si 18.7266 3.88706 9.96154 0 0 0
228 6 Si 21.1938 5.10146 8.59111 0 0 0
229 5 O 20.9204 0.547795 10.3634 0 0 0
230 5 O 23.7073 2.2319 9.98954 0 0 0
231 5 O 20.276 4.50181 9.86319 0 0 0
232 5 O 21.22 6.75119 8.7573 0 0 0
233 5 O 22.7035 4.40464 8.67757 0 0 0
236 6 Si 18.5857 8.17881 6.48717 0 0 0
237 6 Si 21.0997 9.41269 5 0 0 0
240 5 O 20.1467 8.68252 6.22655 0 0 0
242 5 O 17.6444 8.76153 5.21008 0 0 0
243 5 O 18.0724 8.69715 7.98349 0 0 0
244 6 Si 17.3099 7.96747 9.29208 0 0 0
247 5 O 18.4629 7.44684 10.3624 0 0 0
248 5 O 21.2502 9.13225 9.99037 0 0 0
284 2 H 12.2964 4.31179 11.598 0 0 0
290 2 H 17.2106 4.31282 11.5976 0 0 0
291 2 H 13.3826 6.63406 10.8841 0 0 0
296 2 H 22.1257 4.31306 11.597 0 0 0
297 2 H 18.297 6.63391 10.8851 0 0 0
337 2 H 14.3108 7.41794 13.1309 0 0 0
335 2 H 15.1606 6.73791 16.7908 0 0 0
304 1 C 14.7211 6.92423 14.0392 0 0 0
383 5 O 13.8003 9.83235 13.4901 0 0 0
338 2 H 15.4583 6.14855 13.7234 0 0 0
332 2 H 17.325 8.09457 13.9214 0 0 0
333 2 H 16.0901 9.29517 13.356 0 0 0
339 2 H 13.8888 6.41226 14.5775 0 0 0
301 1 C 16.5034 8.7759 14.247 0 0 0
302 1 C 15.4062 7.95518 14.9708 0 0 0
305 1 C 13.6479 9.69642 14.7072 0 0 0
336 2 H 16.4021 8.0408 16.9306 0 0 0
340 2 H 12.3804 9.95847 16.3505 0 0 0
382 5 O 14.3599 8.87251 15.5456 0 0 0
387 5 O 10.08 9.77613 16.0028 0 0 0
303 1 C 15.9673 7.27825 16.2442 0 0 0
334 2 H 16.7648 6.54716 15.9744 0 0 0
331 2 H 16.9387 9.53756 14.9365 0 0 0
130 5 O 8.23309 11.5899 7.13242 0 0 0
138 6 Si 8.90744 12.0025 8.58903 0 0 0
142 5 O 8.9328 13.6522 8.75521 0 0 0
143 5 O 10.4162 11.3045 8.67659 0 0 0
144 5 O 10.7665 11.4443 11.393 0 0 0
147 6 Si 8.8123 16.3132 5 0 0 0
148 5 O 5.77541 18.4897 7.13395 0 0 0
150 5 O 7.85932 15.583 6.22657 0 0 0
156 6 Si 6.44903 18.9028 8.59048 0 0 0
158 5 O 8.96263 16.0332 9.98989 0 0 0
160 5 O 6.47435 20.5524 8.75618 0 0 0
161 5 O 7.95902 18.206 8.67795 0 0 0
162 5 O 8.31045 18.3449 11.3943 0 0 0
181 6 Si 12.2938 12.3002 5.84841 0 0 0
184 5 O 13.1463 11.5899 7.13412 0 0 0
185 5 O 11.1436 13.4094 6.46197 0 0 0
187 5 O 11.3348 11.0198 5.15665 0 0 0
191 6 Si 11.3547 10.7881 9.96091 0 0 0
192 6 Si 13.822 12.0022 8.59018 0 0 0
195 5 O 12.9038 11.4033 9.86272 0 0 0
196 5 O 13.8482 13.6516 8.75608 0 0 0
197 5 O 15.3314 11.3051 8.6782 0 0 0
198 5 O 15.6835 11.4448 11.3934 0 0 0
199 6 Si 9.83637 19.2007 5.84833 0 0 0
200 6 Si 11.2136 15.0796 6.48748 0 0 0
201 6 Si 13.7273 16.3132 5 0 0 0
202 5 O 10.6895 18.4902 7.13352 0 0 0
203 5 O 8.68599 20.3099 6.46143 0 0 0
204 5 O 12.7745 15.583 6.22641 0 0 0
205 5 O 8.87737 17.9203 5.15665 0 0 0
206 5 O 10.272 15.662 5.21008 0 0 0
207 5 O 10.7003 15.5978 7.98372 0 0 0
208 6 Si 9.93785 14.8685 9.29191 0 0 0
209 6 Si 8.89786 17.6885 9.96108 0 0 0
210 6 Si 11.3645 18.903 8.58998 0 0 0
211 5 O 11.0901 14.3487 10.3631 0 0 0
212 5 O 13.878 16.0331 9.99044 0 0 0
213 5 O 10.4472 18.3025 9.86215 0 0 0
214 5 O 11.3902 20.5523 8.75723 0 0 0
215 5 O 12.8737 18.2054 8.67801 0 0 0
216 5 O 13.2253 18.3447 11.3938 0 0 0
235 6 Si 17.2095 12.3004 5.84793 0 0 0
238 5 O 18.0625 11.5898 7.13367 0 0 0
239 5 O 16.0589 13.4092 6.46124 0 0 0
241 5 O 16.2498 11.0198 5.15665 0 0 0
245 6 Si 16.2705 10.788 9.96085 0 0 0
246 6 Si 18.7373 12.002 8.58975 0 0 0
249 5 O 17.8196 11.4025 9.86237 0 0 0
250 5 O 18.7626 13.6513 8.75785 0 0 0
251 5 O 20.2468 11.3051 8.67771 0 0 0
253 6 Si 14.7516 19.2008 5.84829 0 0 0
254 6 Si 16.1281 15.0794 6.48753 0 0 0
255 6 Si 18.6422 16.3132 5 0 0 0
256 5 O 15.605 18.4901 7.13321 0 0 0
257 5 O 13.6019 20.3097 6.46192 0 0 0
258 5 O 17.6894 15.583 6.22632 0 0 0
259 5 O 13.7923 17.9203 5.15665 0 0 0
260 5 O 15.1869 15.662 5.21008 0 0 0
261 5 O 15.6151 15.5977 7.98368 0 0 0
262 6 Si 14.8528 14.8684 9.29201 0 0 0
263 6 Si 13.813 17.6881 9.96124 0 0 0
264 6 Si 16.2796 18.9027 8.5899 0 0 0
265 5 O 16.0051 14.349 10.364 0 0 0
266 5 O 18.7928 16.0329 9.99024 0 0 0
267 5 O 15.3621 18.3026 9.86264 0 0 0
268 5 O 16.3063 20.5519 8.75693 0 0 0
269 5 O 17.7892 18.2055 8.67726 0 0 0
286 2 H 9.839 11.2135 11.5963 0 0 0
288 2 H 7.38359 18.1126 11.5994 0 0 0
289 2 H 8.46807 20.4346 10.8842 0 -1 0
292 2 H 14.7563 11.2125 11.599 0 0 0
293 2 H 10.9263 13.5347 10.8841 0 0 0
294 2 H 12.2984 18.1132 11.5988 0 0 0
295 2 H 13.3846 20.4348 10.883 0 -1 0
298 2 H 19.6702 11.2122 11.5984 0 0 0
299 2 H 15.8415 13.5348 10.8833 0 0 0
300 2 H 17.2136 18.1138 11.5978 0 0 0
384 5 O 13.0385 13.2893 12.7365 0 0 0
344 2 H 15.336 13.3929 13.0366 0 0 0
386 5 O 9.21493 11.5803 14.9763 0 0 0
307 1 C 11.8423 12.7542 14.8044 0 0 0
308 1 C 13.0506 13.189 13.9602 0 0 0
342 2 H 10.9374 13.2415 14.3786 0 0 0
345 2 H 14.5848 15.7407 13.324 0 0 0
385 5 O 14.1397 13.4365 14.7597 0 0 0
309 1 C 15.3897 13.8431 14.0529 0 0 0
310 1 C 15.421 15.3856 13.9708 0 0 0
354 2 H 17.3816 12.9518 14.1764 0 0 0
346 2 H 16.3645 15.6676 13.4407 0 0 0
314 1 C 16.5737 13.2665 14.8802 0 0 0
348 2 H 15.8893 17.048 15.3244 0 0 0
343 2 H 11.9741 13.0718 15.8636 0 0 0
351 2 H 17.9233 14.9187 15.4555 0 0 0
311 1 C 15.3694 16.0604 15.3826 0 0 0
313 1 C 17.1405 14.2746 15.9301 0 0 0
352 2 H 17.6546 13.7157 16.7485 0 0 0
312 1 C 16.0176 15.1795 16.5026 0 0 0