
     Program PWSCF v.7.3 starts on 19Mar2024 at 15:24:10 

     This program is part of the open-source Quantum ESPRESSO suite
     for quantum simulation of materials; please cite
         "P. Giannozzi et al., J. Phys.:Condens. Matter 21 395502 (2009);
         "P. Giannozzi et al., J. Phys.:Condens. Matter 29 465901 (2017);
         "P. Giannozzi et al., J. Chem. Phys. 152 154105 (2020);
          URL http://www.quantum-espresso.org", 
     in publications or presentations arising from this work. More details at
     http://www.quantum-espresso.org/quote

     Parallel version (MPI & OpenMP), running on      36 processor cores
     Number of MPI processes:                36
     Threads/MPI process:                     1

     MPI processes distributed on     1 nodes
     554048 MiB available memory on the printing compute node when the environment starts
 
     Waiting for input...
     Reading input from standard input
Warning: card &CELL ignored
Warning: card / ignored

     Current dimensions of program PWSCF are:
     Max number of different atomic species (ntypx) = 10
     Max number of k-points (npk) =  40000
     Max angular momentum in pseudopotentials (lmaxx) =  4
     file Mo.pbe-spn-kjpaw_psl.1.0.0.UPF: wavefunction(s)  4S 4D renormalized
     file S.pbe-n-kjpaw_psl.1.0.0.UPF: wavefunction(s)  3S 3P renormalized
     file Pd.pbe-spn-kjpaw_psl.1.0.0.UPF: wavefunction(s)  4S 5S 4D renormalized
     file Pt.pbe-spfn-kjpaw_psl.1.0.0.UPF: wavefunction(s)  5P 4F renormalized
 
     R & G space division:  proc/nbgrp/npool/nimage =      36
     Subspace diagonalization in iterative solution of the eigenvalue problem:
     one sub-group per band group will be used
     scalapack distributed-memory algorithm (size of sub-group:  6*  6 procs)

 
     Parallelization info
     --------------------
     sticks:   dense  smooth     PW     G-vecs:    dense   smooth      PW
     Min         585     334     89               198743    85850   11735
     Max         586     335     90               198750    85861   11748
     Sum       21073   12049   3205              7154885  3090769  422587
 
     Using Slab Decomposition
 


     bravais-lattice index     =            0
     lattice parameter (alat)  =      23.8199  a.u.
     unit-cell volume          =   33861.0370 (a.u.)^3
     number of atoms/cell      =          194
     number of atomic types    =            4
     number of electrons       =      1714.00
     number of Kohn-Sham states=         1028
     kinetic-energy cutoff     =      77.0000  Ry
     charge density cutoff     =     539.0000  Ry
     scf convergence threshold =      1.0E-06
     mixing beta               =       0.2000
     number of iterations used =            8  plain     mixing
     energy convergence thresh.=      1.0E-04
     force convergence thresh. =      1.0E-03
     Exchange-correlation= SLA  PW   PBX  PBC
                           (   1   4   3   4   0   0   0)
     nstep                     =         1000


     Effective Screening Medium Method
     =================================
     Boundary Conditions: Vacuum-Slab-Vacuum
     total charge in unit cell        =   0.0000
     grid points for fit at edges     =        4 
 

     celldm(1)=  23.819920  celldm(2)=   0.000000  celldm(3)=   0.000000
     celldm(4)=   0.000000  celldm(5)=   0.000000  celldm(6)=   0.000000

     crystal axes: (cart. coord. in units of alat)
               a(1) = (   1.000000   0.000000   0.000000 )  
               a(2) = (  -0.499999   0.866026   0.000000 )  
               a(3) = (   0.000000   0.000000   2.893000 )  

     reciprocal axes: (cart. coord. in units 2 pi/alat)
               b(1) = (  1.000000  0.577349  0.000000 )  
               b(2) = (  0.000000  1.154700  0.000000 )  
               b(3) = (  0.000000  0.000000  0.345662 )  


     PseudoPot. # 1 for Mo read from file:
     ./pseudo/Mo.pbe-spn-kjpaw_psl.1.0.0.UPF
     MD5 check sum: 317bf72632116215fd98f72de1686f13
     Pseudo is Projector augmented-wave + core cor, Zval = 14.0
     Generated using 'atomic' code by A. Dal Corso  v.7.2
     Shape of augmentation charge: PSQ
     Using radial grid of 1229 points,  6 beta functions with: 
                l(1) =   0
                l(2) =   0
                l(3) =   1
                l(4) =   1
                l(5) =   2
                l(6) =   2
     Q(r) pseudized with 0 coefficients 


     PseudoPot. # 2 for S  read from file:
     ./pseudo/S.pbe-n-kjpaw_psl.1.0.0.UPF
     MD5 check sum: 8b7b5302570d38d5e87fed6a1065abda
     Pseudo is Projector augmented-wave + core cor, Zval =  6.0
     Generated using 'atomic' code by A. Dal Corso  v.7.2
     Shape of augmentation charge: PSQ
     Using radial grid of 1151 points,  6 beta functions with: 
                l(1) =   0
                l(2) =   0
                l(3) =   1
                l(4) =   1
                l(5) =   2
                l(6) =   2
     Q(r) pseudized with 0 coefficients 


     PseudoPot. # 3 for Pd read from file:
     ./pseudo/Pd.pbe-spn-kjpaw_psl.1.0.0.UPF
     MD5 check sum: a60571a671f2502b8a6a4569d20a6edb
     Pseudo is Projector augmented-wave + core cor, Zval = 18.0
     Generated using 'atomic' code by A. Dal Corso  v.7.2
     Shape of augmentation charge: PSQ
     Using radial grid of 1235 points,  6 beta functions with: 
                l(1) =   0
                l(2) =   0
                l(3) =   1
                l(4) =   1
                l(5) =   2
                l(6) =   2
     Q(r) pseudized with 0 coefficients 


     PseudoPot. # 4 for Pt read from file:
     ./pseudo/Pt.pbe-spfn-kjpaw_psl.1.0.0.UPF
     MD5 check sum: 620096ebf4e6ebacc94de60fd67efcb5
     Pseudo is Projector augmented-wave + core cor, Zval = 32.0
     Generated using 'atomic' code by A. Dal Corso  v.7.2
     Shape of augmentation charge: PSQ
     Using radial grid of 1277 points,  8 beta functions with: 
                l(1) =   0
                l(2) =   0
                l(3) =   1
                l(4) =   1
                l(5) =   2
                l(6) =   2
                l(7) =   3
                l(8) =   3
     Q(r) pseudized with 0 coefficients 


     atomic species   valence    mass     pseudopotential
     Mo               14.00    95.95000     Mo( 1.00)
     S                 6.00    32.06000     S ( 1.00)
     Pd               18.00   106.42000     Pd( 1.00)
     Pt               32.00   195.08400     Pt( 1.00)

     No symmetry found



   Cartesian axes

     site n.     atom                  positions (alat units)
         1        Mo     tau(   1) = (   0.0000010   0.1443372  -0.7272732  )
         2        Mo     tau(   2) = (   0.1249995   0.0721706  -0.2424038  )
         3        S      tau(   3) = (   0.0000015   0.1443386  -0.3667807  )
         4        S      tau(   4) = (   0.1250010   0.0721682  -0.6030489  )
         5        S      tau(   5) = (   0.1250010   0.0721683  -0.8514963  )
         6        S      tau(   6) = (   0.0000015   0.1443389  -0.1180260  )
         7        Mo     tau(   7) = (   0.0000007   0.1443589   0.2424205  )
         8        Mo     tau(   8) = (   0.1250041   0.0720322   0.7266168  )
         9        S      tau(   9) = (   0.0000742   0.1444871   0.6020949  )
        10        S      tau(  10) = (   0.1250024   0.0721701   0.3667478  )
        11        S      tau(  11) = (   0.1250035   0.0721876   0.1180348  )
        12        S      tau(  12) = (  -0.0004118   0.1430864   0.8514340  )
        13        Mo     tau(  13) = (  -0.1249989   0.3608437  -0.7272732  )
        14        Mo     tau(  14) = (   0.0000030   0.2886752  -0.2424042  )
        15        S      tau(  15) = (  -0.1249977   0.3608450  -0.3667802  )
        16        S      tau(  16) = (   0.0000012   0.2886747  -0.6030489  )
        17        S      tau(  17) = (   0.0000012   0.2886748  -0.8514963  )
        18        S      tau(  18) = (  -0.1249977   0.3608454  -0.1180274  )
        19        Mo     tau(  19) = (  -0.1249729   0.3608584   0.2424608  )
        20        Mo     tau(  20) = (  -0.0007193   0.2876626   0.7275440  )
        21        S      tau(  21) = (  -0.1251115   0.3607789   0.6027257  )
        22        S      tau(  22) = (   0.0000621   0.2887099   0.3668377  )
        23        S      tau(  23) = (  -0.0000096   0.2886902   0.1180527  )
        24        S      tau(  24) = (  -0.1254673   0.3605734   0.8517408  )
        25        Mo     tau(  25) = (  -0.2499987   0.5773502  -0.7272732  )
        26        Mo     tau(  26) = (  -0.1249977   0.5051839  -0.2424055  )
        27        S      tau(  27) = (  -0.2499981   0.5773518  -0.3667809  )
        28        S      tau(  28) = (  -0.1249986   0.5051812  -0.6030489  )
        29        S      tau(  29) = (  -0.1249986   0.5051813  -0.8514963  )
        30        S      tau(  30) = (  -0.2499979   0.5773512  -0.1180266  )
        31        Mo     tau(  31) = (  -0.2499795   0.5773389   0.2424205  )
        32        Mo     tau(  32) = (  -0.1262356   0.5050639   0.7275441  )
        33        S      tau(  33) = (  -0.2498323   0.5773390   0.6020948  )
        34        S      tau(  34) = (  -0.1249376   0.5052159   0.3668377  )
        35        S      tau(  35) = (  -0.1249905   0.5051638   0.1180531  )
        36        S      tau(  36) = (  -0.2512883   0.5776183   0.8514340  )
        37        Mo     tau(  37) = (  -0.3749985   0.7938567  -0.7272732  )
        38        Mo     tau(  38) = (  -0.2500001   0.7216874  -0.2424031  )
        39        S      tau(  39) = (  -0.3749980   0.7938584  -0.3667800  )
        40        S      tau(  40) = (  -0.2499984   0.7216877  -0.6030489  )
        41        S      tau(  41) = (  -0.2499984   0.7216878  -0.8514963  )
        42        S      tau(  42) = (  -0.3749982   0.7938585  -0.1180264  )
        43        Mo     tau(  43) = (  -0.3749962   0.7938568   0.2423838  )
        44        Mo     tau(  44) = (  -0.2501148   0.7217588   0.7266170  )
        45        S      tau(  45) = (  -0.3749945   0.7938590   0.6021274  )
        46        S      tau(  46) = (  -0.2499958   0.7216877   0.3667488  )
        47        S      tau(  47) = (  -0.2499810   0.7216794   0.1180323  )
        48        S      tau(  48) = (  -0.3749953   0.7938585   0.8511588  )
        49        Mo     tau(  49) = (   0.2500010   0.1443372  -0.7272732  )
        50        Mo     tau(  50) = (   0.3750034   0.0721723  -0.2424032  )
        51        S      tau(  51) = (   0.2500017   0.1443391  -0.3667788  )
        52        S      tau(  52) = (   0.3750010   0.0721682  -0.6030489  )
        53        S      tau(  53) = (   0.3750010   0.0721683  -0.8514963  )
        54        S      tau(  54) = (   0.2500016   0.1443391  -0.1180271  )
        55        Mo     tau(  55) = (   0.2500054   0.1443594   0.2424211  )
        56        Mo     tau(  56) = (   0.3749279   0.0721263   0.7263991  )
        57        S      tau(  57) = (   0.2499344   0.1444864   0.6020948  )
        58        S      tau(  58) = (   0.3750316   0.0721860   0.3667597  )
        59        S      tau(  59) = (   0.3749924   0.0721644   0.1180346  )
        60        S      tau(  60) = (   0.2504199   0.1430865   0.8514340  )
        61        Mo     tau(  61) = (   0.1250012   0.3608437  -0.7272732  )
        62        Mo     tau(  62) = (   0.2500029   0.2886782  -0.2424031  )
        63        S      tau(  63) = (   0.1250024   0.3608455  -0.3667794  )
        64        S      tau(  64) = (   0.2500012   0.2886747  -0.6030489  )
        65        S      tau(  65) = (   0.2500012   0.2886748  -0.8514963  )
        66        S      tau(  66) = (   0.1250021   0.3608455  -0.1180270  )
        67        Mo     tau(  67) = (   0.1250038   0.3608653   0.2423963  )
        68        Mo     tau(  68) = (   0.2507284   0.2876625   0.7275438  )
        69        S      tau(  69) = (   0.1250046   0.3627170   0.6061948  )
        70        S      tau(  70) = (   0.2499461   0.2887116   0.3668373  )
        71        S      tau(  71) = (   0.2500171   0.2886900   0.1180543  )
        72        S      tau(  72) = (   0.1250046   0.3519103   0.8557806  )
        73        Mo     tau(  73) = (   0.0000014   0.5773502  -0.7272732  )
        74        Mo     tau(  74) = (   0.1250045   0.5051840  -0.2424036  )
        75        S      tau(  75) = (   0.0000030   0.5773520  -0.3667799  )
        76        S      tau(  76) = (   0.1250014   0.5051812  -0.6030489  )
        77        S      tau(  77) = (   0.1250014   0.5051813  -0.8514963  )
        78        S      tau(  78) = (   0.0000026   0.5773517  -0.1180274  )
        79        Mo     tau(  79) = (   0.0000222   0.5773400   0.2423964  )
        80        Mo     tau(  80) = (   0.1250047   0.5051836   0.7321380  )
        81        S      tau(  81) = (   0.0016251   0.5764170   0.6061946  )
        82        S      tau(  82) = (   0.1250047   0.5051815   0.3667777  )
        83        S      tau(  83) = (   0.1250048   0.5051819   0.1179962  )
        84        S      tau(  84) = (  -0.0077335   0.5818202   0.8557807  )
        85        Mo     tau(  85) = (  -0.1249984   0.7938567  -0.7272732  )
        86        Mo     tau(  86) = (   0.0000069   0.7216896  -0.2424039  )
        87        S      tau(  87) = (  -0.1249975   0.7938582  -0.3667782  )
        88        S      tau(  88) = (   0.0000016   0.7216877  -0.6030489  )
        89        S      tau(  89) = (   0.0000016   0.7216878  -0.8514963  )
        90        S      tau(  90) = (  -0.1249973   0.7938582  -0.1180279  )
        91        Mo     tau(  91) = (  -0.1249774   0.7938494   0.2424207  )
        92        Mo     tau(  92) = (  -0.0005116   0.7228241   0.7275438  )
        93        S      tau(  93) = (  -0.1249026   0.7937246   0.6020948  )
        94        S      tau(  94) = (   0.0000043   0.7216209   0.3668361  )
        95        S      tau(  95) = (   0.0000226   0.7216928   0.1180549  )
        96        S      tau(  96) = (  -0.1258721   0.7948451   0.8514341  )
        97        Mo     tau(  97) = (   0.5000010   0.1443372  -0.7272732  )
        98        Mo     tau(  98) = (   0.6250001   0.0721662  -0.2424040  )
        99        S      tau(  99) = (   0.5000017   0.1443386  -0.3667801  )
       100        S      tau( 100) = (   0.6250010   0.0721682  -0.6030489  )
       101        S      tau( 101) = (   0.6250010   0.0721683  -0.8514963  )
       102        S      tau( 102) = (   0.5000020   0.1443388  -0.1180261  )
       103        Mo     tau( 103) = (   0.5000075   0.1443411   0.2423793  )
       104        Mo     tau( 104) = (   0.6250042   0.0723339   0.7270464  )
       105        S      tau( 105) = (   0.5002366   0.1444733   0.6023595  )
       106        S      tau( 106) = (   0.6250029   0.0721787   0.3667562  )
       107        S      tau( 107) = (   0.6250040   0.0721260   0.1180315  )
       108        S      tau( 108) = (   0.4998752   0.1442648   0.8512770  )
       109        Mo     tau( 109) = (   0.3750012   0.3608437  -0.7272732  )
       110        Mo     tau( 110) = (   0.4999991   0.2886761  -0.2424038  )
       111        S      tau( 111) = (   0.3750012   0.3608452  -0.3667804  )
       112        S      tau( 112) = (   0.5000012   0.2886747  -0.6030489  )
       113        S      tau( 113) = (   0.5000012   0.2886748  -0.8514963  )
       114        S      tau( 114) = (   0.3750014   0.3608455  -0.1180261  )
       115        Mo     tau( 115) = (   0.3749795   0.3608597   0.2424601  )
       116        Mo     tau( 116) = (   0.5001461   0.2885951   0.7270464  )
       117        S      tau( 117) = (   0.3751205   0.3607791   0.6027254  )
       118        S      tau( 118) = (   0.5000105   0.2886721   0.3667569  )
       119        S      tau( 119) = (   0.4999655   0.2886989   0.1180297  )
       120        S      tau( 120) = (   0.3754765   0.3605739   0.8517402  )
       121        Mo     tau( 121) = (   0.2500014   0.5773502  -0.7272732  )
       122        Mo     tau( 122) = (   0.3749983   0.5051825  -0.2424043  )
       123        S      tau( 123) = (   0.2500017   0.5773519  -0.3667810  )
       124        S      tau( 124) = (   0.3750014   0.5051812  -0.6030489  )
       125        S      tau( 125) = (   0.3750014   0.5051813  -0.8514963  )
       126        S      tau( 126) = (   0.2500018   0.5773519  -0.1180256  )
       127        Mo     tau( 127) = (   0.2499863   0.5773402   0.2423965  )
       128        Mo     tau( 128) = (   0.3762454   0.5050642   0.7275433  )
       129        S      tau( 129) = (   0.2483844   0.5764169   0.6061944  )
       130        S      tau( 130) = (   0.3749442   0.5052158   0.3668400  )
       131        S      tau( 131) = (   0.3749972   0.5051650   0.1180510  )
       132        S      tau( 132) = (   0.2577438   0.5818204   0.8557797  )
       133        Mo     tau( 133) = (   0.1250016   0.7938567  -0.7272732  )
       134        Mo     tau( 134) = (   0.2499995   0.7216883  -0.2424036  )
       135        S      tau( 135) = (   0.1250024   0.7938578  -0.3667813  )
       136        S      tau( 136) = (   0.2500016   0.7216877  -0.6030489  )
       137        S      tau( 137) = (   0.2500016   0.7216878  -0.8514963  )
       138        S      tau( 138) = (   0.1250024   0.7938579  -0.1180253  )
       139        Mo     tau( 139) = (   0.1250047   0.7938294   0.2424606  )
       140        Mo     tau( 140) = (   0.2505220   0.7228241   0.7275433  )
       141        S      tau( 141) = (   0.1250053   0.7939926   0.6027252  )
       142        S      tau( 142) = (   0.2500048   0.7216200   0.3668387  )
       143        S      tau( 143) = (   0.2499864   0.7216915   0.1180524  )
       144        S      tau( 144) = (   0.1250054   0.7944033   0.8517402  )
       145        Mo     tau( 145) = (   0.7500010   0.1443372  -0.7272732  )
       146        Mo     tau( 146) = (   0.8750038   0.0721696  -0.2424038  )
       147        S      tau( 147) = (   0.7500016   0.1443382  -0.3667789  )
       148        S      tau( 148) = (   0.8750010   0.0721682  -0.6030489  )
       149        S      tau( 149) = (   0.8750010   0.0721683  -0.8514963  )
       150        S      tau( 150) = (   0.7500016   0.1443384  -0.1180279  )
       151        Mo     tau( 151) = (   0.7499986   0.1443409   0.2423802  )
       152        Mo     tau( 152) = (   0.8750804   0.0721266   0.7263988  )
       153        S      tau( 153) = (   0.7497713   0.1444738   0.6023592  )
       154        S      tau( 154) = (   0.8749758   0.0721848   0.3667595  )
       155        S      tau( 155) = (   0.8750127   0.0721632   0.1180342  )
       156        S      tau( 156) = (   0.7501331   0.1442647   0.8512770  )
       157        Mo     tau( 157) = (   0.6250012   0.3608437  -0.7272732  )
       158        Mo     tau( 158) = (   0.7500028   0.2886769  -0.2424041  )
       159        S      tau( 159) = (   0.6250015   0.3608451  -0.3667792  )
       160        S      tau( 160) = (   0.7500012   0.2886747  -0.6030489  )
       161        S      tau( 161) = (   0.7500012   0.2886748  -0.8514963  )
       162        S      tau( 162) = (   0.6250016   0.3608454  -0.1180280  )
       163        Mo     tau( 163) = (   0.6250032   0.3608391   0.2423797  )
       164        Mo     tau( 164) = (   0.7498627   0.2885951   0.7270467  )
       165        S      tau( 165) = (   0.6250046   0.3605769   0.6023590  )
       166        S      tau( 166) = (   0.7499943   0.2886711   0.3667569  )
       167        S      tau( 167) = (   0.7500399   0.2886970   0.1180318  )
       168        S      tau( 168) = (   0.6250043   0.3609947   0.8512770  )
       169        Mo     tau( 169) = (   0.5000014   0.5773502  -0.7272732  )
       170        Mo     tau( 170) = (   0.6250029   0.5051841  -0.2424047  )
       171        S      tau( 171) = (   0.5000014   0.5773518  -0.3667794  )
       172        S      tau( 172) = (   0.6250014   0.5051812  -0.6030489  )
       173        S      tau( 173) = (   0.6250014   0.5051813  -0.8514963  )
       174        S      tau( 174) = (   0.5000016   0.5773516  -0.1180277  )
       175        Mo     tau( 175) = (   0.4999855   0.5773383   0.2424207  )
       176        Mo     tau( 176) = (   0.6250049   0.5052713   0.7263986  )
       177        S      tau( 177) = (   0.4998428   0.5773389   0.6020941  )
       178        S      tau( 178) = (   0.6250030   0.5051500   0.3667588  )
       179        S      tau( 179) = (   0.6250025   0.5051935   0.1180351  )
       180        S      tau( 180) = (   0.5012979   0.5776190   0.8514332  )
       181        Mo     tau( 181) = (   0.3750016   0.7938567  -0.7272732  )
       182        Mo     tau( 182) = (   0.5000025   0.7216901  -0.2424039  )
       183        S      tau( 183) = (   0.3750019   0.7938578  -0.3667793  )
       184        S      tau( 184) = (   0.5000016   0.7216877  -0.6030489  )
       185        S      tau( 185) = (   0.5000016   0.7216878  -0.8514963  )
       186        S      tau( 186) = (   0.3750020   0.7938579  -0.1180272  )
       187        Mo     tau( 187) = (   0.3749848   0.7938487   0.2424206  )
       188        Mo     tau( 188) = (   0.5001249   0.7217591   0.7266160  )
       189        S      tau( 189) = (   0.3749125   0.7937251   0.6020942  )
       190        S      tau( 190) = (   0.5000021   0.7216868   0.3667472  )
       191        S      tau( 191) = (   0.4999874   0.7216780   0.1180346  )
       192        S      tau( 192) = (   0.3758826   0.7948451   0.8514332  )
       193        Pd     tau( 193) = (   0.1250063   0.5051842   0.9601361  )
       194        Pt     tau( 194) = (  -0.0004760   0.7228108   0.9704117  )

     --------------------------------------------
     DFT-D3 Dispersion Correction (3-body terms):
     --------------------------------------------
       Reference C6 values for interpolation: 

         atom   Coordination number   C6
         S          0.000           268.01
         S          0.995           261.99
         S          1.990           251.62
         Mo         0.000          1691.79
         Mo         1.942          1004.01
         Mo        11.056           674.22
         Pd         0.000          1217.01
         Pd         1.863           573.90
         Pd         5.710           531.75
         Pt         0.000           782.29
         Pt         1.919           692.72
         Pt         6.667           673.75

       Values used:

         atom   Coordination number  R0_AB[au]  C6      C8
         Mo        10.208            3.547    674.22  77634.20
         Mo        10.221            3.547    674.22  77634.20
         S          3.858            3.128    251.62  12327.25
         S          3.859            3.128    251.62  12327.25
         S          3.758            3.128    251.62  12327.25
         S          3.859            3.128    251.62  12327.25
         Mo        10.220            3.547    674.22  77634.20
         Mo        10.234            3.547    674.22  77634.20
         S          3.847            3.128    251.62  12327.25
         S          3.861            3.128    251.62  12327.25
         S          3.859            3.128    251.62  12327.25
         S          3.805            3.128    251.62  12327.25
         Mo        10.208            3.547    674.22  77634.20
         Mo        10.221            3.547    674.22  77634.20
         S          3.858            3.128    251.62  12327.25
         S          3.859            3.128    251.62  12327.25
         S          3.758            3.128    251.62  12327.25
         S          3.859            3.128    251.62  12327.25
         Mo        10.221            3.547    674.22  77634.20
         Mo        10.191            3.547    674.22  77634.20
         S          3.855            3.128    251.62  12327.25
         S          3.856            3.128    251.62  12327.25
         S          3.859            3.128    251.62  12327.25
         S          3.757            3.128    251.62  12327.25
         Mo        10.208            3.547    674.22  77634.20
         Mo        10.221            3.547    674.22  77634.20
         S          3.858            3.128    251.62  12327.25
         S          3.859            3.128    251.62  12327.25
         S          3.758            3.128    251.62  12327.25
         S          3.859            3.128    251.62  12327.25
         Mo        10.220            3.547    674.21  77634.20
         Mo        10.201            3.547    674.22  77634.20
         S          3.847            3.128    251.62  12327.25
         S          3.856            3.128    251.62  12327.25
         S          3.859            3.128    251.62  12327.25
         S          3.816            3.128    251.62  12327.25
         Mo        10.208            3.547    674.22  77634.20
         Mo        10.221            3.547    674.22  77634.20
         S          3.858            3.128    251.62  12327.25
         S          3.859            3.128    251.62  12327.25
         S          3.758            3.128    251.62  12327.25
         S          3.859            3.128    251.62  12327.25
         Mo        10.219            3.547    674.22  77634.20
         Mo        10.244            3.547    674.22  77634.20
         S          3.856            3.128    251.62  12327.25
         S          3.861            3.128    251.62  12327.25
         S          3.859            3.128    251.62  12327.25
         S          3.782            3.128    251.62  12327.25
         Mo        10.208            3.547    674.22  77634.20
         Mo        10.221            3.547    674.22  77634.20
         S          3.858            3.128    251.62  12327.25
         S          3.859            3.128    251.62  12327.25
         S          3.758            3.128    251.62  12327.25
         S          3.859            3.128    251.62  12327.25
         Mo        10.220            3.547    674.22  77634.20
         Mo        10.254            3.547    674.22  77634.20
         S          3.847            3.128    251.62  12327.25
         S          3.860            3.128    251.62  12327.25
         S          3.859            3.128    251.62  12327.25
         S          3.806            3.128    251.62  12327.25
         Mo        10.208            3.547    674.22  77634.20
         Mo        10.221            3.547    674.22  77634.20
         S          3.858            3.128    251.62  12327.25
         S          3.859            3.128    251.62  12327.25
         S          3.758            3.128    251.62  12327.25
         S          3.859            3.128    251.62  12327.25
         Mo        10.222            3.547    674.22  77634.20
         Mo        10.191            3.547    674.22  77634.20
         S          3.865            3.128    251.62  12327.25
         S          3.856            3.128    251.62  12327.25
         S          3.859            3.128    251.62  12327.25
         S          4.653            3.128    251.62  12327.25
         Mo        10.208            3.547    674.22  77634.20
         Mo        10.221            3.547    674.22  77634.20
         S          3.858            3.128    251.62  12327.25
         S          3.859            3.128    251.62  12327.25
         S          3.758            3.128    251.62  12327.25
         S          3.859            3.128    251.62  12327.25
         Mo        10.222            3.547    674.22  77634.20
         Mo        10.832            3.547    674.22  77634.20
         S          3.866            3.128    251.62  12327.25
         S          3.853            3.128    251.62  12327.25
         S          3.859            3.128    251.62  12327.25
         S          5.633            3.128    251.62  12327.25
         Mo        10.208            3.547    674.22  77634.20
         Mo        10.221            3.547    674.22  77634.20
         S          3.858            3.128    251.62  12327.25
         S          3.859            3.128    251.62  12327.25
         S          3.758            3.128    251.62  12327.25
         S          3.859            3.128    251.62  12327.25
         Mo        10.220            3.547    674.22  77634.20
         Mo        10.800            3.547    674.22  77634.20
         S          3.848            3.128    251.62  12327.25
         S          3.856            3.128    251.62  12327.25
         S          3.859            3.128    251.62  12327.25
         S          4.770            3.128    251.62  12327.25
         Mo        10.208            3.547    674.22  77634.20
         Mo        10.221            3.547    674.22  77634.20
         S          3.858            3.128    251.62  12327.25
         S          3.859            3.128    251.62  12327.25
         S          3.758            3.128    251.62  12327.25
         S          3.859            3.128    251.62  12327.25
         Mo        10.220            3.547    674.22  77634.20
         Mo        10.240            3.547    674.22  77634.20
         S          3.862            3.128    251.62  12327.25
         S          3.860            3.128    251.62  12327.25
         S          3.859            3.128    251.62  12327.25
         S          3.778            3.128    251.62  12327.25
         Mo        10.208            3.547    674.22  77634.20
         Mo        10.221            3.547    674.22  77634.20
         S          3.858            3.128    251.62  12327.25
         S          3.859            3.128    251.62  12327.25
         S          3.758            3.128    251.62  12327.25
         S          3.859            3.128    251.62  12327.25
         Mo        10.221            3.547    674.22  77634.20
         Mo        10.230            3.547    674.22  77634.20
         S          3.855            3.128    251.62  12327.25
         S          3.860            3.128    251.62  12327.25
         S          3.859            3.128    251.62  12327.25
         S          3.756            3.128    251.62  12327.25
         Mo        10.208            3.547    674.22  77634.20
         Mo        10.221            3.547    674.22  77634.20
         S          3.858            3.128    251.62  12327.25
         S          3.859            3.128    251.62  12327.25
         S          3.758            3.128    251.62  12327.25
         S          3.859            3.128    251.62  12327.25
         Mo        10.222            3.547    674.22  77634.20
         Mo        10.191            3.547    674.22  77634.20
         S          3.865            3.128    251.62  12327.25
         S          3.856            3.128    251.62  12327.25
         S          3.859            3.128    251.62  12327.25
         S          4.663            3.128    251.62  12327.25
         Mo        10.208            3.547    674.22  77634.20
         Mo        10.221            3.547    674.22  77634.20
         S          3.858            3.128    251.62  12327.25
         S          3.859            3.128    251.62  12327.25
         S          3.758            3.128    251.62  12327.25
         S          3.859            3.128    251.62  12327.25
         Mo        10.221            3.547    674.22  77634.20
         Mo        10.201            3.547    674.22  77634.20
         S          3.856            3.128    251.62  12327.25
         S          3.856            3.128    251.62  12327.25
         S          3.859            3.128    251.62  12327.25
         S          4.723            3.128    251.62  12327.25
         Mo        10.208            3.547    674.22  77634.20
         Mo        10.221            3.547    674.22  77634.20
         S          3.858            3.128    251.62  12327.25
         S          3.859            3.128    251.62  12327.25
         S          3.758            3.128    251.62  12327.25
         S          3.859            3.128    251.62  12327.25
         Mo        10.220            3.547    674.22  77634.20
         Mo        10.244            3.547    674.22  77634.20
         S          3.862            3.128    251.62  12327.25
         S          3.860            3.128    251.62  12327.25
         S          3.859            3.128    251.62  12327.25
         S          3.766            3.128    251.62  12327.25
         Mo        10.208            3.547    674.22  77634.20
         Mo        10.220            3.547    674.22  77634.20
         S          3.858            3.128    251.62  12327.25
         S          3.859            3.128    251.62  12327.25
         S          3.758            3.128    251.62  12327.25
         S          3.859            3.128    251.62  12327.25
         Mo        10.220            3.547    674.22  77634.20
         Mo        10.230            3.547    674.22  77634.20
         S          3.862            3.128    251.62  12327.25
         S          3.860            3.128    251.62  12327.25
         S          3.859            3.128    251.62  12327.25
         S          3.765            3.128    251.62  12327.25
         Mo        10.208            3.547    674.22  77634.20
         Mo        10.221            3.547    674.22  77634.20
         S          3.858            3.128    251.62  12327.25
         S          3.859            3.128    251.62  12327.25
         S          3.758            3.128    251.62  12327.25
         S          3.859            3.128    251.62  12327.25
         Mo        10.220            3.547    674.22  77634.20
         Mo        10.244            3.547    674.22  77634.20
         S          3.847            3.128    251.62  12327.25
         S          3.860            3.128    251.62  12327.25
         S          3.859            3.128    251.62  12327.25
         S          3.805            3.128    251.62  12327.25
         Mo        10.208            3.547    674.22  77634.20
         Mo        10.221            3.547    674.22  77634.20
         S          3.858            3.128    251.62  12327.25
         S          3.859            3.128    251.62  12327.25
         S          3.758            3.128    251.62  12327.25
         S          3.859            3.128    251.62  12327.25
         Mo        10.220            3.547    674.22  77634.20
         Mo        10.234            3.547    674.22  77634.20
         S          3.847            3.128    251.62  12327.25
         S          3.861            3.128    251.62  12327.25
         S          3.859            3.128    251.62  12327.25
         S          3.806            3.128    251.62  12327.25
         Pd         4.000            3.168    531.81  48725.93
         Pt         3.873            3.168    692.72  72035.25

         Molecular C6 ( Ry / a.u.^6 ) =  13979851.79


     number of k points=     4  Gaussian smearing, width (Ry)=  0.0100
                       cart. coord. in units 2pi/alat
        k(    1) = (   0.0000000   0.0000000   0.0000000), wk =   0.5000000
        k(    2) = (   0.0000000  -0.5773499   0.0000000), wk =   0.5000000
        k(    3) = (  -0.5000000  -0.2886744   0.0000000), wk =   0.5000000
        k(    4) = (  -0.5000000  -0.8660242   0.0000000), wk =   0.5000000

     Dense  grid:  7154885 G-vectors     FFT dimensions: ( 180, 180, 512)

     Smooth grid:  3090769 G-vectors     FFT dimensions: ( 135, 135, 400)

     Estimated max dynamical RAM per process >       4.31 GB

     Estimated total dynamical RAM >     155.10 GB

     Atomic positions and unit cell read from directory:
     ./outdir/pwscf.save/
     Atomic positions from file used, from input discarded
 

     The initial density is read from file :
     ./outdir/pwscf.save/charge-density


     negative rho (up, down):  9.064E-04 0.000E+00
     Cannot read wfcs: file not found
     Starting wfcs are 1179 randomized atomic wfcs
     Checking if some PAW data can be deallocated... 

     total cpu time spent up to now is      176.9 secs

     Self-consistent Calculation

     iteration #  1     ecut=    77.00 Ry     beta= 0.20
     Davidson diagonalization with overlap
     c_bands:  2 eigenvalues not converged
     c_bands:  3 eigenvalues not converged
     c_bands:  4 eigenvalues not converged
     c_bands:  3 eigenvalues not converged
     ethr =  1.00E-05,  avg # of iterations =115.0

     negative rho (up, down):  8.392E-04 0.000E+00

     total cpu time spent up to now is    10414.6 secs

     total energy              =  -33980.28511187 Ry
     estimated scf accuracy    <       0.06994630 Ry

     iteration #  2     ecut=    77.00 Ry     beta= 0.20
     Davidson diagonalization with overlap
     c_bands:  2 eigenvalues not converged
     c_bands:  3 eigenvalues not converged
     c_bands:  3 eigenvalues not converged
     ethr =  4.08E-06,  avg # of iterations = 18.0

     negative rho (up, down):  8.015E-04 0.000E+00

     total cpu time spent up to now is    10919.3 secs

     total energy              =  -33980.28810277 Ry
     estimated scf accuracy    <       0.02700703 Ry

     iteration #  3     ecut=    77.00 Ry     beta= 0.20
     Davidson diagonalization with overlap
     c_bands:  4 eigenvalues not converged
     c_bands:  5 eigenvalues not converged
     c_bands:  5 eigenvalues not converged
     ethr =  1.58E-06,  avg # of iterations = 17.5

     negative rho (up, down):  7.822E-04 0.000E+00

     total cpu time spent up to now is    11489.3 secs

     total energy              =  -33980.29207737 Ry
     estimated scf accuracy    <       0.01098167 Ry

     iteration #  4     ecut=    77.00 Ry     beta= 0.20
     Davidson diagonalization with overlap
     c_bands:  5 eigenvalues not converged
     ethr =  6.41E-07,  avg # of iterations = 22.5

     negative rho (up, down):  8.054E-04 0.000E+00

     total cpu time spent up to now is    12334.2 secs

     total energy              =  -33980.29658121 Ry
     estimated scf accuracy    <       0.00269884 Ry

     iteration #  5     ecut=    77.00 Ry     beta= 0.20
     Davidson diagonalization with overlap
     ethr =  1.57E-07,  avg # of iterations = 13.5

     negative rho (up, down):  8.449E-04 0.000E+00

     total cpu time spent up to now is    13068.2 secs

     total energy              =  -33980.29777050 Ry
     estimated scf accuracy    <       0.00101482 Ry

     iteration #  6     ecut=    77.00 Ry     beta= 0.20
     Davidson diagonalization with overlap
     ethr =  5.92E-08,  avg # of iterations = 12.8

     negative rho (up, down):  8.583E-04 0.000E+00

     total cpu time spent up to now is    13747.2 secs

     total energy              =  -33980.29827738 Ry
     estimated scf accuracy    <       0.00029369 Ry

     iteration #  7     ecut=    77.00 Ry     beta= 0.20
     Davidson diagonalization with overlap
     ethr =  1.71E-08,  avg # of iterations = 12.0

     negative rho (up, down):  8.742E-04 0.000E+00

     total cpu time spent up to now is    14502.4 secs

     total energy              =  -33980.29842135 Ry
     estimated scf accuracy    <       0.00012259 Ry

     iteration #  8     ecut=    77.00 Ry     beta= 0.20
     Davidson diagonalization with overlap
     ethr =  7.15E-09,  avg # of iterations = 12.2

     negative rho (up, down):  8.879E-04 0.000E+00

     total cpu time spent up to now is    15190.3 secs

     total energy              =  -33980.29846549 Ry
     estimated scf accuracy    <       0.00003879 Ry

     iteration #  9     ecut=    77.00 Ry     beta= 0.20
     Davidson diagonalization with overlap
     ethr =  2.26E-09,  avg # of iterations = 13.8

     negative rho (up, down):  8.942E-04 0.000E+00

     total cpu time spent up to now is    15953.0 secs

     total energy              =  -33980.29848578 Ry
     estimated scf accuracy    <       0.00001384 Ry

     iteration # 10     ecut=    77.00 Ry     beta= 0.20
     Davidson diagonalization with overlap
     ethr =  8.07E-10,  avg # of iterations = 13.5

     negative rho (up, down):  8.984E-04 0.000E+00

     total cpu time spent up to now is    16736.5 secs

     total energy              =  -33980.29849105 Ry
     estimated scf accuracy    <       0.00000579 Ry

     iteration # 11     ecut=    77.00 Ry     beta= 0.20
     Davidson diagonalization with overlap
     ethr =  3.38E-10,  avg # of iterations = 14.5

     negative rho (up, down):  9.017E-04 0.000E+00

     total cpu time spent up to now is    17521.5 secs

     total energy              =  -33980.29849248 Ry
     estimated scf accuracy    <       0.00000205 Ry

     iteration # 12     ecut=    77.00 Ry     beta= 0.20
     Davidson diagonalization with overlap
     ethr =  1.19E-10,  avg # of iterations = 14.5

     negative rho (up, down):  9.063E-04 0.000E+00

     total cpu time spent up to now is    18273.4 secs

     End of self-consistent calculation

          k = 0.0000 0.0000 0.0000 (386245 PWs)   bands (ev):

  -102.9407 -88.7403 -71.2673 -71.2591 -71.2451 -71.2347 -71.2219 -71.2150
   -71.2043 -66.6477 -66.6477 -66.6465 -66.6444 -66.6310 -66.6266 -66.6265
   -66.6265 -66.6265 -66.6265 -66.6265 -66.6264 -66.6264 -66.6264 -66.6264
   -66.6263 -66.6263 -66.6261 -66.6252 -66.6252 -66.6252 -66.6252 -66.6252
   -66.6252 -66.6222 -66.6192 -66.6122 -66.6112 -66.6057 -66.6054 -66.6052
   -66.6052 -66.6052 -66.6051 -66.6051 -66.6051 -66.6051 -66.6051 -66.6050
   -66.6050 -66.6050 -66.6050 -66.6050 -66.6049 -66.6048 -66.6048 -66.6045
   -66.6038 -66.6038 -66.6038 -66.6038 -66.6038 -66.6038 -66.6038 -66.6037
   -66.6037 -66.6012 -66.5955 -66.5905 -66.5882 -66.5819 -66.5771 -66.5719
   -66.5680 -57.2467 -57.1366 -57.1080 -54.6213 -54.5127 -54.4706 -40.9752
   -40.9751 -40.9751 -40.9751 -40.9750 -40.9749 -40.9745 -40.9745 -40.9745
   -40.9658 -40.9627 -40.9606 -40.8999 -40.8998 -40.8998 -40.8998 -40.8998
   -40.8998 -40.8998 -40.8997 -40.8997 -40.8997 -40.8996 -40.8995 -40.8991
   -40.8991 -40.8991 -40.8991 -40.8991 -40.8991 -40.8949 -40.8909 -40.8851
   -40.8812 -40.8726 -40.8679 -40.8235 -40.8073 -40.8073 -40.8067 -40.8010
   -40.7801 -40.7772 -40.7736 -40.7735 -40.7735 -40.7735 -40.7734 -40.7734
   -40.7734 -40.7734 -40.7734 -40.7733 -40.7733 -40.7732 -40.7731 -40.7727
   -40.7727 -40.7727 -40.7727 -40.7727 -40.7726 -40.7692 -40.7681 -40.7659
   -40.7657 -40.7657 -40.7657 -40.7656 -40.7656 -40.7656 -40.7655 -40.7655
   -40.7655 -40.7655 -40.7653 -40.7651 -40.7650 -40.7650 -40.7650 -40.7650
   -40.7650 -40.7650 -40.7638 -40.7601 -40.7536 -40.7491 -40.7435 -40.7386
   -40.7385 -40.7384 -40.7384 -40.7384 -40.7384 -40.7384 -40.7384 -40.7384
   -40.7383 -40.7383 -40.7383 -40.7381 -40.7376 -40.7376 -40.7376 -40.7376
   -40.7376 -40.7376 -40.7357 -40.7346 -40.7328 -40.7285 -40.7260 -40.7239
   -40.7238 -40.7238 -40.7237 -40.7237 -40.7237 -40.7237 -40.7237 -40.7237
   -40.7236 -40.7236 -40.7235 -40.7235 -40.7235 -40.7235 -40.7235 -40.7234
   -40.7232 -40.7231 -40.7230 -40.7230 -40.7230 -40.7230 -40.7230 -40.7230
   -40.7229 -40.7229 -40.7229 -40.7215 -40.7196 -40.7175 -40.7110 -40.7090
   -40.7053 -40.7038 -40.7034 -40.6601 -40.6601 -40.6601 -40.6601 -40.6600
   -40.6599 -40.6592 -40.6592 -40.6592 -40.6495 -40.6441 -40.6418 -40.6131
   -40.6131 -40.6130 -40.6130 -40.6130 -40.6130 -40.6129 -40.6129 -40.6129
   -40.6128 -40.6127 -40.6126 -40.6120 -40.6120 -40.6120 -40.6120 -40.6120
   -40.6120 -40.5995 -40.5963 -40.5943 -40.5903 -40.5878 -40.5837 -40.5653
   -40.5653 -40.5653 -40.5653 -40.5644 -40.5644 -40.5430 -40.5351 -20.2074
   -20.1215 -20.0199 -19.9130 -19.6470 -19.3483 -19.3179 -19.2778 -19.2763
   -19.2718 -19.2611 -19.2548 -19.2509 -19.2256 -19.2222 -19.2105 -19.1748
   -19.1643 -19.1605 -19.1424 -19.1390 -19.1256 -19.0697 -19.0637 -19.0620
   -19.0560 -19.0547 -19.0489 -18.9337 -18.8306 -18.7692 -18.6550 -18.5922
   -18.5730 -18.5308 -18.5229 -18.5036 -18.4950 -18.4719 -18.4549 -18.4412
   -18.4298 -18.4154 -18.3893 -18.3597 -18.3494 -18.3087 -18.3068 -18.2981
   -18.2769 -18.2671 -18.2640 -18.2116 -18.2080 -18.2058 -18.1983 -18.1977
   -18.1966 -18.1586 -18.1494 -18.1455 -18.1449 -18.1432 -18.1426 -18.1402
   -18.1261 -18.1153 -18.1121 -18.1092 -18.1066 -18.1045 -18.1002 -18.0998
   -18.0981 -18.0880 -18.0748 -18.0747 -18.0725 -18.0708 -18.0670 -18.0582
   -18.0541 -18.0515 -18.0403 -18.0346 -18.0280 -18.0278 -18.0239 -18.0226
   -18.0128 -18.0107 -18.0085 -17.9819 -17.9731 -17.9696 -17.9578 -17.9465
   -17.9450 -17.9411 -17.9405 -17.9402 -17.9212 -17.9171 -17.9143 -17.9051
   -17.9006 -17.8951 -17.8927 -17.8894 -17.8884 -17.8828 -17.8806 -17.8801
   -17.8647 -17.8641 -17.8635 -17.8539 -17.8524 -17.8493 -17.8462 -17.8448
   -17.8436 -17.8207 -17.8205 -17.8194 -17.8187 -17.8177 -17.8172 -12.2124
   -12.0439 -11.9830 -11.9032 -11.8373 -11.8221 -11.8088 -11.8025 -11.7081
   -11.7008 -11.6890 -11.6042 -11.5835 -11.5769 -11.5639 -11.4365 -11.3872
   -11.3683 -11.2930 -11.2678 -11.2630 -11.2611 -11.2605 -11.2555 -11.2180
   -11.1930 -11.1700 -11.1609 -11.1554 -11.1523 -11.1512 -11.1460 -11.1433
   -11.1195 -11.1001 -11.0949 -11.0928 -11.0852 -11.0841 -11.0799 -11.0749
   -11.0714 -11.0684 -11.0541 -11.0467 -11.0357 -11.0053 -10.9939 -10.9843
   -10.9729 -10.9668 -10.9574 -10.9418 -10.9300 -10.9215 -10.9151 -10.9111
   -10.9022 -10.8983 -10.8896 -10.8753 -10.8733 -10.8681 -10.8654 -10.8579
   -10.8540 -10.8534 -10.8518 -10.8509 -10.8462 -10.8386 -10.8314 -10.8303
   -10.8295 -10.8285 -10.8260 -10.8057 -10.8041 -10.8019 -10.7992 -10.7984
   -10.7941 -10.7904 -10.7808 -10.7785 -10.7614 -10.7610 -10.7603 -10.7601
   -10.7573 -10.7563 -10.7005 -10.6872 -10.6818 -10.6491 -10.6248 -10.6172
   -10.6111 -10.6030 -10.6004 -10.5831 -10.4788 -10.3148 -10.2023 -10.1949
   -10.1577 -10.1329  -9.9929  -9.9827  -9.9562  -9.9315  -9.8561  -9.8437
    -9.8341  -9.8253  -9.8197  -9.8168  -9.8010  -9.7981  -9.7960  -9.7935
    -9.7910  -9.7875  -9.7848  -9.7819  -9.7749  -9.7728  -9.7706  -9.7628
    -9.7568  -9.7505  -9.7351  -9.7065  -9.6988  -9.6653  -9.6566  -9.6529
    -9.6517  -9.6503  -9.6465  -9.6420  -9.6419  -9.6407  -9.6403  -9.6382
    -9.6368  -9.6299  -9.6256  -9.6004  -9.5770  -9.5652  -9.5650  -9.5648
    -9.5643  -9.5643  -9.5638  -9.5610  -9.5583  -9.5427  -9.5420  -9.5288
    -9.5226  -9.5007  -9.4962  -9.4779  -9.4714  -9.4370  -9.3894  -9.3858
    -9.3840  -9.3796  -9.3723  -9.3663  -9.3559  -9.3548  -9.3458  -9.3360
    -9.3318  -9.3233  -9.2846  -9.2741  -9.2690  -9.2580  -9.2465  -9.2378
    -9.2227  -9.2129  -9.2087  -9.2053  -9.2023  -9.2011  -9.1987  -9.1942
    -9.1593  -9.1532  -9.1421  -9.1275  -9.1249  -9.0910  -9.0813  -9.0332
    -9.0062  -9.0055  -9.0026  -8.9844  -8.9819  -8.9788  -8.9745  -8.9711
    -8.9626  -8.9549  -8.9405  -8.9403  -8.9389  -8.9322  -8.9249  -8.9224
    -8.9120  -8.9052  -8.8955  -8.8448  -8.8447  -8.8443  -8.8442  -8.8440
    -8.8436  -8.7889  -8.7809  -8.7766  -8.7674  -8.7595  -8.7532  -8.7397
    -8.6970  -8.6913  -8.6895  -8.6857  -8.6781  -8.6727  -8.6231  -8.6196
    -8.6160  -8.6151  -8.6131  -8.6115  -8.5846  -8.5525  -8.4753  -8.4083
    -8.3994  -8.3897  -8.3897  -8.3849  -8.3848  -8.3786  -8.3783  -8.3719
    -8.3652  -8.3311  -8.3038  -8.2996  -8.2990  -8.2989  -8.2987  -8.2971
    -8.2866  -8.2745  -8.2726  -8.2721  -8.2717  -8.2694  -8.2631  -8.2474
    -8.2446  -8.2440  -8.2439  -8.2429  -8.2413  -8.2294  -8.1988  -8.1176
    -8.0084  -7.9591  -7.8881  -7.8826  -7.8808  -7.8317  -7.8068  -7.7988
    -7.7904  -7.7595  -7.7287  -7.7273  -7.6819  -7.6702  -7.6678  -7.6580
    -7.6518  -7.6499  -7.6435  -7.6398  -7.6236  -7.6202  -7.6118  -7.5929
    -7.5838  -7.5752  -7.5671  -7.5612  -7.5578  -7.5577  -7.5573  -7.5567
    -7.5540  -7.5407  -7.5341  -7.5315  -7.5305  -7.5300  -7.5283  -7.5208
    -7.5173  -7.5136  -7.5058  -7.5055  -7.5051  -7.5047  -7.5045  -7.4998
    -7.4899  -7.4708  -7.4577  -7.4488  -7.4449  -7.4430  -7.4396  -7.4325
    -7.4305  -7.4234  -7.3956  -7.3851  -7.3733  -7.3630  -7.3512  -7.3488
    -7.3333  -7.3312  -7.3212  -7.3183  -7.3128  -7.3114  -7.3062  -7.3051
    -7.2764  -7.2737  -7.2703  -7.2552  -7.2543  -7.2370  -7.2368  -7.2267
    -7.2038  -7.1753  -7.1528  -7.1338  -7.1193  -7.1069  -7.0827  -7.0141
    -7.0061  -6.9590  -6.9079  -6.8927  -6.8817  -6.8746  -6.8592  -6.8288
    -6.8031  -6.8018  -6.8006  -6.7713  -6.7384  -6.7230  -6.7221  -6.7196
    -6.7021  -6.6835  -6.6553  -6.6526  -6.6464  -6.6445  -6.6399  -6.6336
    -6.6094  -6.5992  -6.5953  -6.5873  -6.5778  -6.5649  -6.5631  -6.5416
    -6.5398  -6.5379  -6.5363  -6.5331  -6.5316  -6.5301  -6.5297  -6.5289
    -6.5209  -6.5205  -6.5204  -6.5204  -6.5203  -6.5199  -6.5010  -6.4899
    -6.4801  -6.4631  -6.4606  -6.4445  -6.4343  -6.4322  -6.4288  -6.4142
    -6.3838  -6.3772  -6.3667  -6.3572  -6.3564  -6.3534  -6.3518  -6.3490
    -6.3423  -6.3241  -6.3197  -6.3132  -6.3116  -6.3089  -6.3052  -6.2915
    -6.2818  -6.2767  -6.2756  -6.2746  -6.2737  -6.2696  -6.2596  -6.2346
    -6.0721  -5.9947  -5.9392  -5.7016  -5.6195  -5.5389  -5.4054  -5.3246
    -5.1712  -4.2633  -3.9236  -3.8742  -3.8737  -3.8719  -3.8697  -3.8534
    -3.8517  -3.8499  -3.8480  -3.8464  -3.8450  -3.8260  -3.7807  -3.7251
    -3.7195  -3.7171  -3.7109  -3.7078  -3.7029  -3.7001  -3.6984  -3.6976
    -3.6972  -3.6042  -3.5661  -3.5407  -3.5356  -3.5323  -3.5218  -3.5152
    -3.5109  -3.5024  -3.4977  -3.4946  -3.4938  -3.4917  -3.4871  -3.4821
    -3.4789  -3.4732  -3.4693  -3.4655  -3.4653  -3.4650  -3.4609  -3.4526
    -3.4502  -3.4495  -3.4425  -3.4403  -3.4331  -3.4323  -3.4301  -3.4272
    -3.4238  -3.4233  -3.4156  -3.4114  -3.4078  -3.3836  -3.3762  -3.3714
    -3.3698  -3.3685  -3.3673  -3.3665  -3.3615  -3.3576  -3.3462  -3.3363
    -3.3263  -3.3164  -3.3110  -3.3074  -3.3015  -3.2981  -3.2853  -3.2814
    -3.2479  -3.2336  -3.2297  -3.2215  -3.2167  -3.1224  -3.1036  -3.0921
    -3.0862  -3.0851  -3.0827  -3.0758  -3.0691  -3.0666  -3.0644  -3.0376
    -3.0237  -3.0159  -3.0018  -3.0006  -2.9967  -2.9960  -2.9947  -2.9937
    -2.9890  -2.9865  -2.9855  -2.9855  -2.9770  -2.9765  -2.9742  -2.9710
    -2.9627  -2.9612  -2.9581  -2.9567  -2.9562  -2.9543  -2.9535  -2.9529
    -2.9519  -2.9439  -2.9428  -2.9302  -2.9106  -2.9072  -2.8997  -2.8912
    -2.8907  -2.8833  -2.8752  -2.8681  -2.8289  -2.8286  -2.8284  -2.8282
    -2.8278  -2.8277  -2.8276  -2.8269  -2.8257  -2.8097  -2.8076  -2.7966
    -2.7796  -2.7747  -2.7595  -2.7539  -2.7489  -2.7412  -2.7374  -2.6914
    -2.6875  -2.6622  -2.6602  -2.6571  -2.6477  -2.6461  -2.6433  -2.6401
    -2.6389  -2.6120  -2.5876  -2.5797  -2.5650  -2.5581  -2.5552  -2.4869
    -2.4839  -2.4746  -2.4541  -2.4527

          k = 0.0000-0.5773 0.0000 (386352 PWs)   bands (ev):

  -102.9407 -88.7403 -71.2673 -71.2591 -71.2451 -71.2347 -71.2219 -71.2150
   -71.2043 -66.6416 -66.6415 -66.6415 -66.6414 -66.6413 -66.6403 -66.6403
   -66.6376 -66.6309 -66.6309 -66.6308 -66.6308 -66.6296 -66.6296 -66.6238
   -66.6209 -66.6174 -66.6158 -66.6158 -66.6158 -66.6158 -66.6157 -66.6157
   -66.6157 -66.6156 -66.6152 -66.6145 -66.6145 -66.6145 -66.6145 -66.6117
   -66.6114 -66.6113 -66.6113 -66.6112 -66.6101 -66.6100 -66.6051 -66.6051
   -66.6051 -66.6051 -66.6050 -66.6050 -66.6049 -66.6048 -66.6038 -66.6038
   -66.6038 -66.6038 -66.6031 -66.6013 -66.6006 -66.6006 -66.6006 -66.6005
   -66.5993 -66.5993 -66.5963 -66.5903 -66.5886 -66.5821 -66.5768 -66.5726
   -66.5676 -57.2467 -57.1366 -57.1080 -54.6213 -54.5127 -54.4706 -40.9436
   -40.9435 -40.9435 -40.9435 -40.9434 -40.9434 -40.9434 -40.9433 -40.9432
   -40.9429 -40.9429 -40.9428 -40.9428 -40.9353 -40.9305 -40.9167 -40.9167
   -40.9166 -40.9165 -40.9163 -40.9160 -40.9160 -40.9135 -40.9075 -40.9046
   -40.9046 -40.9046 -40.9045 -40.9040 -40.9040 -40.8856 -40.8676 -40.8539
   -40.8539 -40.8539 -40.8539 -40.8539 -40.8539 -40.8538 -40.8538 -40.8532
   -40.8532 -40.8532 -40.8532 -40.8398 -40.8352 -40.8311 -40.8255 -40.8199
   -40.8029 -40.7952 -40.7952 -40.7951 -40.7950 -40.7945 -40.7945 -40.7896
   -40.7856 -40.7856 -40.7856 -40.7855 -40.7848 -40.7848 -40.7805 -40.7743
   -40.7743 -40.7742 -40.7742 -40.7737 -40.7737 -40.7714 -40.7669 -40.7632
   -40.7539 -40.7514 -40.7476 -40.7447 -40.7447 -40.7447 -40.7447 -40.7446
   -40.7446 -40.7446 -40.7445 -40.7440 -40.7440 -40.7440 -40.7440 -40.7407
   -40.7360 -40.7360 -40.7359 -40.7358 -40.7353 -40.7353 -40.7342 -40.7313
   -40.7256 -40.7242 -40.7241 -40.7241 -40.7240 -40.7237 -40.7237 -40.7237
   -40.7236 -40.7236 -40.7236 -40.7235 -40.7233 -40.7233 -40.7233 -40.7230
   -40.7229 -40.7229 -40.7229 -40.7205 -40.7165 -40.7149 -40.7149 -40.7149
   -40.7149 -40.7143 -40.7143 -40.7128 -40.7122 -40.7052 -40.7021 -40.6933
   -40.6933 -40.6932 -40.6932 -40.6932 -40.6931 -40.6931 -40.6930 -40.6923
   -40.6923 -40.6923 -40.6923 -40.6811 -40.6800 -40.6762 -40.6733 -40.6585
   -40.6585 -40.6585 -40.6585 -40.6584 -40.6584 -40.6584 -40.6584 -40.6576
   -40.6576 -40.6576 -40.6576 -40.6464 -40.6463 -40.6463 -40.6462 -40.6454
   -40.6454 -40.6445 -40.6406 -40.6370 -40.6353 -40.6320 -40.6271 -40.6270
   -40.6269 -40.6269 -40.6261 -40.6261 -40.6148 -40.6121 -40.6100 -40.6100
   -40.6100 -40.6099 -40.6091 -40.6091 -40.6030 -40.5861 -40.5794 -40.5793
   -40.5793 -40.5793 -40.5784 -40.5784 -40.5773 -40.5654 -40.5468 -20.0736
   -19.9139 -19.8912 -19.8566 -19.7937 -19.7643 -19.6838 -19.6712 -19.5505
   -19.4870 -19.4535 -19.4355 -19.3632 -19.3447 -19.2591 -19.2485 -19.1377
   -18.9045 -18.8265 -18.8038 -18.7718 -18.7637 -18.7472 -18.7431 -18.7386
   -18.7323 -18.7076 -18.6864 -18.6760 -18.6690 -18.6595 -18.6457 -18.6168
   -18.6045 -18.5953 -18.5772 -18.5740 -18.5699 -18.5540 -18.5454 -18.5347
   -18.5045 -18.5008 -18.4996 -18.4918 -18.4601 -18.4353 -18.4320 -18.4260
   -18.4008 -18.3935 -18.3846 -18.3573 -18.3433 -18.3407 -18.3174 -18.2761
   -18.2718 -18.2678 -18.2567 -18.2230 -18.2167 -18.2004 -18.1864 -18.1579
   -18.1442 -18.1414 -18.1353 -18.1257 -18.1237 -18.1207 -18.1201 -18.1076
   -18.0967 -18.0954 -18.0928 -18.0885 -18.0878 -18.0776 -18.0758 -18.0720
   -18.0656 -18.0622 -18.0525 -18.0323 -18.0320 -18.0268 -18.0239 -18.0219
   -18.0195 -18.0170 -18.0116 -18.0102 -18.0002 -17.9721 -17.9666 -17.9593
   -17.9569 -17.9516 -17.9435 -17.9154 -17.9124 -17.9057 -17.8984 -17.8738
   -17.8704 -17.8668 -17.8628 -17.8579 -17.8482 -17.8418 -17.8415 -17.8412
   -17.8404 -17.8394 -17.8384 -17.8269 -17.8260 -17.8078 -17.8058 -17.7837
   -17.7817 -17.7646 -17.7618 -17.7497 -17.7479 -17.7418 -17.7416 -12.1178
   -11.9037 -11.7581 -11.7472 -11.7265 -11.6170 -11.5621 -11.5432 -11.5227
   -11.5222 -11.5157 -11.5046 -11.4997 -11.4916 -11.4810 -11.4300 -11.4253
   -11.4090 -11.4064 -11.3995 -11.3830 -11.3572 -11.3470 -11.3433 -11.3196
   -11.3057 -11.3010 -11.2958 -11.2875 -11.2834 -11.2816 -11.2752 -11.2714
   -11.2343 -11.2265 -11.2169 -11.2157 -11.2092 -11.1958 -11.1905 -11.1899
   -11.1833 -11.1697 -11.1684 -11.1617 -11.1406 -11.1196 -11.1115 -11.0995
   -11.0863 -11.0820 -11.0397 -11.0109 -10.9977 -10.9738 -10.9637 -10.9545
   -10.9395 -10.9321 -10.9305 -10.9134 -10.8833 -10.8702 -10.8612 -10.8570
   -10.8509 -10.8424 -10.8360 -10.8343 -10.8339 -10.8323 -10.8299 -10.8250
   -10.8227 -10.8179 -10.8171 -10.8148 -10.8139 -10.8073 -10.8062 -10.8037
   -10.7994 -10.7673 -10.7661 -10.7653 -10.7647 -10.7301 -10.6415 -10.5848
   -10.5656 -10.5517 -10.5500 -10.5299 -10.5047 -10.4550 -10.4210 -10.3707
   -10.3134 -10.2769 -10.2361 -10.1836 -10.1684 -10.1568 -10.1542 -10.1349
   -10.1311 -10.1137 -10.1083 -10.0789 -10.0742 -10.0579 -10.0567 -10.0558
   -10.0499 -10.0416 -10.0324 -10.0048  -9.9964  -9.9571  -9.9539  -9.9505
    -9.9370  -9.9323  -9.9207  -9.9146  -9.9085  -9.8896  -9.8807  -9.8712
    -9.8679  -9.8348  -9.8187  -9.8068  -9.8004  -9.7900  -9.7862  -9.7616
    -9.7560  -9.7337  -9.7233  -9.7076  -9.7058  -9.6777  -9.6773  -9.6461
    -9.6409  -9.6394  -9.6289  -9.6087  -9.5925  -9.5824  -9.5786  -9.5635
    -9.5570  -9.5553  -9.5492  -9.5177  -9.5131  -9.5100  -9.4957  -9.4950
    -9.4896  -9.4861  -9.4809  -9.4769  -9.4652  -9.4560  -9.4477  -9.4146
    -9.4018  -9.3815  -9.3680  -9.3201  -9.3058  -9.2917  -9.2482  -9.2377
    -9.2323  -9.2257  -9.2180  -9.2115  -9.1937  -9.1803  -9.1709  -9.1578
    -9.1484  -9.1421  -9.1320  -9.1067  -9.0874  -9.0790  -9.0689  -9.0637
    -9.0615  -9.0553  -9.0495  -9.0177  -9.0144  -9.0032  -8.9923  -8.9782
    -8.9713  -8.9679  -8.9597  -8.9504  -8.9348  -8.9232  -8.9131  -8.9108
    -8.9091  -8.9084  -8.9044  -8.8990  -8.8932  -8.8913  -8.8886  -8.8842
    -8.8804  -8.8798  -8.8742  -8.8672  -8.8623  -8.8619  -8.8519  -8.8379
    -8.8321  -8.8150  -8.8137  -8.8121  -8.8092  -8.8066  -8.8048  -8.7854
    -8.7837  -8.7612  -8.7594  -8.7549  -8.7525  -8.7493  -8.7375  -8.7216
    -8.6789  -8.6732  -8.6640  -8.6370  -8.6151  -8.5296  -8.5265  -8.5166
    -8.4788  -8.4632  -8.4400  -8.4174  -8.3795  -8.3682  -8.3349  -8.3016
    -8.2720  -8.2426  -8.1807  -8.1498  -8.1498  -8.1409  -8.1408  -8.1297
    -8.1295  -8.1153  -8.0901  -8.0723  -8.0585  -7.9989  -7.9972  -7.9816
    -7.9763  -7.9339  -7.8937  -7.8692  -7.8663  -7.8644  -7.8605  -7.8521
    -7.8416  -7.8377  -7.8338  -7.8264  -7.8244  -7.8242  -7.8184  -7.8173
    -7.8164  -7.8100  -7.8050  -7.8035  -7.7998  -7.7957  -7.7916  -7.7903
    -7.7878  -7.7871  -7.7852  -7.7819  -7.7805  -7.7798  -7.7714  -7.7638
    -7.7588  -7.7515  -7.7502  -7.7465  -7.7415  -7.7194  -7.7186  -7.7183
    -7.7176  -7.6918  -7.6890  -7.6884  -7.6869  -7.6838  -7.6788  -7.6761
    -7.6673  -7.6518  -7.6387  -7.6336  -7.6304  -7.6296  -7.6261  -7.6234
    -7.6189  -7.6081  -7.6053  -7.6025  -7.5863  -7.5856  -7.5814  -7.5744
    -7.5692  -7.5647  -7.5359  -7.4957  -7.4827  -7.4791  -7.4763  -7.4713
    -7.4320  -7.4073  -7.3279  -7.2839  -7.2427  -7.1994  -7.1947  -7.1911
    -7.1855  -7.1723  -7.1570  -7.1452  -7.1392  -7.1267  -7.1224  -7.0920
    -7.0847  -7.0747  -7.0677  -7.0472  -7.0442  -7.0322  -7.0255  -7.0102
    -6.9993  -6.9971  -6.9644  -6.9402  -6.9378  -6.9197  -6.9125  -6.9040
    -6.8942  -6.8824  -6.8794  -6.8720  -6.8565  -6.8414  -6.8015  -6.7930
    -6.7822  -6.7657  -6.7628  -6.7108  -6.7039  -6.6753  -6.6714  -6.6536
    -6.6452  -6.6375  -6.6292  -6.6276  -6.6262  -6.6250  -6.6126  -6.6099
    -6.6091  -6.6085  -6.6018  -6.6011  -6.6009  -6.6008  -6.5922  -6.5709
    -6.5646  -6.5336  -6.5212  -6.4873  -6.4557  -6.4365  -6.4094  -6.3492
    -6.3455  -6.3417  -6.3392  -6.3262  -6.3214  -6.3009  -6.2994  -6.2990
    -6.2962  -6.2946  -6.2939  -6.2788  -6.2748  -6.2731  -6.2643  -6.2497
    -6.2365  -6.2271  -6.2260  -6.2187  -6.2168  -6.1104  -6.0906  -6.0254
    -6.0103  -5.9921  -5.9769  -5.9464  -5.9329  -5.8838  -5.8765  -5.8657
    -5.8313  -5.8023  -5.7182  -5.7046  -5.6236  -5.6210  -5.5783  -5.4150
    -5.3965  -4.2967  -4.1162  -4.1140  -4.1108  -4.0847  -3.9708  -3.9490
    -3.9449  -3.9402  -3.9344  -3.8843  -3.8653  -3.8626  -3.8522  -3.8461
    -3.8346  -3.8299  -3.8204  -3.8192  -3.8158  -3.7637  -3.7303  -3.7112
    -3.7084  -3.6636  -3.6371  -3.6253  -3.6224  -3.6199  -3.6182  -3.5772
    -3.5731  -3.5718  -3.5649  -3.5446  -3.5437  -3.5379  -3.5316  -3.5259
    -3.5166  -3.5049  -3.5035  -3.4975  -3.4938  -3.4922  -3.4870  -3.4792
    -3.4694  -3.4647  -3.4556  -3.4465  -3.4399  -3.4355  -3.4265  -3.3986
    -3.3890  -3.3769  -3.3695  -3.3688  -3.3666  -3.3642  -3.3625  -3.3568
    -3.3313  -3.3237  -3.3173  -3.3130  -3.3080  -3.3022  -3.3000  -3.2968
    -3.2961  -3.2920  -3.2764  -3.2711  -3.2643  -3.2557  -3.2535  -3.2521
    -3.2391  -3.2359  -3.2321  -3.2296  -3.2252  -3.2143  -3.2038  -3.2011
    -3.1950  -3.1899  -3.1829  -3.1825  -3.1822  -3.1710  -3.1611  -3.1378
    -3.1259  -3.1138  -3.0982  -3.0914  -3.0872  -3.0865  -3.0809  -3.0486
    -3.0456  -3.0441  -3.0425  -3.0417  -3.0407  -3.0345  -3.0307  -3.0305
    -3.0279  -3.0251  -3.0200  -3.0102  -3.0084  -3.0060  -2.9990  -2.9976
    -2.9942  -2.9911  -2.9894  -2.9807  -2.9797  -2.9691  -2.9676  -2.9643
    -2.9625  -2.9545  -2.9509  -2.9425  -2.9393  -2.9252  -2.9162  -2.9088
    -2.9054  -2.8996  -2.8942  -2.8932  -2.8691  -2.8187  -2.8176  -2.8104
    -2.8056  -2.7710  -2.7562  -2.7375  -2.7306  -2.6414  -2.6310  -2.6118
    -2.5996  -2.5895  -2.5732  -2.5716  -2.5609  -2.5564  -2.5492  -2.5480
    -2.5459  -2.5392  -2.5375  -2.4508  -2.4308  -2.4202  -2.4113  -2.4086
    -2.3954  -2.3915  -2.3628  -2.3617

          k =-0.5000-0.2887 0.0000 (386352 PWs)   bands (ev):

  -102.9407 -88.7403 -71.2673 -71.2591 -71.2451 -71.2347 -71.2219 -71.2150
   -71.2043 -66.6429 -66.6415 -66.6415 -66.6415 -66.6414 -66.6403 -66.6403
   -66.6332 -66.6309 -66.6309 -66.6308 -66.6308 -66.6296 -66.6296 -66.6267
   -66.6241 -66.6174 -66.6160 -66.6159 -66.6158 -66.6158 -66.6157 -66.6157
   -66.6155 -66.6154 -66.6145 -66.6145 -66.6145 -66.6145 -66.6116 -66.6114
   -66.6113 -66.6113 -66.6112 -66.6101 -66.6100 -66.6097 -66.6054 -66.6051
   -66.6051 -66.6050 -66.6050 -66.6050 -66.6049 -66.6048 -66.6047 -66.6038
   -66.6038 -66.6038 -66.6038 -66.6016 -66.6006 -66.6006 -66.6006 -66.6005
   -66.5993 -66.5993 -66.5960 -66.5905 -66.5888 -66.5819 -66.5770 -66.5722
   -66.5677 -57.2467 -57.1366 -57.1080 -54.6213 -54.5127 -54.4706 -40.9516
   -40.9436 -40.9435 -40.9435 -40.9435 -40.9435 -40.9434 -40.9433 -40.9433
   -40.9429 -40.9429 -40.9429 -40.9428 -40.9353 -40.9228 -40.9175 -40.9167
   -40.9167 -40.9166 -40.9165 -40.9160 -40.9160 -40.9046 -40.9046 -40.9046
   -40.9045 -40.9042 -40.9040 -40.9040 -40.8992 -40.8896 -40.8783 -40.8539
   -40.8539 -40.8539 -40.8539 -40.8539 -40.8539 -40.8538 -40.8538 -40.8532
   -40.8532 -40.8532 -40.8532 -40.8432 -40.8375 -40.8349 -40.8238 -40.8199
   -40.8028 -40.7952 -40.7951 -40.7951 -40.7950 -40.7945 -40.7945 -40.7897
   -40.7856 -40.7856 -40.7856 -40.7856 -40.7848 -40.7848 -40.7801 -40.7743
   -40.7743 -40.7742 -40.7742 -40.7737 -40.7737 -40.7677 -40.7669 -40.7613
   -40.7575 -40.7505 -40.7453 -40.7448 -40.7448 -40.7447 -40.7447 -40.7446
   -40.7446 -40.7444 -40.7444 -40.7440 -40.7440 -40.7440 -40.7440 -40.7394
   -40.7360 -40.7359 -40.7359 -40.7358 -40.7353 -40.7353 -40.7353 -40.7292
   -40.7274 -40.7242 -40.7241 -40.7241 -40.7241 -40.7239 -40.7237 -40.7237
   -40.7236 -40.7236 -40.7236 -40.7236 -40.7233 -40.7233 -40.7232 -40.7230
   -40.7229 -40.7229 -40.7229 -40.7201 -40.7188 -40.7149 -40.7149 -40.7149
   -40.7149 -40.7143 -40.7143 -40.7109 -40.7105 -40.7025 -40.7021 -40.6935
   -40.6933 -40.6932 -40.6932 -40.6932 -40.6931 -40.6930 -40.6930 -40.6923
   -40.6923 -40.6923 -40.6923 -40.6864 -40.6829 -40.6716 -40.6658 -40.6585
   -40.6585 -40.6585 -40.6585 -40.6585 -40.6584 -40.6584 -40.6584 -40.6576
   -40.6576 -40.6576 -40.6576 -40.6468 -40.6463 -40.6463 -40.6463 -40.6462
   -40.6454 -40.6454 -40.6440 -40.6368 -40.6344 -40.6309 -40.6272 -40.6270
   -40.6270 -40.6267 -40.6261 -40.6261 -40.6130 -40.6106 -40.6100 -40.6100
   -40.6100 -40.6099 -40.6091 -40.6091 -40.6056 -40.5919 -40.5817 -40.5794
   -40.5793 -40.5793 -40.5792 -40.5784 -40.5784 -40.5660 -40.5405 -20.0755
   -19.9134 -19.8912 -19.8550 -19.7933 -19.7626 -19.6835 -19.6706 -19.5480
   -19.4903 -19.4534 -19.4373 -19.3630 -19.3458 -19.2591 -19.2489 -19.1460
   -18.8880 -18.8305 -18.7962 -18.7824 -18.7633 -18.7470 -18.7432 -18.7397
   -18.7312 -18.7114 -18.6843 -18.6756 -18.6648 -18.6642 -18.6464 -18.6097
   -18.6077 -18.5920 -18.5764 -18.5707 -18.5696 -18.5625 -18.5442 -18.5195
   -18.5108 -18.5065 -18.5004 -18.4906 -18.4584 -18.4348 -18.4320 -18.4219
   -18.4132 -18.3959 -18.3818 -18.3549 -18.3423 -18.3368 -18.3325 -18.2845
   -18.2689 -18.2598 -18.2547 -18.2280 -18.2162 -18.1930 -18.1874 -18.1697
   -18.1466 -18.1391 -18.1329 -18.1247 -18.1242 -18.1215 -18.1197 -18.0979
   -18.0970 -18.0961 -18.0930 -18.0899 -18.0878 -18.0826 -18.0714 -18.0707
   -18.0636 -18.0576 -18.0549 -18.0353 -18.0300 -18.0253 -18.0226 -18.0223
   -18.0198 -18.0158 -18.0126 -18.0090 -17.9990 -17.9791 -17.9621 -17.9590
   -17.9555 -17.9489 -17.9453 -17.9184 -17.9108 -17.9019 -17.9002 -17.8739
   -17.8726 -17.8639 -17.8631 -17.8561 -17.8550 -17.8426 -17.8415 -17.8405
   -17.8403 -17.8395 -17.8389 -17.8274 -17.8258 -17.8082 -17.8054 -17.7837
   -17.7816 -17.7646 -17.7620 -17.7497 -17.7483 -17.7418 -17.7417 -12.1378
   -11.9271 -11.7474 -11.7451 -11.6837 -11.6020 -11.5441 -11.5412 -11.5247
   -11.5226 -11.5082 -11.5055 -11.4943 -11.4767 -11.4718 -11.4456 -11.4262
   -11.4181 -11.4140 -11.3821 -11.3704 -11.3616 -11.3585 -11.3397 -11.3226
   -11.3170 -11.3117 -11.2980 -11.2865 -11.2828 -11.2824 -11.2770 -11.2725
   -11.2328 -11.2295 -11.2192 -11.2181 -11.2003 -11.1946 -11.1926 -11.1909
   -11.1793 -11.1732 -11.1686 -11.1599 -11.1449 -11.1303 -11.1141 -11.0943
   -11.0896 -11.0724 -11.0481 -11.0264 -11.0037 -10.9711 -10.9686 -10.9562
   -10.9485 -10.9224 -10.9185 -10.9097 -10.8907 -10.8754 -10.8600 -10.8541
   -10.8538 -10.8474 -10.8387 -10.8345 -10.8340 -10.8330 -10.8328 -10.8244
   -10.8195 -10.8180 -10.8178 -10.8140 -10.8137 -10.8085 -10.8062 -10.8027
   -10.7952 -10.7817 -10.7659 -10.7652 -10.7647 -10.7633 -10.6574 -10.5709
   -10.5583 -10.5537 -10.5521 -10.5185 -10.4967 -10.4429 -10.4105 -10.3524
   -10.2894 -10.2733 -10.2288 -10.2053 -10.1791 -10.1662 -10.1436 -10.1392
   -10.1275 -10.1194 -10.0871 -10.0797 -10.0754 -10.0646 -10.0600 -10.0516
   -10.0472 -10.0412 -10.0325 -10.0240 -10.0018  -9.9659  -9.9644  -9.9431
    -9.9400  -9.9357  -9.9284  -9.9226  -9.9156  -9.9017  -9.8887  -9.8719
    -9.8475  -9.8407  -9.8226  -9.8179  -9.8008  -9.7960  -9.7838  -9.7685
    -9.7493  -9.7473  -9.7281  -9.7187  -9.6963  -9.6838  -9.6824  -9.6508
    -9.6468  -9.6374  -9.6268  -9.6016  -9.5842  -9.5761  -9.5730  -9.5670
    -9.5606  -9.5564  -9.5367  -9.5146  -9.5109  -9.5059  -9.4999  -9.4973
    -9.4843  -9.4805  -9.4791  -9.4608  -9.4567  -9.4510  -9.4484  -9.4008
    -9.3887  -9.3589  -9.3466  -9.3254  -9.3165  -9.2881  -9.2419  -9.2380
    -9.2321  -9.2273  -9.2145  -9.2042  -9.1940  -9.1783  -9.1721  -9.1584
    -9.1521  -9.1449  -9.1266  -9.1129  -9.0911  -9.0814  -9.0774  -9.0621
    -9.0611  -9.0527  -9.0464  -9.0280  -9.0265  -9.0020  -8.9817  -8.9795
    -8.9735  -8.9696  -8.9636  -8.9442  -8.9334  -8.9197  -8.9139  -8.9099
    -8.9092  -8.9052  -8.9049  -8.9017  -8.8992  -8.8945  -8.8913  -8.8896
    -8.8799  -8.8729  -8.8684  -8.8657  -8.8624  -8.8614  -8.8454  -8.8438
    -8.8350  -8.8157  -8.8141  -8.8135  -8.8077  -8.8048  -8.8039  -8.7856
    -8.7815  -8.7579  -8.7558  -8.7541  -8.7507  -8.7494  -8.7345  -8.7247
    -8.6800  -8.6753  -8.6565  -8.6483  -8.6076  -8.5264  -8.5252  -8.5008
    -8.4775  -8.4685  -8.4622  -8.3912  -8.3779  -8.3519  -8.3310  -8.3230
    -8.2912  -8.2660  -8.1556  -8.1498  -8.1490  -8.1469  -8.1407  -8.1390
    -8.1294  -8.1286  -8.1002  -8.0757  -8.0689  -8.0452  -7.9970  -7.9901
    -7.9724  -7.9301  -7.9159  -7.8661  -7.8634  -7.8589  -7.8519  -7.8443
    -7.8407  -7.8359  -7.8278  -7.8267  -7.8250  -7.8172  -7.8138  -7.8131
    -7.8113  -7.8080  -7.8057  -7.8036  -7.8033  -7.7921  -7.7919  -7.7900
    -7.7880  -7.7871  -7.7836  -7.7819  -7.7808  -7.7786  -7.7669  -7.7645
    -7.7591  -7.7587  -7.7529  -7.7492  -7.7409  -7.7306  -7.7208  -7.7180
    -7.7177  -7.7150  -7.7026  -7.6885  -7.6883  -7.6868  -7.6867  -7.6731
    -7.6669  -7.6497  -7.6357  -7.6304  -7.6290  -7.6272  -7.6250  -7.6179
    -7.6144  -7.6079  -7.6057  -7.5964  -7.5863  -7.5855  -7.5800  -7.5772
    -7.5672  -7.5640  -7.4933  -7.4863  -7.4802  -7.4765  -7.4717  -7.4511
    -7.4378  -7.4034  -7.3175  -7.2820  -7.2676  -7.1975  -7.1900  -7.1890
    -7.1882  -7.1782  -7.1484  -7.1374  -7.1316  -7.1286  -7.1219  -7.1059
    -7.0747  -7.0669  -7.0527  -7.0511  -7.0457  -7.0414  -7.0000  -6.9976
    -6.9928  -6.9888  -6.9744  -6.9505  -6.9370  -6.9236  -6.9147  -6.9106
    -6.8959  -6.8879  -6.8811  -6.8773  -6.8707  -6.8599  -6.8027  -6.7854
    -6.7774  -6.7726  -6.7318  -6.7059  -6.6999  -6.6812  -6.6782  -6.6637
    -6.6406  -6.6388  -6.6303  -6.6281  -6.6268  -6.6256  -6.6219  -6.6132
    -6.6100  -6.6087  -6.6082  -6.6065  -6.6011  -6.6010  -6.6008  -6.6005
    -6.5618  -6.5330  -6.5145  -6.4782  -6.4433  -6.4165  -6.3587  -6.3569
    -6.3485  -6.3456  -6.3393  -6.3360  -6.3309  -6.3121  -6.3007  -6.2990
    -6.2968  -6.2948  -6.2942  -6.2917  -6.2796  -6.2720  -6.2589  -6.2503
    -6.2435  -6.2301  -6.2258  -6.2224  -6.2167  -6.1855  -6.1394  -6.0135
    -6.0125  -5.9828  -5.9544  -5.9490  -5.8940  -5.8898  -5.8721  -5.8569
    -5.8201  -5.8006  -5.7255  -5.6778  -5.6236  -5.6071  -5.5831  -5.4104
    -5.3858  -4.2724  -4.1227  -4.1084  -4.1072  -4.0782  -3.9800  -3.9520
    -3.9461  -3.9315  -3.9288  -3.8840  -3.8656  -3.8617  -3.8534  -3.8452
    -3.8364  -3.8298  -3.8220  -3.8191  -3.8145  -3.7810  -3.7285  -3.7087
    -3.7015  -3.6594  -3.6399  -3.6296  -3.6255  -3.6202  -3.6190  -3.5935
    -3.5775  -3.5723  -3.5649  -3.5541  -3.5455  -3.5370  -3.5351  -3.5299
    -3.5094  -3.5076  -3.5045  -3.4979  -3.4952  -3.4935  -3.4888  -3.4751
    -3.4698  -3.4674  -3.4587  -3.4533  -3.4420  -3.4413  -3.4300  -3.4238
    -3.3844  -3.3752  -3.3712  -3.3686  -3.3629  -3.3609  -3.3584  -3.3566
    -3.3431  -3.3313  -3.3138  -3.3093  -3.3044  -3.3015  -3.2988  -3.2979
    -3.2962  -3.2932  -3.2749  -3.2657  -3.2634  -3.2600  -3.2510  -3.2467
    -3.2456  -3.2375  -3.2322  -3.2304  -3.2201  -3.2113  -3.2087  -3.2005
    -3.1960  -3.1921  -3.1848  -3.1825  -3.1825  -3.1748  -3.1587  -3.1332
    -3.1177  -3.1097  -3.1004  -3.0943  -3.0890  -3.0865  -3.0790  -3.0525
    -3.0471  -3.0452  -3.0417  -3.0414  -3.0403  -3.0371  -3.0363  -3.0287
    -3.0236  -3.0225  -3.0206  -3.0147  -3.0100  -3.0036  -3.0015  -2.9984
    -2.9917  -2.9886  -2.9880  -2.9840  -2.9812  -2.9708  -2.9671  -2.9660
    -2.9601  -2.9580  -2.9518  -2.9455  -2.9291  -2.9247  -2.9181  -2.9043
    -2.9017  -2.8976  -2.8969  -2.8862  -2.8684  -2.8210  -2.8140  -2.8059
    -2.8037  -2.7648  -2.7434  -2.7413  -2.7346  -2.6422  -2.6298  -2.6112
    -2.6042  -2.5936  -2.5753  -2.5654  -2.5648  -2.5504  -2.5487  -2.5460
    -2.5424  -2.5360  -2.5251  -2.4676  -2.4234  -2.4176  -2.4117  -2.4074
    -2.3968  -2.3857  -2.3622  -2.3619

          k =-0.5000-0.8660 0.0000 (386352 PWs)   bands (ev):

  -102.9407 -88.7403 -71.2673 -71.2591 -71.2451 -71.2347 -71.2219 -71.2150
   -71.2043 -66.6416 -66.6415 -66.6415 -66.6414 -66.6406 -66.6403 -66.6402
   -66.6385 -66.6309 -66.6309 -66.6309 -66.6308 -66.6296 -66.6296 -66.6245
   -66.6199 -66.6169 -66.6158 -66.6158 -66.6158 -66.6158 -66.6158 -66.6157
   -66.6157 -66.6155 -66.6146 -66.6145 -66.6145 -66.6145 -66.6145 -66.6124
   -66.6114 -66.6113 -66.6113 -66.6112 -66.6101 -66.6100 -66.6051 -66.6051
   -66.6051 -66.6051 -66.6050 -66.6050 -66.6050 -66.6048 -66.6038 -66.6038
   -66.6037 -66.6037 -66.6035 -66.6021 -66.6006 -66.6006 -66.6006 -66.6005
   -66.5993 -66.5993 -66.5956 -66.5895 -66.5894 -66.5817 -66.5767 -66.5730
   -66.5675 -57.2467 -57.1366 -57.1080 -54.6213 -54.5127 -54.4706 -40.9435
   -40.9435 -40.9435 -40.9434 -40.9434 -40.9434 -40.9434 -40.9433 -40.9429
   -40.9429 -40.9428 -40.9428 -40.9375 -40.9369 -40.9261 -40.9244 -40.9167
   -40.9167 -40.9166 -40.9165 -40.9160 -40.9160 -40.9154 -40.9082 -40.9046
   -40.9046 -40.9046 -40.9045 -40.9040 -40.9040 -40.8881 -40.8653 -40.8539
   -40.8539 -40.8539 -40.8539 -40.8539 -40.8539 -40.8538 -40.8538 -40.8532
   -40.8532 -40.8532 -40.8532 -40.8428 -40.8321 -40.8295 -40.8238 -40.8198
   -40.7990 -40.7952 -40.7952 -40.7951 -40.7951 -40.7950 -40.7946 -40.7945
   -40.7856 -40.7856 -40.7856 -40.7855 -40.7848 -40.7848 -40.7813 -40.7743
   -40.7743 -40.7742 -40.7742 -40.7737 -40.7737 -40.7672 -40.7646 -40.7642
   -40.7557 -40.7508 -40.7481 -40.7447 -40.7447 -40.7447 -40.7447 -40.7446
   -40.7446 -40.7445 -40.7445 -40.7440 -40.7440 -40.7440 -40.7440 -40.7439
   -40.7360 -40.7360 -40.7359 -40.7358 -40.7353 -40.7352 -40.7344 -40.7303
   -40.7242 -40.7242 -40.7241 -40.7240 -40.7237 -40.7237 -40.7236 -40.7236
   -40.7236 -40.7236 -40.7235 -40.7234 -40.7233 -40.7233 -40.7230 -40.7230
   -40.7229 -40.7229 -40.7213 -40.7211 -40.7183 -40.7149 -40.7149 -40.7149
   -40.7149 -40.7143 -40.7143 -40.7136 -40.7110 -40.7053 -40.7018 -40.6933
   -40.6933 -40.6932 -40.6932 -40.6932 -40.6931 -40.6931 -40.6930 -40.6924
   -40.6923 -40.6923 -40.6923 -40.6827 -40.6806 -40.6773 -40.6731 -40.6585
   -40.6585 -40.6585 -40.6585 -40.6585 -40.6584 -40.6584 -40.6584 -40.6576
   -40.6576 -40.6576 -40.6576 -40.6479 -40.6464 -40.6463 -40.6463 -40.6462
   -40.6454 -40.6454 -40.6421 -40.6379 -40.6314 -40.6272 -40.6271 -40.6270
   -40.6269 -40.6269 -40.6261 -40.6261 -40.6180 -40.6150 -40.6100 -40.6100
   -40.6100 -40.6099 -40.6091 -40.6091 -40.6006 -40.5891 -40.5794 -40.5793
   -40.5793 -40.5792 -40.5784 -40.5784 -40.5715 -40.5620 -40.5516 -20.0763
   -19.9119 -19.8912 -19.8528 -19.7935 -19.7611 -19.6837 -19.6700 -19.5633
   -19.4872 -19.4541 -19.4358 -19.3636 -19.3450 -19.2590 -19.2487 -19.1270
   -18.8822 -18.8634 -18.7931 -18.7799 -18.7582 -18.7473 -18.7430 -18.7410
   -18.7218 -18.7111 -18.6853 -18.6781 -18.6705 -18.6580 -18.6439 -18.6204
   -18.6029 -18.5960 -18.5770 -18.5762 -18.5681 -18.5536 -18.5461 -18.5377
   -18.5054 -18.5005 -18.4980 -18.4913 -18.4605 -18.4353 -18.4303 -18.4279
   -18.4074 -18.4005 -18.3734 -18.3560 -18.3431 -18.3408 -18.3057 -18.2790
   -18.2749 -18.2696 -18.2545 -18.2233 -18.2155 -18.2056 -18.1813 -18.1586
   -18.1451 -18.1406 -18.1351 -18.1255 -18.1238 -18.1209 -18.1191 -18.1104
   -18.0960 -18.0948 -18.0924 -18.0892 -18.0876 -18.0781 -18.0759 -18.0725
   -18.0653 -18.0627 -18.0525 -18.0326 -18.0311 -18.0278 -18.0239 -18.0219
   -18.0198 -18.0171 -18.0113 -18.0101 -18.0004 -17.9709 -17.9675 -17.9598
   -17.9572 -17.9515 -17.9432 -17.9152 -17.9131 -17.9059 -17.8982 -17.8747
   -17.8702 -17.8670 -17.8618 -17.8574 -17.8477 -17.8418 -17.8416 -17.8412
   -17.8403 -17.8394 -17.8385 -17.8269 -17.8260 -17.8078 -17.8059 -17.7837
   -17.7817 -17.7646 -17.7618 -17.7498 -17.7479 -17.7418 -17.7416 -12.1368
   -11.8840 -11.7531 -11.7403 -11.7040 -11.6271 -11.5702 -11.5408 -11.5258
   -11.5202 -11.5170 -11.5090 -11.4957 -11.4907 -11.4712 -11.4423 -11.4329
   -11.4140 -11.3989 -11.3887 -11.3797 -11.3617 -11.3532 -11.3425 -11.3269
   -11.3054 -11.3027 -11.2922 -11.2873 -11.2839 -11.2815 -11.2765 -11.2711
   -11.2358 -11.2275 -11.2191 -11.2141 -11.2005 -11.1956 -11.1906 -11.1902
   -11.1801 -11.1724 -11.1690 -11.1669 -11.1427 -11.1207 -11.1112 -11.0960
   -11.0882 -11.0833 -11.0394 -11.0277 -10.9826 -10.9756 -10.9602 -10.9491
   -10.9461 -10.9308 -10.9177 -10.9045 -10.8998 -10.8918 -10.8595 -10.8570
   -10.8520 -10.8445 -10.8372 -10.8348 -10.8337 -10.8330 -10.8319 -10.8305
   -10.8209 -10.8178 -10.8173 -10.8147 -10.8140 -10.8067 -10.8057 -10.8035
   -10.8027 -10.7673 -10.7657 -10.7655 -10.7651 -10.7269 -10.6870 -10.5649
   -10.5617 -10.5505 -10.5481 -10.5124 -10.4900 -10.4211 -10.4053 -10.3856
   -10.3338 -10.2825 -10.2696 -10.1851 -10.1708 -10.1538 -10.1521 -10.1318
   -10.1271 -10.1091 -10.1037 -10.0774 -10.0722 -10.0597 -10.0532 -10.0525
   -10.0496 -10.0413 -10.0310 -10.0092  -9.9948  -9.9650  -9.9516  -9.9465
    -9.9325  -9.9291  -9.9213  -9.9154  -9.9038  -9.8926  -9.8829  -9.8797
    -9.8562  -9.8385  -9.8218  -9.8056  -9.8029  -9.7882  -9.7861  -9.7613
    -9.7533  -9.7444  -9.7179  -9.7107  -9.7035  -9.6789  -9.6756  -9.6435
    -9.6408  -9.6373  -9.6266  -9.6142  -9.5918  -9.5825  -9.5709  -9.5617
    -9.5586  -9.5551  -9.5431  -9.5171  -9.5126  -9.5104  -9.4956  -9.4933
    -9.4896  -9.4838  -9.4811  -9.4769  -9.4608  -9.4550  -9.4458  -9.4141
    -9.3890  -9.3817  -9.3722  -9.3175  -9.3139  -9.2788  -9.2573  -9.2391
    -9.2374  -9.2275  -9.2214  -9.2163  -9.1867  -9.1817  -9.1703  -9.1607
    -9.1442  -9.1347  -9.1292  -9.1117  -9.1062  -9.0839  -9.0661  -9.0634
    -9.0603  -9.0542  -9.0487  -9.0244  -9.0140  -9.0001  -8.9989  -8.9787
    -8.9723  -8.9657  -8.9611  -8.9504  -8.9342  -8.9210  -8.9131  -8.9122
    -8.9109  -8.9080  -8.9013  -8.8990  -8.8924  -8.8910  -8.8872  -8.8849
    -8.8812  -8.8761  -8.8728  -8.8681  -8.8622  -8.8619  -8.8559  -8.8376
    -8.8298  -8.8148  -8.8132  -8.8118  -8.8106  -8.8074  -8.8041  -8.7855
    -8.7825  -8.7714  -8.7563  -8.7551  -8.7520  -8.7485  -8.7373  -8.7193
    -8.6799  -8.6715  -8.6648  -8.6347  -8.6183  -8.5283  -8.5256  -8.4992
    -8.4795  -8.4685  -8.4554  -8.4116  -8.3816  -8.3745  -8.3212  -8.3133
    -8.2941  -8.2138  -8.1595  -8.1499  -8.1496  -8.1410  -8.1406  -8.1301
    -8.1294  -8.1221  -8.0940  -8.0792  -8.0688  -8.0200  -7.9956  -7.9870
    -7.9735  -7.9209  -7.8965  -7.8726  -7.8653  -7.8610  -7.8585  -7.8495
    -7.8395  -7.8344  -7.8328  -7.8299  -7.8244  -7.8239  -7.8189  -7.8187
    -7.8132  -7.8110  -7.8053  -7.8035  -7.8016  -7.7965  -7.7916  -7.7906
    -7.7881  -7.7868  -7.7857  -7.7818  -7.7805  -7.7798  -7.7736  -7.7607
    -7.7575  -7.7518  -7.7502  -7.7468  -7.7437  -7.7196  -7.7188  -7.7180
    -7.7179  -7.6937  -7.6892  -7.6886  -7.6869  -7.6843  -7.6831  -7.6730
    -7.6666  -7.6547  -7.6378  -7.6310  -7.6303  -7.6281  -7.6235  -7.6210
    -7.6188  -7.6083  -7.6058  -7.6046  -7.5862  -7.5859  -7.5796  -7.5753
    -7.5710  -7.5668  -7.5195  -7.4872  -7.4827  -7.4786  -7.4763  -7.4731
    -7.4298  -7.3921  -7.3401  -7.2873  -7.2517  -7.2014  -7.1941  -7.1907
    -7.1857  -7.1832  -7.1490  -7.1478  -7.1356  -7.1309  -7.1244  -7.0990
    -7.0780  -7.0744  -7.0600  -7.0520  -7.0453  -7.0248  -7.0205  -7.0177
    -6.9991  -6.9952  -6.9737  -6.9452  -6.9374  -6.9203  -6.9137  -6.9019
    -6.8931  -6.8819  -6.8790  -6.8672  -6.8549  -6.8493  -6.8190  -6.7929
    -6.7836  -6.7691  -6.7483  -6.7031  -6.6993  -6.6789  -6.6710  -6.6539
    -6.6450  -6.6386  -6.6285  -6.6275  -6.6265  -6.6256  -6.6120  -6.6100
    -6.6095  -6.6086  -6.6019  -6.6011  -6.6010  -6.6008  -6.5940  -6.5611
    -6.5511  -6.5333  -6.5124  -6.4895  -6.4598  -6.4383  -6.4200  -6.3477
    -6.3462  -6.3420  -6.3392  -6.3297  -6.3239  -6.2997  -6.2992  -6.2982
    -6.2964  -6.2947  -6.2941  -6.2795  -6.2751  -6.2723  -6.2661  -6.2464
    -6.2376  -6.2273  -6.2262  -6.2175  -6.2163  -6.1215  -6.0776  -6.0217
    -6.0101  -5.9941  -5.9744  -5.9458  -5.9347  -5.8822  -5.8782  -5.8668
    -5.8320  -5.8032  -5.7245  -5.6977  -5.6230  -5.6190  -5.5797  -5.4181
    -5.3998  -4.2872  -4.1190  -4.1146  -4.1062  -4.0825  -3.9701  -3.9504
    -3.9454  -3.9410  -3.9308  -3.8819  -3.8671  -3.8624  -3.8538  -3.8454
    -3.8352  -3.8290  -3.8205  -3.8203  -3.8175  -3.7705  -3.7306  -3.7122
    -3.7080  -3.6694  -3.6362  -3.6248  -3.6241  -3.6198  -3.6177  -3.5852
    -3.5767  -3.5713  -3.5590  -3.5458  -3.5432  -3.5412  -3.5316  -3.5306
    -3.5159  -3.5060  -3.5039  -3.4967  -3.4948  -3.4928  -3.4856  -3.4810
    -3.4698  -3.4612  -3.4577  -3.4478  -3.4388  -3.4360  -3.4242  -3.4088
    -3.3879  -3.3755  -3.3722  -3.3675  -3.3655  -3.3626  -3.3619  -3.3572
    -3.3287  -3.3258  -3.3166  -3.3124  -3.3060  -3.3044  -3.3003  -3.2975
    -3.2957  -3.2917  -3.2746  -3.2703  -3.2618  -3.2591  -3.2519  -3.2497
    -3.2431  -3.2326  -3.2308  -3.2296  -3.2176  -3.2163  -3.2051  -3.2011
    -3.1940  -3.1914  -3.1841  -3.1825  -3.1824  -3.1767  -3.1618  -3.1298
    -3.1193  -3.1154  -3.0956  -3.0925  -3.0894  -3.0858  -3.0797  -3.0462
    -3.0461  -3.0442  -3.0422  -3.0420  -3.0413  -3.0348  -3.0310  -3.0294
    -3.0272  -3.0252  -3.0174  -3.0103  -3.0093  -3.0033  -3.0015  -2.9984
    -2.9927  -2.9898  -2.9869  -2.9836  -2.9793  -2.9686  -2.9676  -2.9636
    -2.9621  -2.9544  -2.9502  -2.9413  -2.9331  -2.9263  -2.9176  -2.9108
    -2.9030  -2.8975  -2.8959  -2.8932  -2.8738  -2.8217  -2.8157  -2.8104
    -2.8054  -2.7687  -2.7580  -2.7395  -2.7339  -2.6431  -2.6305  -2.6139
    -2.5980  -2.5908  -2.5790  -2.5777  -2.5666  -2.5575  -2.5490  -2.5469
    -2.5456  -2.5415  -2.5316  -2.4531  -2.4253  -2.4201  -2.4136  -2.4082
    -2.3956  -2.3897  -2.3625  -2.3618

     the Fermi energy is    -4.7414 ev

!    total energy              =  -33980.29849050 Ry
     total all-electron energy =   -667406.151497 Ry
     estimated scf accuracy    <       0.00000077 Ry
     smearing contrib. (-TS)   =      -0.00000013 Ry
     internal energy E=F+TS    =  -33980.29849037 Ry

[...]
     atom  170 type  1   force =    -0.00001204   -0.00001241    0.00000714
     atom  171 type  2   force =    -0.00000469    0.00000179    0.00000463
     atom  172 type  2   force =    -0.00000119    0.00000194    0.00161537
     atom  173 type  2   force =    -0.00000135    0.00000162   -0.00235987
     atom  174 type  2   force =    -0.00000690    0.00000035   -0.00000674
     atom  175 type  1   force =    -0.00001020   -0.00000417    0.00002130
     atom  176 type  1   force =     0.00016172    0.00003445   -0.00009709
     atom  177 type  2   force =     0.00024980   -0.00004532   -0.00016616
     atom  178 type  2   force =     0.00001855    0.00000454    0.00001937
     atom  179 type  2   force =    -0.00002595   -0.00001744    0.00000693
     atom  180 type  2   force =    -0.00001165   -0.00019085   -0.00018474
     atom  181 type  1   force =    -0.00000040    0.00000088    0.00068819
     atom  182 type  1   force =    -0.00001187   -0.00000851   -0.00000015
     atom  183 type  2   force =    -0.00000285    0.00000035    0.00000509
     atom  184 type  2   force =    -0.00000128    0.00000217    0.00161532
     atom  185 type  2   force =    -0.00000132    0.00000178   -0.00235990
     atom  186 type  2   force =    -0.00000487   -0.00000201   -0.00000626
     atom  187 type  1   force =     0.00000103    0.00000608    0.00000737
     atom  188 type  1   force =     0.00001468   -0.00005645    0.00007532
     atom  189 type  2   force =    -0.00015542   -0.00005133    0.00001987
     atom  190 type  2   force =     0.00000701    0.00001774    0.00000052
     atom  191 type  2   force =     0.00000489   -0.00000151    0.00000845
     atom  192 type  2   force =    -0.00001078    0.00011032   -0.00005026
     atom  193 type  3   force =    -0.00042942    0.00019010   -0.00077322
     atom  194 type  4   force =     0.00005765   -0.00050480    0.00033558

     Total force =     0.002255     Total SCF correction =     0.000789
     SCF correction compared to forces is large: reduce conv_thr to get better values
     Energy error            =      6.8E-06 Ry
     Gradient error          =      8.5E-04 Ry/Bohr

     bfgs converged in  20 scf cycles and  19 bfgs steps
     (criteria: energy <  1.0E-04 Ry, force <  1.0E-03 Ry/Bohr)

     End of BFGS Geometry Optimization

     Final energy             =  -33980.2984972680 Ry

     File ./outdir/pwscf.bfgs deleted, as requested
Begin final coordinates

ATOMIC_POSITIONS (angstrom)
Mo               0.0000119917        1.8193638619       -9.1672481230    0   0   0
Mo               1.5756136568        0.9097075315       -3.0554901653    0   0   0
S                0.0000188998        1.8193822938       -4.6232556019    0   0   0
S                1.5756321638        0.9096773839       -7.6014065489    0   0   0
S                1.5756326175        0.9096785128      -10.7330757790    0   0   0
S                0.0000189190        1.8193860094       -1.4877129945    0   0   0
Mo               0.0001321687        1.8195319482        3.0555792321
Mo               1.5771541138        0.9106556722        9.1622846696
S                0.0055028696        1.8238693432        7.5914720461
S                1.5756570319        0.9099005340        4.6233717190
S                1.5759088669        0.9097316881        1.4881292673
S               -0.0035980492        1.8112556531       10.7321268842
Mo              -1.5756053507        4.5484193819       -9.1672481230    0   0   0
Mo               0.0000378379        3.6387394919       -3.0554952701    0   0   0
S               -1.5755913433        4.5484363582       -4.6232494962    0   0   0
S                0.0000148214        3.6387329039       -7.6014065489    0   0   0
S                0.0000152751        3.6387340328      -10.7330757790    0   0   0
S               -1.5755906502        4.5484413613       -1.4877305502    0   0   0
Mo              -1.5755248285        4.5485718630        3.0562358428
Mo              -0.0031188350        3.6319384969        9.1701057616
S               -1.5754520638        4.5331599805        7.5765099860
S                0.0007119951        3.6389804608        4.6233337998
S                0.0000073318        3.6390902830        1.4880867101
S               -1.5976056008        4.5295553074       10.7221824239
Mo              -3.1512226931        7.2774749019       -9.1672481230    0   0   0
Mo              -1.5755910988        6.3678216792       -3.0555115988    0   0   0
S               -3.1512162438        7.2774954350       -4.6232578178    0   0   0
S               -1.5756025210        6.3677884239       -7.6014065489    0   0   0
S               -1.5756020673        6.3677895528      -10.7330757790    0   0   0
S               -3.1512127704        7.2774877076       -1.4877200710    0   0   0
Mo              -3.1511116896        7.2776176521        3.0562280962
Mo              -1.6213132269        6.3420153821        9.1479382156
S               -3.1662251749        7.2852595681        7.5782096433
S               -1.5752634656        6.3681364632        4.6243259315
S               -1.5755536674        6.3679186356        1.4885397232
S               -3.1747049137        7.2695168280       10.7224432364
Mo              -4.7268400355       10.0065304219       -9.1672481230    0   0   0
Mo              -3.1512405618        9.0968403586       -3.0554816746    0   0   0
S               -4.7268341792       10.0065523623       -4.6232463762    0   0   0
S               -3.1512198634        9.0968439439       -7.6014065489    0   0   0
S               -3.1512194097        9.0968450728      -10.7330757790    0   0   0
S               -4.7268370797       10.0065537885       -1.4877176751    0   0   0
Mo              -4.7266277575       10.0066112828        3.0559375355
Mo              -3.1619482409        9.0970316162        9.1704042460
S               -4.7192330083       10.0104237619        7.5884010496
S               -3.1504374751        9.0973519037        4.6235667516
S               -3.1510548557        9.0968192621        1.4882156523
S               -4.7386242759       10.0075433804       10.7312525795
Mo               3.1512517547        1.8193638619       -9.1672481230    0   0   0
Mo               4.7269020221        0.9097289540       -3.0554823951    0   0   0
S                3.1512612351        1.8193882564       -4.6232320683    0   0   0
S                4.7268719268        0.9096773839       -7.6014065489    0   0   0
S                4.7268723805        0.9096785128      -10.7330757790    0   0   0
S                3.1512592485        1.8193890201       -1.4877261251    0   0   0
Mo               3.1514164577        1.8194578212        3.0561951505
Mo               4.7220038415        0.9195849030        9.1778262026
S                3.1566397100        1.8211550204        7.5969665441
S                4.7270092264        0.9091582564        4.6240692112
S                4.7269454307        0.9097819691        1.4882732204
S                3.1443949035        1.8189097887       10.7436793730
Mo               1.5756344123        4.5484193819       -9.1672481230    0   0   0
Mo               3.1512756394        3.6387769522       -3.0554814834    0   0   0
S                1.5756504879        4.5484423799       -4.6232390542    0   0   0
S                3.1512545844        3.6387329039       -7.6014065489    0   0   0
S                3.1512550381        3.6387340328      -10.7330757790    0   0   0
S                1.5756466253        4.5484431864       -1.4877251801    0   0   0
Mo               1.5757673656        4.5488461070        3.0557652929
Mo               3.1539501362        3.6307656036        9.1741167498
S                1.5787239871        4.5620442556        7.6268761828
S                3.1510230550        3.6391422635        4.6239678935
S                3.1512977984        3.6387477723        1.4882131096
S                1.5816462350        4.4705190093       10.7941191347
Mo               0.0000170699        7.2774749019       -9.1672481230    0   0   0
Mo               1.5756764447        6.3678236689       -3.0554877708    0   0   0
S                0.0000381981        7.2774979204       -4.6232454413    0   0   0
S                1.5756372420        6.3677884239       -7.6014065489    0   0   0
S                1.5756376957        6.3677895528      -10.7330757790    0   0   0
S                0.0000328088        7.2774946042       -1.4877307940    0   0   0
Mo               0.0001250628        7.2776847355        3.0562698132
Mo               1.5842267205        6.3499178926        9.2105388358
S                0.0101851906        7.2874281616        7.6590263605
S                1.5753439166        6.3679134599        4.6245675830
S                1.5755912417        6.3681925863        1.4882599789
S               -0.1112033092        7.1677105514       10.7646714306
Mo              -1.5756002725       10.0065304219       -9.1672481230    0   0   0
Mo               0.0000873425        9.0968676911       -3.0554912329    0   0   0
S               -1.5755883952       10.0065504530       -4.6232240150    0   0   0
S                0.0000198996        9.0968439439       -7.6014065489    0   0   0
S                0.0000203533        9.0968450728      -10.7330757790    0   0   0
S               -1.5755859047       10.0065492576       -1.4877362381    0   0   0
Mo              -1.5751385063       10.0064542948        3.0557793501
Mo              -0.0064399805        9.1050828351        9.2160154861
S               -1.5532490461        9.9986767097        7.6386099583
S               -0.0000899357        9.0966262203        4.6247489020
S                0.0002716272        9.0966946823        1.4882107844
S               -1.6679677084       10.0631197604       10.8168431442
Mo               6.3024915177        1.8193638619       -9.1672481230    0   0   0
Mo               7.8781001445        0.9096521684       -3.0554919963    0   0   0
S                6.3025008696        1.8193826232       -4.6232480596    0   0   0
S                7.8781116898        0.9096773839       -7.6014065489    0   0   0
S                7.8781121435        0.9096785128      -10.7330757790    0   0   0
S                6.3025042007        1.8193849068       -1.4877147524    0   0   0
Mo               6.3023703914        1.8191734478        3.0561911984
Mo               7.8832151130        0.9274869613        9.1686788759
S                6.2977502604        1.8174796413        7.5971631367
S                7.8778082918        0.9091576737        4.6240530265
S                7.8779207364        0.9093682774        1.4884548991
S                6.3055532656        1.8271279466       10.7357241271
Mo               4.7268741753        4.5484193819       -9.1672481230    0   0   0
Mo               6.3024679138        3.6387501714       -3.0554895197    0   0   0
S                4.7268748770        4.5484386753       -4.6232519432    0   0   0
S                6.3024943474        3.6387329039       -7.6014065489    0   0   0
S                6.3024948011        3.6387340328      -10.7330757790    0   0   0
S                4.7268770533        4.5484432419       -1.4877137856    0   0   0
Mo               4.7266579693        4.5485062119        3.0559813914
Mo               6.3012854934        3.6388587599        9.1617683101
S                4.7227005785        4.5464888842        7.5958112285
S                6.3023115160        3.6387861718        4.6232836584
S                6.3020904490        3.6384314301        1.4879878886
S                4.7332533125        4.5488135949       10.7341638960
Mo               3.1512568329        7.2774749019       -9.1672481230    0   0   0
Mo               4.7268384135        6.3678043337       -3.0554959052    0   0   0
S                3.1512606125        7.2774972547       -4.6232589675    0   0   0
S                4.7268770050        6.3677884239       -7.6014065489    0   0   0
S                4.7268774587        6.3677895528      -10.7330757790    0   0   0
S                3.1512629079        7.2774963749       -1.4877081835    0   0   0
Mo               3.1508664599        7.2775767163        3.0564079051
Mo               4.7413798501        6.3665717047        9.1663933596
S                3.1394604395        7.2726838473        7.6311194555
S                4.7264303229        6.3678851817        4.6238470711
S                4.7263973341        6.3679514047        1.4882806100
S                3.2314647335        7.3163268114       10.7691112768
Mo               1.5756394905       10.0065304219       -9.1672481230    0   0   0
Mo               3.1512330605        9.0968514907       -3.0554878870    0   0   0
S                1.5756499830       10.0065443759       -4.6232632674    0   0   0
S                3.1512596626        9.0968439439       -7.6014065489    0   0   0
S                3.1512601163        9.0968450728      -10.7330757790    0   0   0
S                1.5756503041       10.0065459699       -1.4877044377    0   0   0
Mo               1.5753862295       10.0062005184        3.0564233258
Mo               3.1773107248        9.1082709405        9.1770209877
S                1.5604873742        9.9959643310        7.6414739780
S                3.1507968473        9.0966799129        4.6246677121
S                3.1510715858        9.0968099155        1.4885846078
S                1.6879559292       10.0793846477       10.7956876399
Mo               9.4537312807        1.8193638619       -9.1672481230    0   0   0
Mo              11.0293863460        0.9096952246       -3.0554894007    0   0   0
S                9.4537395970        1.8193770750       -4.6232328036    0   0   0
S               11.0293514528        0.9096773839       -7.6014065489    0   0   0
S               11.0293519066        0.9096785128      -10.7330757790    0   0   0
S                9.4537393632        1.8193794783       -1.4877366147    0   0   0
Mo               9.4534942632        1.8191840264        3.0559854546
Mo              11.0332370262        0.9119692968        9.1545674499
S                9.4515259221        1.8120048718        7.5817463517
S               11.0294954569        0.9099100574        4.6232804522
S               11.0291714214        0.9095074079        1.4882153055
S                9.4643481466        1.8329376621       10.7268319143
Mo               7.8781139383        4.5484193819       -9.1672481230    0   0   0
Mo               9.4537539161        3.6387607911       -3.0554933032    0   0   0
S                7.8781175448        4.5484378232       -4.6232366318    0   0   0
S                9.4537341104        3.6387329039       -7.6014065489    0   0   0
S                9.4537345641        3.6387340328      -10.7330757790    0   0   0
S                7.8781194018        4.5484411585       -1.4877377057    0   0   0
Mo               7.8778232493        4.5483228020        3.0552010075
Mo               9.4499407748        3.6324444835        9.1454727709
S                7.8692791599        4.5444913785        7.5815788253
S                9.4530968862        3.6388121467        4.6230755187
S                9.4539666484        3.6386076498        1.4880920796
S                7.8793782706        4.5486944325       10.7192988246
Mo               6.3024965959        7.2774749019       -9.1672481230    0   0   0
Mo               7.8781361655        6.3678242352       -3.0555014130    0   0   0
S                6.3024973331        7.2774953556       -4.6232392528    0   0   0
S                7.8781167680        6.3677884239       -7.6014065489    0   0   0
S                7.8781172217        6.3677895528      -10.7330757790    0   0   0
S                6.3024989866        7.2774929744       -1.4877349119    0   0   0
Mo               6.3022230187        7.2774585417        3.0557404967
Mo               7.8701764334        6.3676717162        9.1486624072
S                6.2957656894        7.2782088325        7.5821391284
S                7.8777236337        6.3673870825        4.6229095718
S                7.8782065972        6.3681177690        1.4879859237
S                6.3148549211        7.2818770777       10.7269088356
Mo               4.7268792535       10.0065304219       -9.1672481230    0   0   0
Mo               6.3025111524        9.0968738021       -3.0554915260    0   0   0
S                4.7268840634       10.0065452125       -4.6232380477    0   0   0
S                6.3024994256        9.0968439439       -7.6014065489    0   0   0
S                6.3024998793        9.0968450728      -10.7330757790    0   0   0
S                4.7268847312       10.0065459141       -1.4877283294    0   0   0
Mo               4.7266543508       10.0064444654        3.0562514489
Mo               6.3070550323        9.0996188184        9.1517532908
S                4.7293111399       10.0086931583        7.5843699460
S                6.3026278466        9.0967012701        4.6234046083
S                6.3023655587        9.0970226453        1.4882703798
S                4.7581742192       10.0212451062       10.7313724728
Pd               1.5421221393        6.4916388934       12.1775222265
Pt               0.0726550388        9.0183861379       12.0316186380
End final coordinates



     Writing all to output data dir ./outdir/pwscf.save/ :
     XML data file, charge density, pseudopotentials, collected wavefunctions
 
     init_run     :    172.73s CPU    176.17s WALL (       1 calls)
     electrons    :  24753.88s CPU  25005.42s WALL (       2 calls)
     update_pot   :      1.65s CPU      1.71s WALL (       1 calls)
     forces       :    257.64s CPU    262.17s WALL (       2 calls)
     force_dftd3  :      1.33s CPU      1.38s WALL (       2 calls)

     Called by init_run:
     wfcinit      :    148.86s CPU    150.64s WALL (       1 calls)
     potinit      :      1.37s CPU      1.55s WALL (       1 calls)
     hinit0       :     12.96s CPU     13.20s WALL (       1 calls)

     Called by electrons:
     c_bands      :  23193.10s CPU  23389.12s WALL (      22 calls)
     sum_band     :   1391.08s CPU   1419.77s WALL (      22 calls)
     v_of_rho     :      8.14s CPU      9.20s WALL (      23 calls)
     newd         :    144.19s CPU    170.64s WALL (      23 calls)
     PAW_pot      :     20.69s CPU     20.93s WALL (      24 calls)
     mix_rho      :      2.06s CPU      2.36s WALL (      22 calls)
     energy_dftd3 :      0.77s CPU      0.78s WALL (       2 calls)

     Called by c_bands:
     init_us_2    :     47.55s CPU     48.04s WALL (     192 calls)
     init_us_2:cp :     47.55s CPU     48.04s WALL (     192 calls)
     cegterg      :  22998.14s CPU  23192.46s WALL (     110 calls)

     Called by *egterg:
     cdiaghg      :   1178.42s CPU   1221.50s WALL (    1707 calls)
     h_psi        :  11176.62s CPU  11241.10s WALL (    1738 calls)
     s_psi        :   2476.42s CPU   2491.51s WALL (    1738 calls)
     g_psi        :     24.59s CPU     24.67s WALL (    1624 calls)

     Called by h_psi:
     h_psi:calbec :   2501.22s CPU   2509.49s WALL (    1738 calls)
     vloc_psi     :   6148.55s CPU   6178.43s WALL (    1738 calls)
     add_vuspsi   :   2479.51s CPU   2495.66s WALL (    1738 calls)

     General routines
     calbec       :   3089.38s CPU   3099.57s WALL (    1862 calls)
     fft          :      8.80s CPU      9.71s WALL (     319 calls)
     ffts         :      0.40s CPU      0.44s WALL (      45 calls)
     fftw         :   4299.30s CPU   4319.95s WALL ( 1130212 calls)
     interpolate  :      0.71s CPU      0.80s WALL (      23 calls)
 
     Parallel routines
 
     PWSCF        :      7h 0m CPU      7h 5m WALL

 
   This run was terminated on:  22:30: 7  19Mar2024            

=------------------------------------------------------------------------------=
   JOB DONE.
=------------------------------------------------------------------------------=
