
     Program PWSCF v.7.3 starts on  1Apr2024 at  3:28:32 

     This program is part of the open-source Quantum ESPRESSO suite
     for quantum simulation of materials; please cite
         "P. Giannozzi et al., J. Phys.:Condens. Matter 21 395502 (2009);
         "P. Giannozzi et al., J. Phys.:Condens. Matter 29 465901 (2017);
         "P. Giannozzi et al., J. Chem. Phys. 152 154105 (2020);
          URL http://www.quantum-espresso.org", 
     in publications or presentations arising from this work. More details at
     http://www.quantum-espresso.org/quote

     Parallel version (MPI & OpenMP), running on      36 processor cores
     Number of MPI processes:                36
     Threads/MPI process:                     1

     MPI processes distributed on     1 nodes
     543907 MiB available memory on the printing compute node when the environment starts
 
     Waiting for input...
     Reading input from standard input
Warning: card &CELL ignored
Warning: card / ignored

     Current dimensions of program PWSCF are:
     Max number of different atomic species (ntypx) = 10
     Max number of k-points (npk) =  40000
     Max angular momentum in pseudopotentials (lmaxx) =  4
     file Mo.pbe-spn-kjpaw_psl.1.0.0.UPF: wavefunction(s)  4S 4D renormalized
     file S.pbe-n-kjpaw_psl.1.0.0.UPF: wavefunction(s)  3S 3P renormalized
     file Pt.pbe-spfn-kjpaw_psl.1.0.0.UPF: wavefunction(s)  5P 4F renormalized
     file Pd.pbe-spn-kjpaw_psl.1.0.0.UPF: wavefunction(s)  4S 5S 4D renormalized
 
     R & G space division:  proc/nbgrp/npool/nimage =      36
     Subspace diagonalization in iterative solution of the eigenvalue problem:
     one sub-group per band group will be used
     scalapack distributed-memory algorithm (size of sub-group:  6*  6 procs)

 
     Parallelization info
     --------------------
     sticks:   dense  smooth     PW     G-vecs:    dense   smooth      PW
     Min         586     335     89               165416    71459    9765
     Max         587     337     90               165425    71461    9778
     Sum       21109   12085   3205              5955087  2572543  351657
 
     Using Slab Decomposition
 


     bravais-lattice index     =            0
     lattice parameter (alat)  =      23.8395  a.u.
     unit-cell volume          =   28182.8498 (a.u.)^3
     number of atoms/cell      =          147
     number of atomic types    =            4
     number of electrons       =      1316.00
     number of Kohn-Sham states=          790
     kinetic-energy cutoff     =      77.0000  Ry
     charge density cutoff     =     539.0000  Ry
     scf convergence threshold =      1.0E-06
     mixing beta               =       0.2000
     number of iterations used =            8  plain     mixing
     energy convergence thresh.=      1.0E-04
     force convergence thresh. =      1.0E-03
     Exchange-correlation= SLA  PW   PBX  PBC
                           (   1   4   3   4   0   0   0)
     nstep                     =         1000


     Effective Screening Medium Method
     =================================
     Boundary Conditions: Vacuum-Slab-Vacuum
     total charge in unit cell        =   0.0000
     grid points for fit at edges     =        4 
 

     celldm(1)=  23.839504  celldm(2)=   0.000000  celldm(3)=   0.000000
     celldm(4)=   0.000000  celldm(5)=   0.000000  celldm(6)=   0.000000

     crystal axes: (cart. coord. in units of alat)
               a(1) = (   1.000000   0.000000   0.000000 )  
               a(2) = (  -0.500001   0.866026   0.000000 )  
               a(3) = (   0.000000   0.000000   2.401941 )  

     reciprocal axes: (cart. coord. in units 2 pi/alat)
               b(1) = (  1.000000  0.577351  0.000000 )  
               b(2) = (  0.000000  1.154700  0.000000 )  
               b(3) = (  0.000000  0.000000  0.416330 )  


     PseudoPot. # 1 for Mo read from file:
     ./pseudo/Mo.pbe-spn-kjpaw_psl.1.0.0.UPF
     MD5 check sum: 317bf72632116215fd98f72de1686f13
     Pseudo is Projector augmented-wave + core cor, Zval = 14.0
     Generated using 'atomic' code by A. Dal Corso  v.7.2
     Shape of augmentation charge: PSQ
     Using radial grid of 1229 points,  6 beta functions with: 
                l(1) =   0
                l(2) =   0
                l(3) =   1
                l(4) =   1
                l(5) =   2
                l(6) =   2
     Q(r) pseudized with 0 coefficients 


     PseudoPot. # 2 for S  read from file:
     ./pseudo/S.pbe-n-kjpaw_psl.1.0.0.UPF
     MD5 check sum: 8b7b5302570d38d5e87fed6a1065abda
     Pseudo is Projector augmented-wave + core cor, Zval =  6.0
     Generated using 'atomic' code by A. Dal Corso  v.7.2
     Shape of augmentation charge: PSQ
     Using radial grid of 1151 points,  6 beta functions with: 
                l(1) =   0
                l(2) =   0
                l(3) =   1
                l(4) =   1
                l(5) =   2
                l(6) =   2
     Q(r) pseudized with 0 coefficients 


     PseudoPot. # 3 for Pt read from file:
     ./pseudo/Pt.pbe-spfn-kjpaw_psl.1.0.0.UPF
     MD5 check sum: 620096ebf4e6ebacc94de60fd67efcb5
     Pseudo is Projector augmented-wave + core cor, Zval = 32.0
     Generated using 'atomic' code by A. Dal Corso  v.7.2
     Shape of augmentation charge: PSQ
     Using radial grid of 1277 points,  8 beta functions with: 
                l(1) =   0
                l(2) =   0
                l(3) =   1
                l(4) =   1
                l(5) =   2
                l(6) =   2
                l(7) =   3
                l(8) =   3
     Q(r) pseudized with 0 coefficients 


     PseudoPot. # 4 for Pd read from file:
     ./pseudo/Pd.pbe-spn-kjpaw_psl.1.0.0.UPF
     MD5 check sum: a60571a671f2502b8a6a4569d20a6edb
     Pseudo is Projector augmented-wave + core cor, Zval = 18.0
     Generated using 'atomic' code by A. Dal Corso  v.7.2
     Shape of augmentation charge: PSQ
     Using radial grid of 1235 points,  6 beta functions with: 
                l(1) =   0
                l(2) =   0
                l(3) =   1
                l(4) =   1
                l(5) =   2
                l(6) =   2
     Q(r) pseudized with 0 coefficients 


     atomic species   valence    mass     pseudopotential
     Mo               14.00    95.95000     Mo( 1.00)
     S                 6.00    32.06000     S ( 1.00)
     Pt               32.00   195.08400     Pt( 1.00)
     Pd               18.00   106.42000     Pd( 1.00)

     No symmetry found



   Cartesian axes

     site n.     atom                  positions (alat units)
         1        Mo     tau(   1) = (   0.1246074   0.2157200   0.4826345  )
         2        Mo     tau(   2) = (   0.1250004   0.0721694  -0.4825273  )
         3        Mo     tau(   3) = (   0.0000068   0.1443549  -0.0000406  )
         4        S      tau(   4) = (   0.0000004   0.0000006  -0.6064556  )
         5        S      tau(   5) = (   0.1249873   0.0722031  -0.1241756  )
         6        S      tau(   6) = (   0.0000973   0.1450650   0.3573519  )
         7        S      tau(   7) = (   0.0000004   0.0000005  -0.3584711  )
         8        S      tau(   8) = (   0.1249847   0.0720950   0.1240801  )
         9        S      tau(   9) = (  -0.0005301   0.1434694   0.6062599  )
        10        Mo     tau(  10) = (  -0.0009156   0.4330317   0.4832560  )
        11        Mo     tau(  11) = (   0.0000001   0.2886759  -0.4825273  )
        12        Mo     tau(  12) = (  -0.1249829   0.3608507   0.0000027  )
        13        S      tau(  13) = (  -0.1249999   0.2165071  -0.6064556  )
        14        S      tau(  14) = (   0.0000128   0.2886930  -0.1241006  )
        15        S      tau(  15) = (  -0.1248837   0.3612581   0.3580377  )
        16        S      tau(  16) = (  -0.1249998   0.2165070  -0.3584711  )
        17        S      tau(  17) = (   0.0000764   0.2887257   0.1242499  )
        18        S      tau(  18) = (  -0.1253220   0.3603286   0.6073134  )
        19        Mo     tau(  19) = (  -0.1249684   0.6493789   0.4818062  )
        20        Mo     tau(  20) = (  -0.1250002   0.5051824  -0.4825273  )
        21        Mo     tau(  21) = (  -0.2500040   0.5773207  -0.0001409  )
        22        S      tau(  22) = (  -0.2500002   0.4330136  -0.6064556  )
        23        S      tau(  23) = (  -0.1249903   0.5051158  -0.1241917  )
        24        S      tau(  24) = (  -0.2499555   0.5769406   0.3578597  )
        25        S      tau(  25) = (  -0.2500001   0.4330135  -0.3584711  )
        26        S      tau(  26) = (  -0.1249930   0.5052458   0.1241101  )
        27        S      tau(  27) = (  -0.2497899   0.5778453   0.6063597  )
        28        Mo     tau(  28) = (   0.2497834  -0.0005160   0.4806710  )
        29        Mo     tau(  29) = (  -0.2500004   0.7216889  -0.4825273  )
        30        Mo     tau(  30) = (  -0.3750188   0.7938286  -0.0001549  )
        31        S      tau(  31) = (  -0.3750004   0.6495201  -0.6064556  )
        32        S      tau(  32) = (  -0.2500074   0.7216649  -0.1242513  )
        33        S      tau(  33) = (  -0.3752234   0.7935039   0.3566636  )
        34        S      tau(  34) = (  -0.3750004   0.6495200  -0.3584711  )
        35        S      tau(  35) = (  -0.2499996   0.7216607   0.1240200  )
        36        S      tau(  36) = (  -0.3746819   0.7948899   0.6057341  )
        37        Mo     tau(  37) = (   0.3750034   0.2123618   0.4807886  )
        38        Mo     tau(  38) = (   0.3750004   0.0721694  -0.4825273  )
        39        Mo     tau(  39) = (   0.2499981   0.1443415  -0.0000413  )
        40        S      tau(  40) = (   0.2500004   0.0000006  -0.6064556  )
        41        S      tau(  41) = (   0.3750280   0.0722231  -0.1241519  )
        42        S      tau(  42) = (   0.2489233   0.1437373   0.3564531  )
        43        S      tau(  43) = (   0.2500004   0.0000005  -0.3584711  )
        44        S      tau(  44) = (   0.3749877   0.0720947   0.1241383  )
        45        S      tau(  45) = (   0.2497122   0.1423104   0.6055821  )
        46        Mo     tau(  46) = (   0.2490774   0.4329018   0.4862977  )
        47        Mo     tau(  47) = (   0.2500001   0.2886759  -0.4825273  )
        48        Mo     tau(  48) = (   0.1250319   0.3608540  -0.0000126  )
        49        S      tau(  49) = (   0.1250001   0.2165071  -0.6064556  )
        50        S      tau(  50) = (   0.2500259   0.2886851  -0.1240979  )
        51        S      tau(  51) = (   0.1263042   0.3620125   0.3614359  )
        52        S      tau(  52) = (   0.1250002   0.2165070  -0.3584711  )
        53        S      tau(  53) = (   0.2500168   0.2886898   0.1242904  )
        54        S      tau(  54) = (   0.1173694   0.3566575   0.6132890  )
        55        Mo     tau(  55) = (   0.1240062   0.6506471   0.4823696  )
        56        Mo     tau(  56) = (   0.1249998   0.5051824  -0.4825273  )
        57        Mo     tau(  57) = (   0.0000191   0.5773226  -0.0001255  )
        58        S      tau(  58) = (  -0.0000002   0.4330136  -0.6064556  )
        59        S      tau(  59) = (   0.1250359   0.5051398  -0.1241676  )
        60        S      tau(  60) = (   0.0000697   0.5768181   0.3580317  )
        61        S      tau(  61) = (  -0.0000001   0.4330135  -0.3584711  )
        62        S      tau(  62) = (   0.1250059   0.5052001   0.1242069  )
        63        S      tau(  63) = (  -0.0003304   0.5778980   0.6066479  )
        64        Mo     tau(  64) = (   0.5003257  -0.0004925   0.4803774  )
        65        Mo     tau(  65) = (  -0.0000004   0.7216889  -0.4825273  )
        66        Mo     tau(  66) = (  -0.1249927   0.7938427  -0.0001655  )
        67        S      tau(  67) = (  -0.1250004   0.6495201  -0.6064556  )
        68        S      tau(  68) = (   0.0000418   0.7216760  -0.1242215  )
        69        S      tau(  69) = (  -0.1250504   0.7929751   0.3566577  )
        70        S      tau(  70) = (  -0.1250004   0.6495200  -0.3584711  )
        71        S      tau(  71) = (  -0.0000163   0.7216479   0.1240623  )
        72        S      tau(  72) = (  -0.1248984   0.7939509   0.6051552  )
        73        Mo     tau(  73) = (   0.6254010   0.2160480   0.4824065  )
        74        Mo     tau(  74) = (   0.6250004   0.0721694  -0.4825273  )
        75        Mo     tau(  75) = (   0.5000167   0.1443371   0.0000092  )
        76        S      tau(  76) = (   0.5000004   0.0000006  -0.6064556  )
        77        S      tau(  77) = (   0.6250207   0.0721868  -0.1241145  )
        78        S      tau(  78) = (   0.5010641   0.1438734   0.3562763  )
        79        S      tau(  79) = (   0.5000004   0.0000005  -0.3584711  )
        80        S      tau(  80) = (   0.6250414   0.0720927   0.1241409  )
        81        S      tau(  81) = (   0.5005473   0.1420509   0.6053992  )
        82        Mo     tau(  82) = (   0.5016373   0.4329758   0.4857863  )
        83        Mo     tau(  83) = (   0.5000001   0.2886759  -0.4825273  )
        84        Mo     tau(  84) = (   0.3750027   0.3608467   0.0000234  )
        85        S      tau(  85) = (   0.3750001   0.2165071  -0.6064556  )
        86        S      tau(  86) = (   0.5000046   0.2886693  -0.1240592  )
        87        S      tau(  87) = (   0.3745963   0.3620572   0.3631324  )
        88        S      tau(  88) = (   0.3750002   0.2165070  -0.3584711  )
        89        S      tau(  89) = (   0.4999634   0.2887051   0.1243131  )
        90        S      tau(  90) = (   0.3781068   0.3490112   0.6089630  )
        91        Mo     tau(  91) = (   0.3753335   0.6518408   0.4830502  )
        92        Mo     tau(  92) = (   0.3749998   0.5051824  -0.4825273  )
        93        Mo     tau(  93) = (   0.2500203   0.5772987  -0.0000555  )
        94        S      tau(  94) = (   0.2499998   0.4330136  -0.6064556  )
        95        S      tau(  95) = (   0.3750008   0.5051221  -0.1241383  )
        96        S      tau(  96) = (   0.2501878   0.5758780   0.3616377  )
        97        S      tau(  97) = (   0.2499999   0.4330135  -0.3584711  )
        98        S      tau(  98) = (   0.3750015   0.5051839   0.1242620  )
        99        S      tau(  99) = (   0.2495016   0.5878580   0.6113208  )
       100        Mo     tau( 100) = (   0.7500199   0.0003818   0.4811571  )
       101        Mo     tau( 101) = (   0.2499996   0.7216889  -0.4825273  )
       102        Mo     tau( 102) = (   0.1250316   0.7938162  -0.0000875  )
       103        S      tau( 103) = (   0.1249996   0.6495201  -0.6064556  )
       104        S      tau( 104) = (   0.2500359   0.7216507  -0.1241461  )
       105        S      tau( 105) = (   0.1254554   0.7934228   0.3566219  )
       106        S      tau( 106) = (   0.1249996   0.6495200  -0.3584711  )
       107        S      tau( 107) = (   0.2500086   0.7215741   0.1241838  )
       108        S      tau( 108) = (   0.1244907   0.7952297   0.6057917  )
       109        Mo     tau( 109) = (  -0.1249741   0.2166510   0.4819241  )
       110        Mo     tau( 110) = (   0.8750004   0.0721694  -0.4825273  )
       111        Mo     tau( 111) = (   0.7500133   0.1443436  -0.0000073  )
       112        S      tau( 112) = (   0.7500004   0.0000006  -0.6064556  )
       113        S      tau( 113) = (   0.8749956   0.0721731  -0.1241058  )
       114        S      tau( 114) = (   0.7500203   0.1449522   0.3574598  )
       115        S      tau( 115) = (   0.7500004   0.0000005  -0.3584711  )
       116        S      tau( 116) = (   0.8750238   0.0721604   0.1241841  )
       117        S      tau( 117) = (   0.7504201   0.1437382   0.6062629  )
       118        Mo     tau( 118) = (  -0.2493495   0.4328575   0.4828262  )
       119        Mo     tau( 119) = (   0.7500001   0.2886759  -0.4825273  )
       120        Mo     tau( 120) = (   0.6249856   0.3608477   0.0000279  )
       121        S      tau( 121) = (   0.6250001   0.2165071  -0.6064556  )
       122        S      tau( 122) = (   0.7499958   0.2886820  -0.1240679  )
       123        S      tau( 123) = (   0.6241512   0.3616755   0.3603414  )
       124        S      tau( 124) = (   0.6250002   0.2165070  -0.3584711  )
       125        S      tau( 125) = (   0.7499862   0.2887159   0.1242658  )
       126        S      tau( 126) = (   0.6305969   0.3581080   0.6112211  )
       127        Mo     tau( 127) = (  -0.3742668   0.6505223   0.4820597  )
       128        Mo     tau( 128) = (   0.6249998   0.5051824  -0.4825273  )
       129        Mo     tau( 129) = (   0.4999851   0.5773046  -0.0000631  )
       130        S      tau( 130) = (   0.4999998   0.4330136  -0.6064556  )
       131        S      tau( 131) = (   0.6249723   0.5051139  -0.1241565  )
       132        S      tau( 132) = (   0.4998783   0.5762956   0.3606843  )
       133        S      tau( 133) = (   0.4999999   0.4330135  -0.3584711  )
       134        S      tau( 134) = (   0.6250095   0.5052263   0.1241915  )
       135        S      tau( 135) = (   0.5006407   0.5846211   0.6091832  )
       136        Mo     tau( 136) = (   0.0000410   0.0004185   0.4809769  )
       137        Mo     tau( 137) = (   0.4999996   0.7216889  -0.4825273  )
       138        Mo     tau( 138) = (   0.3750036   0.7938273  -0.0000272  )
       139        S      tau( 139) = (   0.3749996   0.6495201  -0.6064556  )
       140        S      tau( 140) = (   0.4999499   0.7216482  -0.1241729  )
       141        S      tau( 141) = (   0.3750006   0.7941054   0.3569117  )
       142        S      tau( 142) = (   0.3749996   0.6495200  -0.3584711  )
       143        S      tau( 143) = (   0.5000314   0.7216102   0.1241515  )
       144        S      tau( 144) = (   0.3752329   0.7966920   0.6062052  )
       145        Pt     tau( 145) = (   0.2580795   0.4348292   0.7095693  )
       146        Pd     tau( 146) = (   0.4899479   0.4358638   0.7204770  )
       147        Pd     tau( 147) = (  -0.0009512   0.4330448   0.7322048  )

     --------------------------------------------
     DFT-D3 Dispersion Correction (3-body terms):
     --------------------------------------------
       Reference C6 values for interpolation: 

         atom   Coordination number   C6
         S          0.000           268.01
         S          0.995           261.99
         S          1.990           251.62
         Mo         0.000          1691.79
         Mo         1.942          1004.01
         Mo        11.056           674.22
         Pd         0.000          1217.01
         Pd         1.863           573.90
         Pd         5.710           531.75
         Pt         0.000           782.29
         Pt         1.919           692.72
         Pt         6.667           673.75

       Values used:

         atom   Coordination number  R0_AB[au]  C6      C8
         Mo        10.207            3.547    674.22  77634.20
         Mo        10.189            3.547    674.22  77634.20
         Mo        10.200            3.547    674.22  77634.20
         S          3.753            3.128    251.62  12327.25
         S          3.858            3.128    251.62  12327.25
         S          3.855            3.128    251.62  12327.25
         S          3.858            3.128    251.62  12327.25
         S          3.864            3.128    251.62  12327.25
         S          3.822            3.128    251.62  12327.25
         Mo        10.647            3.547    674.22  77634.20
         Mo        10.189            3.547    674.22  77634.20
         Mo        10.201            3.547    674.22  77634.20
         S          3.753            3.128    251.62  12327.25
         S          3.859            3.128    251.62  12327.25
         S          3.854            3.128    251.62  12327.25
         S          3.858            3.128    251.62  12327.25
         S          3.855            3.128    251.62  12327.25
         S          4.749            3.128    251.62  12327.25
         Mo        10.238            3.547    674.22  77634.20
         Mo        10.189            3.547    674.22  77634.20
         Mo        10.201            3.547    674.22  77634.20
         S          3.753            3.128    251.62  12327.25
         S          3.858            3.128    251.62  12327.25
         S          3.865            3.128    251.62  12327.25
         S          3.859            3.128    251.62  12327.25
         S          3.860            3.128    251.62  12327.25
         S          3.770            3.128    251.62  12327.25
         Mo        10.259            3.547    674.21  77634.20
         Mo        10.189            3.547    674.22  77634.20
         Mo        10.200            3.547    674.22  77634.20
         S          3.753            3.128    251.62  12327.25
         S          3.857            3.128    251.62  12327.25
         S          3.856            3.128    251.62  12327.25
         S          3.859            3.128    251.62  12327.25
         S          3.864            3.128    251.62  12327.25
         S          3.803            3.128    251.62  12327.25
         Mo        10.158            3.547    674.22  77634.20
         Mo        10.189            3.547    674.22  77634.20
         Mo        10.200            3.547    674.22  77634.20
         S          3.753            3.128    251.62  12327.25
         S          3.858            3.128    251.62  12327.25
         S          3.842            3.128    251.62  12327.25
         S          3.859            3.128    251.62  12327.25
         S          3.863            3.128    251.62  12327.25
         S          3.812            3.128    251.62  12327.25
         Mo        10.855            3.547    674.22  77634.20
         Mo        10.189            3.547    674.22  77634.20
         Mo        10.202            3.547    674.22  77634.20
         S          3.753            3.128    251.62  12327.25
         S          3.859            3.128    251.62  12327.25
         S          3.852            3.128    251.62  12327.25
         S          3.858            3.128    251.62  12327.25
         S          3.851            3.128    251.62  12327.25
         S          5.598            3.128    251.62  12327.25
         Mo        10.202            3.547    674.22  77634.20
         Mo        10.189            3.547    674.22  77634.20
         Mo        10.201            3.547    674.22  77634.20
         S          3.753            3.128    251.62  12327.25
         S          3.859            3.128    251.62  12327.25
         S          3.865            3.128    251.62  12327.25
         S          3.859            3.128    251.62  12327.25
         S          3.853            3.128    251.62  12327.25
         S          4.684            3.128    251.62  12327.25
         Mo        10.259            3.547    674.21  77634.20
         Mo        10.189            3.547    674.22  77634.20
         Mo        10.200            3.547    674.22  77634.20
         S          3.753            3.128    251.62  12327.25
         S          3.858            3.128    251.62  12327.25
         S          3.858            3.128    251.62  12327.25
         S          3.859            3.128    251.62  12327.25
         S          3.863            3.128    251.62  12327.25
         S          3.784            3.128    251.62  12327.25
         Mo        10.209            3.547    674.22  77634.20
         Mo        10.189            3.547    674.22  77634.20
         Mo        10.200            3.547    674.22  77634.20
         S          3.753            3.128    251.62  12327.25
         S          3.859            3.128    251.62  12327.25
         S          3.839            3.128    251.62  12327.25
         S          3.859            3.128    251.62  12327.25
         S          3.863            3.128    251.62  12327.25
         S          3.835            3.128    251.62  12327.25
         Mo        10.708            3.547    674.22  77634.20
         Mo        10.189            3.547    674.22  77634.20
         Mo        10.202            3.547    674.22  77634.20
         S          3.753            3.128    251.62  12327.25
         S          3.859            3.128    251.62  12327.25
         S          3.873            3.128    251.62  12327.25
         S          3.858            3.128    251.62  12327.25
         S          3.851            3.128    251.62  12327.25
         S          5.637            3.128    251.62  12327.25
         Mo        10.151            3.547    674.22  77634.20
         Mo        10.189            3.547    674.22  77634.20
         Mo        10.203            3.547    674.22  77634.20
         S          3.753            3.128    251.62  12327.25
         S          3.859            3.128    251.62  12327.25
         S          3.861            3.128    251.62  12327.25
         S          3.859            3.128    251.62  12327.25
         S          3.849            3.128    251.62  12327.25
         S          4.674            3.128    251.62  12327.25
         Mo        10.241            3.547    674.22  77634.20
         Mo        10.189            3.547    674.22  77634.20
         Mo        10.200            3.547    674.22  77634.20
         S          3.753            3.128    251.62  12327.25
         S          3.858            3.128    251.62  12327.25
         S          3.852            3.128    251.62  12327.25
         S          3.859            3.128    251.62  12327.25
         S          3.858            3.128    251.62  12327.25
         S          3.821            3.128    251.62  12327.25
         Mo        10.238            3.547    674.22  77634.20
         Mo        10.189            3.547    674.22  77634.20
         Mo        10.200            3.547    674.22  77634.20
         S          3.753            3.128    251.62  12327.25
         S          3.858            3.128    251.62  12327.25
         S          3.857            3.128    251.62  12327.25
         S          3.858            3.128    251.62  12327.25
         S          3.861            3.128    251.62  12327.25
         S          3.803            3.128    251.62  12327.25
         Mo        10.230            3.547    674.22  77634.20
         Mo        10.189            3.547    674.22  77634.20
         Mo        10.201            3.547    674.22  77634.20
         S          3.753            3.128    251.62  12327.25
         S          3.859            3.128    251.62  12327.25
         S          3.849            3.128    251.62  12327.25
         S          3.858            3.128    251.62  12327.25
         S          3.855            3.128    251.62  12327.25
         S          4.618            3.128    251.62  12327.25
         Mo        10.207            3.547    674.22  77634.20
         Mo        10.189            3.547    674.22  77634.20
         Mo        10.202            3.547    674.22  77634.20
         S          3.753            3.128    251.62  12327.25
         S          3.858            3.128    251.62  12327.25
         S          3.862            3.128    251.62  12327.25
         S          3.858            3.128    251.62  12327.25
         S          3.855            3.128    251.62  12327.25
         S          4.662            3.128    251.62  12327.25
         Mo        10.248            3.547    674.22  77634.20
         Mo        10.189            3.547    674.22  77634.20
         Mo        10.201            3.547    674.22  77634.20
         S          3.753            3.128    251.62  12327.25
         S          3.858            3.128    251.62  12327.25
         S          3.844            3.128    251.62  12327.25
         S          3.859            3.128    251.62  12327.25
         S          3.859            3.128    251.62  12327.25
         S          3.836            3.128    251.62  12327.25
         Pt         4.610            3.168    673.75  70061.91
         Pd         4.117            3.168    531.75  48720.87
         Pd         3.504            3.168    573.90  52582.40

         Molecular C6 ( Ry / a.u.^6 ) =   8065799.73


     number of k points=     4  Gaussian smearing, width (Ry)=  0.0100
                       cart. coord. in units 2pi/alat
        k(    1) = (   0.0000000   0.0000000   0.0000000), wk =   0.5000000
        k(    2) = (   0.0000000  -0.5773499   0.0000000), wk =   0.5000000
        k(    3) = (  -0.5000000  -0.2886755   0.0000000), wk =   0.5000000
        k(    4) = (  -0.5000000  -0.8660254   0.0000000), wk =   0.5000000

     Dense  grid:  5955087 G-vectors     FFT dimensions: ( 180, 180, 432)

     Smooth grid:  2572543 G-vectors     FFT dimensions: ( 135, 135, 320)

     Estimated max dynamical RAM per process >       3.08 GB

     Estimated total dynamical RAM >     110.88 GB

     Initial potential from superposition of free atoms

     starting charge    1315.9537, renormalised to    1316.0000

     negative rho (up, down):  1.041E-03 0.000E+00
     Starting wfcs are  901 randomized atomic wfcs
     Checking if some PAW data can be deallocated... 

     total cpu time spent up to now is       99.4 secs

     Self-consistent Calculation

     iteration #  1     ecut=    77.00 Ry     beta= 0.20
     Davidson diagonalization with overlap
     ethr =  1.00E-02,  avg # of iterations =  2.0

     Threshold (ethr) on eigenvalues was too large:
     Diagonalizing with lowered threshold

     Davidson diagonalization with overlap
     ethr =  2.26E-04,  avg # of iterations = 16.0

     negative rho (up, down):  3.405E-04 0.000E+00

     total cpu time spent up to now is     1039.9 secs

     total energy              =  -26543.57419304 Ry
     estimated scf accuracy    <       4.82493712 Ry

     iteration #  2     ecut=    77.00 Ry     beta= 0.20
     Davidson diagonalization with overlap
     ethr =  3.67E-04,  avg # of iterations =  4.8

     negative rho (up, down):  6.529E-05 0.000E+00

     total cpu time spent up to now is     1264.2 secs

     total energy              =  -26542.83447789 Ry
     estimated scf accuracy    <       2.35843309 Ry

     iteration #  3     ecut=    77.00 Ry     beta= 0.20
     Davidson diagonalization with overlap
     ethr =  1.79E-04,  avg # of iterations = 16.0

     negative rho (up, down):  5.091E-05 0.000E+00

     total cpu time spent up to now is     1549.1 secs

     total energy              =  -26543.15403907 Ry
     estimated scf accuracy    <       1.11650384 Ry

     iteration #  4     ecut=    77.00 Ry     beta= 0.20
     Davidson diagonalization with overlap
     ethr =  8.48E-05,  avg # of iterations =  8.2

     negative rho (up, down):  3.410E-05 0.000E+00

     total cpu time spent up to now is     1884.7 secs

     total energy              =  -26543.33418236 Ry
     estimated scf accuracy    <       0.38078119 Ry

     iteration #  5     ecut=    77.00 Ry     beta= 0.20
     Davidson diagonalization with overlap
     c_bands:  3 eigenvalues not converged
     ethr =  2.89E-05,  avg # of iterations = 18.8

     negative rho (up, down):  5.547E-05 0.000E+00

     total cpu time spent up to now is     2443.5 secs

     total energy              =  -26543.69496221 Ry
     estimated scf accuracy    <       0.13873805 Ry

     iteration #  6     ecut=    77.00 Ry     beta= 0.20
     Davidson diagonalization with overlap
     c_bands:  1 eigenvalues not converged
     c_bands:  3 eigenvalues not converged
     ethr =  1.05E-05,  avg # of iterations = 42.0

     negative rho (up, down):  1.195E-04 0.000E+00

     total cpu time spent up to now is     3158.6 secs

     total energy              =  -26543.73086454 Ry
     estimated scf accuracy    <       0.09289226 Ry

     iteration #  7     ecut=    77.00 Ry     beta= 0.20
     Davidson diagonalization with overlap
     c_bands:  2 eigenvalues not converged
     c_bands:  1 eigenvalues not converged
     ethr =  7.06E-06,  avg # of iterations = 12.8

     negative rho (up, down):  6.967E-04 0.000E+00

     total cpu time spent up to now is     3405.1 secs

     total energy              =  -26543.72729722 Ry
     estimated scf accuracy    <       0.05726701 Ry

     iteration #  8     ecut=    77.00 Ry     beta= 0.20
     Davidson diagonalization with overlap
     c_bands:  1 eigenvalues not converged
     c_bands:  1 eigenvalues not converged
     ethr =  4.35E-06,  avg # of iterations = 17.8

     negative rho (up, down):  6.188E-04 0.000E+00

     total cpu time spent up to now is     3851.3 secs

     total energy              =  -26543.74167084 Ry
     estimated scf accuracy    <       0.06306914 Ry

     iteration #  9     ecut=    77.00 Ry     beta= 0.20
     Davidson diagonalization with overlap
     c_bands:  1 eigenvalues not converged
     c_bands:  1 eigenvalues not converged
     ethr =  4.35E-06,  avg # of iterations = 11.0

     negative rho (up, down):  5.513E-04 0.000E+00

     total cpu time spent up to now is     4085.9 secs

     total energy              =  -26543.74163675 Ry
     estimated scf accuracy    <       0.00967314 Ry

     iteration # 10     ecut=    77.00 Ry     beta= 0.20
     Davidson diagonalization with overlap
     c_bands:  1 eigenvalues not converged
     c_bands:  1 eigenvalues not converged
     ethr =  7.35E-07,  avg # of iterations = 28.8

     negative rho (up, down):  6.252E-04 0.000E+00

     total cpu time spent up to now is     4918.6 secs

     total energy              =  -26543.75782066 Ry
     estimated scf accuracy    <       0.00906366 Ry

     iteration # 11     ecut=    77.00 Ry     beta= 0.20
     Davidson diagonalization with overlap
     ethr =  6.89E-07,  avg # of iterations =  3.8

     negative rho (up, down):  8.032E-04 0.000E+00

     total cpu time spent up to now is     5130.2 secs

     total energy              =  -26543.75532338 Ry
     estimated scf accuracy    <       0.00451353 Ry

     iteration # 12     ecut=    77.00 Ry     beta= 0.20
     Davidson diagonalization with overlap
     ethr =  3.43E-07,  avg # of iterations =  6.5

     negative rho (up, down):  8.764E-04 0.000E+00

     total cpu time spent up to now is     5484.1 secs

     total energy              =  -26543.75773022 Ry
     estimated scf accuracy    <       0.00028354 Ry

     iteration # 13     ecut=    77.00 Ry     beta= 0.20
     Davidson diagonalization with overlap
     c_bands:  1 eigenvalues not converged
     ethr =  2.15E-08,  avg # of iterations = 33.2

     negative rho (up, down):  8.234E-04 0.000E+00

     total cpu time spent up to now is     6801.1 secs

     total energy              =  -26543.75849976 Ry
     estimated scf accuracy    <       0.00172045 Ry

     iteration # 14     ecut=    77.00 Ry     beta= 0.20
     Davidson diagonalization with overlap
     ethr =  2.15E-08,  avg # of iterations =  8.8

     negative rho (up, down):  8.216E-04 0.000E+00

     total cpu time spent up to now is     7156.0 secs

     total energy              =  -26543.75849074 Ry
     estimated scf accuracy    <       0.00036516 Ry

     iteration # 15     ecut=    77.00 Ry     beta= 0.20
     Davidson diagonalization with overlap
     ethr =  2.15E-08,  avg # of iterations =  9.2

     negative rho (up, down):  8.983E-04 0.000E+00

     total cpu time spent up to now is     7571.2 secs

     total energy              =  -26543.75864991 Ry
     estimated scf accuracy    <       0.00010030 Ry

     iteration # 16     ecut=    77.00 Ry     beta= 0.20
     Davidson diagonalization with overlap
     ethr =  7.62E-09,  avg # of iterations = 11.2

     negative rho (up, down):  9.510E-04 0.000E+00

     total cpu time spent up to now is     7951.0 secs

     total energy              =  -26543.75862956 Ry
     estimated scf accuracy    <       0.00012381 Ry

     iteration # 17     ecut=    77.00 Ry     beta= 0.20
     Davidson diagonalization with overlap
     ethr =  7.62E-09,  avg # of iterations =  3.5

     negative rho (up, down):  9.565E-04 0.000E+00

     total cpu time spent up to now is     8172.0 secs

     total energy              =  -26543.75863078 Ry
     estimated scf accuracy    <       0.00001278 Ry

     iteration # 18     ecut=    77.00 Ry     beta= 0.20
     Davidson diagonalization with overlap
     c_bands:  1 eigenvalues not converged
     ethr =  9.71E-10,  avg # of iterations = 22.8

     negative rho (up, down):  9.539E-04 0.000E+00

     total cpu time spent up to now is     8916.6 secs

     total energy              =  -26543.75865495 Ry
     estimated scf accuracy    <       0.00000577 Ry

     iteration # 19     ecut=    77.00 Ry     beta= 0.20
     Davidson diagonalization with overlap
     ethr =  4.39E-10,  avg # of iterations =  9.2

     negative rho (up, down):  9.564E-04 0.000E+00

     total cpu time spent up to now is     9205.0 secs

     total energy              =  -26543.75865475 Ry
     estimated scf accuracy    <       0.00000263 Ry

     iteration # 20     ecut=    77.00 Ry     beta= 0.20
     Davidson diagonalization with overlap
     ethr =  2.00E-10,  avg # of iterations = 14.2

     negative rho (up, down):  9.586E-04 0.000E+00

     total cpu time spent up to now is     9614.3 secs

     total energy              =  -26543.75865486 Ry
     estimated scf accuracy    <       0.00000160 Ry

     iteration # 21     ecut=    77.00 Ry     beta= 0.20
     Davidson diagonalization with overlap
     ethr =  1.21E-10,  avg # of iterations = 11.2

     negative rho (up, down):  9.609E-04 0.000E+00

     total cpu time spent up to now is     9946.5 secs

     End of self-consistent calculation

          k = 0.0000 0.0000 0.0000 (321495 PWs)   bands (ev):

  -102.8551 -88.6484 -88.3053 -71.1883 -71.1806 -71.1642 -71.1516 -71.1414
   -71.1294 -71.1203 -66.6730 -66.6519 -66.6519 -66.6519 -66.6519 -66.6518
   -66.6518 -66.6307 -66.6307 -66.6307 -66.6307 -66.6307 -66.6307 -66.6307
   -66.6306 -66.6306 -66.6070 -66.5863 -66.5862 -66.5861 -66.5858 -66.5857
   -66.5856 -66.5654 -66.5651 -66.5650 -66.5648 -66.5648 -66.5647 -66.5645
   -66.5645 -66.5642 -66.5365 -66.5246 -66.5195 -66.5091 -66.5062 -66.5021
   -66.5001 -66.4944 -66.4890 -66.4810 -66.4787 -66.4669 -66.4632 -66.4535
   -66.4471 -66.4411 -57.1504 -57.0405 -57.0207 -54.5295 -54.4198 -54.3796
   -54.1611 -54.1199 -54.0438 -40.9993 -40.9993 -40.9993 -40.9324 -40.9323
   -40.9321 -40.9245 -40.9245 -40.9245 -40.9245 -40.9245 -40.9245 -40.8577
   -40.8576 -40.8576 -40.8575 -40.8574 -40.8572 -40.8554 -40.8496 -40.8434
   -40.8331 -40.7990 -40.7989 -40.7989 -40.7989 -40.7989 -40.7989 -40.7917
   -40.7917 -40.7917 -40.7917 -40.7917 -40.7917 -40.7836 -40.7796 -40.7684
   -40.7677 -40.7661 -40.7641 -40.7641 -40.7641 -40.7641 -40.7641 -40.7641
   -40.7557 -40.7500 -40.7500 -40.7500 -40.7500 -40.7500 -40.7500 -40.7499
   -40.7499 -40.7499 -40.7491 -40.7322 -40.7322 -40.7322 -40.7320 -40.7320
   -40.7319 -40.7266 -40.7265 -40.7264 -40.7262 -40.7261 -40.7260 -40.7072
   -40.6975 -40.6974 -40.6974 -40.6972 -40.6972 -40.6971 -40.6863 -40.6863
   -40.6863 -40.6852 -40.6850 -40.6849 -40.6847 -40.6846 -40.6846 -40.6845
   -40.6844 -40.6841 -40.6807 -40.6709 -40.6693 -40.6655 -40.6587 -40.6566
   -40.6548 -40.6531 -40.6482 -40.6398 -40.6395 -40.6395 -40.6395 -40.6395
   -40.6395 -40.6395 -40.6362 -40.6319 -40.6300 -40.6282 -40.6221 -40.6198
   -40.6196 -40.6196 -40.6195 -40.6191 -40.6159 -40.6132 -40.6116 -40.6081
   -40.6049 -40.6014 -40.5958 -40.5922 -40.5922 -40.5893 -40.5879 -40.5829
   -40.5731 -40.5729 -40.5729 -40.5727 -40.5726 -40.5725 -40.5407 -40.5290
   -40.5256 -40.5255 -40.5255 -40.4861 -40.4855 -40.4807 -40.4734 -40.4700
   -40.4646 -40.4271 -40.4133 -20.1521 -20.0785 -19.9200 -19.5622 -19.4193
   -19.2669 -19.2416 -19.2403 -19.2387 -19.2309 -19.2294 -19.2135 -19.1603
   -19.1493 -19.1339 -19.0859 -19.0828 -19.0701 -19.0481 -19.0396 -19.0188
   -18.8734 -18.7407 -18.7174 -18.5974 -18.5262 -18.4961 -18.4777 -18.4571
   -18.4498 -18.4358 -18.4066 -18.3749 -18.3545 -18.3400 -18.3215 -18.3077
   -18.2640 -18.2168 -18.2119 -18.1964 -18.1936 -18.1789 -18.1440 -18.1376
   -18.1328 -18.1323 -18.1321 -18.1319 -18.1317 -18.1302 -18.0923 -18.0920
   -18.0920 -18.0884 -18.0558 -18.0534 -18.0503 -18.0467 -18.0438 -18.0427
   -18.0212 -18.0196 -18.0178 -17.9876 -17.9811 -17.9679 -17.9632 -17.9589
   -17.9398 -17.9348 -17.9332 -17.9284 -17.9242 -17.9129 -17.9114 -17.9103
   -17.9062 -17.8849 -17.8756 -17.8709 -17.8603 -17.8556 -17.8473 -17.8423
   -17.8403 -17.8356 -17.8148 -17.8098 -17.8011 -17.7851 -17.7785 -17.7663
   -17.7634 -17.7605 -17.7503 -12.1713 -12.0376 -11.8941 -11.8378 -11.7478
   -11.7463 -11.7437 -11.6983 -11.6628 -11.6579 -11.6523 -11.4878 -11.3804
   -11.3282 -11.2992 -11.2389 -11.2204 -11.2060 -11.1980 -11.1957 -11.1889
   -11.1713 -11.1513 -11.1243 -11.1228 -11.1183 -11.1165 -11.1115 -11.1098
   -11.0846 -11.0319 -11.0214 -10.9937 -10.9811 -10.9754 -10.9701 -10.9651
   -10.9602 -10.9456 -10.9338 -10.9185 -10.9158 -10.8997 -10.8865 -10.8653
   -10.8532 -10.8424 -10.8358 -10.8295 -10.8239 -10.8237 -10.8221 -10.8215
   -10.8184 -10.8136 -10.7956 -10.7943 -10.7936 -10.7878 -10.7792 -10.7750
   -10.7743 -10.7718 -10.7703 -10.7522 -10.7310 -10.7060 -10.7009 -10.6933
   -10.6675 -10.6620 -10.6351 -10.6132 -10.6031 -10.5938 -10.5102 -10.4466
   -10.1725 -10.1439 -10.0809 -10.0530 -10.0401 -10.0322 -10.0311  -9.8966
    -9.8762  -9.8690  -9.8447  -9.8094  -9.7851  -9.7758  -9.7674  -9.7649
    -9.7483  -9.7408  -9.7316  -9.7003  -9.6973  -9.6815  -9.6810  -9.6557
    -9.6544  -9.6331  -9.6278  -9.6234  -9.6132  -9.6095  -9.6041  -9.5967
    -9.5870  -9.5748  -9.5690  -9.5680  -9.5669  -9.5648  -9.5634  -9.5584
    -9.5448  -9.5354  -9.5211  -9.4657  -9.4647  -9.4540  -9.4381  -9.4354
    -9.4264  -9.4127  -9.3787  -9.3645  -9.3621  -9.3494  -9.3445  -9.3241
    -9.3225  -9.3098  -9.3012  -9.2634  -9.2409  -9.2328  -9.2183  -9.2015
    -9.1926  -9.1879  -9.1822  -9.1494  -9.1313  -9.1158  -9.0889  -9.0598
    -9.0404  -9.0175  -9.0147  -9.0109  -9.0108  -9.0105  -9.0036  -8.9775
    -8.9477  -8.9353  -8.9331  -8.9245  -8.9157  -8.9137  -8.8802  -8.8471
    -8.8284  -8.8206  -8.8018  -8.7962  -8.7911  -8.7889  -8.7848  -8.7840
    -8.7702  -8.7562  -8.7516  -8.7465  -8.7374  -8.7300  -8.7231  -8.7202
    -8.7092  -8.7044  -8.6695  -8.5570  -8.5300  -8.4220  -8.4220  -8.3948
    -8.3495  -8.3494  -8.3443  -8.3338  -8.3101  -8.3100  -8.3098  -8.3098
    -8.3096  -8.3096  -8.2877  -8.2786  -8.2757  -8.2449  -8.2364  -8.2334
    -8.2329  -8.2322  -8.2282  -8.2148  -8.1691  -8.1472  -8.1012  -7.9895
    -7.9411  -7.9284  -7.9153  -7.8965  -7.8812  -7.7422  -7.7229  -7.6633
    -7.6603  -7.6225  -7.6001  -7.5863  -7.5749  -7.5745  -7.5743  -7.5742
    -7.5739  -7.5721  -7.5473  -7.5290  -7.5286  -7.5283  -7.5281  -7.5276
    -7.5274  -7.5188  -7.5070  -7.5052  -7.4995  -7.4954  -7.4928  -7.4855
    -7.4842  -7.4812  -7.4715  -7.4564  -7.4548  -7.4530  -7.4506  -7.4464
    -7.4457  -7.4391  -7.4286  -7.4196  -7.4153  -7.4135  -7.4113  -7.3978
    -7.3445  -7.3190  -7.3142  -7.2932  -7.2931  -7.2830  -7.2769  -7.2422
    -7.2238  -7.2228  -7.2047  -7.1795  -7.1201  -7.0986  -7.0426  -7.0222
    -6.9825  -6.9571  -6.9229  -6.9061  -6.8952  -6.8513  -6.8340  -6.8087
    -6.7959  -6.7873  -6.7833  -6.7717  -6.6970  -6.6701  -6.6593  -6.6568
    -6.6456  -6.6435  -6.6266  -6.6172  -6.6105  -6.6026  -6.5743  -6.5586
    -6.5436  -6.5300  -6.5190  -6.5162  -6.5106  -6.5045  -6.5039  -6.4945
    -6.4673  -6.4659  -6.4580  -6.4540  -6.4497  -6.4263  -6.4236  -6.4135
    -6.4086  -6.3978  -6.3715  -6.3412  -6.3411  -6.3411  -6.3411  -6.3411
    -6.3411  -6.3343  -6.3269  -6.3043  -6.2689  -6.2657  -6.2629  -6.2625
    -6.2622  -6.2615  -6.2431  -6.2306  -6.1975  -6.1767  -6.0986  -5.9911
    -5.9182  -5.8425  -5.7661  -5.6767  -5.6276  -5.4348  -5.3659  -5.3363
    -5.1948  -5.1035  -4.1667  -3.9300  -3.8448  -3.8264  -3.8254  -3.8227
    -3.8027  -3.7994  -3.7974  -3.7947  -3.7913  -3.7886  -3.7683  -3.7282
    -3.6502  -3.6101  -3.5997  -3.5856  -3.5806  -3.5706  -3.5650  -3.5617
    -3.5584  -3.5538  -3.4817  -3.4816  -3.4815  -3.4672  -3.4642  -3.4633
    -3.4623  -3.4619  -3.4610  -3.4291  -3.4148  -3.4144  -3.4140  -3.4036
    -3.3981  -3.3815  -3.3801  -3.3723  -3.3677  -3.3620  -3.3567  -3.3539
    -3.3509  -3.3450  -3.3393  -3.3318  -3.3199  -3.3098  -3.3006  -3.2851
    -3.2775  -3.2556  -3.2522  -3.2391  -3.2300  -3.2149  -3.1966  -3.1893
    -3.1388  -3.0218  -3.0162  -3.0158  -3.0142  -3.0102  -3.0101  -2.9716
    -2.9505  -2.9441  -2.9438  -2.9437  -2.9435  -2.9434  -2.9433  -2.9414
    -2.9387  -2.9348  -2.9247  -2.9220  -2.9128  -2.9086  -2.8959  -2.8911
    -2.8853  -2.8790  -2.8775  -2.8721  -2.8704  -2.8650  -2.8611  -2.8575
    -2.8550  -2.8417  -2.8227  -2.8139  -2.8058  -2.8013  -2.7842  -2.7785
    -2.7546  -2.7541  -2.7350  -2.7330  -2.7322  -2.7316  -2.7308  -2.7307
    -2.6911  -2.6852  -2.6808  -2.6655  -2.6449  -2.6391  -2.6172  -2.6117
    -2.5949  -2.5729  -2.5425  -2.5318  -2.5266  -2.5218  -2.5105  -2.5058
    -2.4898  -2.4765  -2.4595  -2.4550  -2.4345  -2.4310

          k = 0.0000-0.5773 0.0000 (321564 PWs)   bands (ev):

  -102.8551 -88.6484 -88.3053 -71.1883 -71.1806 -71.1642 -71.1516 -71.1414
   -71.1294 -71.1203 -66.6668 -66.6668 -66.6562 -66.6562 -66.6413 -66.6413
   -66.6413 -66.6413 -66.6369 -66.6369 -66.6307 -66.6307 -66.6306 -66.6306
   -66.6263 -66.6263 -66.6011 -66.6007 -66.5904 -66.5903 -66.5756 -66.5755
   -66.5752 -66.5752 -66.5712 -66.5708 -66.5653 -66.5649 -66.5647 -66.5642
   -66.5604 -66.5603 -66.5359 -66.5249 -66.5198 -66.5113 -66.5067 -66.5008
   -66.4973 -66.4943 -66.4904 -66.4807 -66.4791 -66.4671 -66.4630 -66.4536
   -66.4471 -66.4410 -57.1504 -57.0405 -57.0207 -54.5295 -54.4198 -54.3796
   -54.1611 -54.1199 -54.0438 -40.9679 -40.9679 -40.9679 -40.9679 -40.9413
   -40.9412 -40.9293 -40.9293 -40.9013 -40.9009 -40.9008 -40.9005 -40.8789
   -40.8789 -40.8789 -40.8789 -40.8744 -40.8741 -40.8623 -40.8623 -40.8438
   -40.8229 -40.8210 -40.8210 -40.8120 -40.8120 -40.8119 -40.8119 -40.8110
   -40.8110 -40.8066 -40.8011 -40.8003 -40.8003 -40.7885 -40.7791 -40.7783
   -40.7709 -40.7709 -40.7709 -40.7709 -40.7636 -40.7622 -40.7622 -40.7558
   -40.7554 -40.7500 -40.7500 -40.7500 -40.7500 -40.7500 -40.7499 -40.7442
   -40.7441 -40.7414 -40.7413 -40.7349 -40.7349 -40.7321 -40.7273 -40.7194
   -40.7192 -40.7192 -40.7192 -40.7192 -40.7057 -40.7057 -40.7053 -40.7053
   -40.7018 -40.6993 -40.6971 -40.6967 -40.6925 -40.6852 -40.6847 -40.6847
   -40.6847 -40.6847 -40.6847 -40.6846 -40.6842 -40.6832 -40.6831 -40.6760
   -40.6760 -40.6754 -40.6726 -40.6726 -40.6724 -40.6574 -40.6535 -40.6534
   -40.6527 -40.6526 -40.6524 -40.6522 -40.6520 -40.6490 -40.6428 -40.6411
   -40.6366 -40.6366 -40.6365 -40.6315 -40.6299 -40.6247 -40.6180 -40.6180
   -40.6179 -40.6179 -40.6167 -40.6123 -40.6102 -40.6061 -40.6061 -40.6061
   -40.6057 -40.5999 -40.5960 -40.5902 -40.5889 -40.5870 -40.5865 -40.5770
   -40.5723 -40.5699 -40.5698 -40.5547 -40.5456 -40.5396 -40.5393 -40.5392
   -40.5298 -40.5234 -40.5179 -40.5140 -40.5008 -40.4945 -40.4909 -40.4771
   -40.4621 -40.4500 -40.4170 -20.0257 -19.8707 -19.8550 -19.7699 -19.6953
   -19.6492 -19.5647 -19.4463 -19.4229 -19.3906 -19.2732 -19.2567 -19.0454
   -18.9362 -18.8038 -18.7416 -18.7313 -18.7275 -18.7222 -18.7197 -18.6939
   -18.6881 -18.6465 -18.6081 -18.6061 -18.5891 -18.5821 -18.5624 -18.5319
   -18.5290 -18.5063 -18.4774 -18.4737 -18.4573 -18.4365 -18.4106 -18.3914
   -18.3839 -18.3803 -18.3568 -18.2948 -18.2833 -18.2720 -18.2572 -18.2300
   -18.2085 -18.2067 -18.1782 -18.1355 -18.1323 -18.1131 -18.1128 -18.1126
   -18.1124 -18.1120 -18.1084 -18.0970 -18.0751 -18.0391 -18.0381 -18.0369
   -18.0327 -18.0298 -18.0101 -18.0021 -17.9997 -17.9934 -17.9755 -17.9619
   -17.9574 -17.9388 -17.9323 -17.9273 -17.9169 -17.9125 -17.9017 -17.8825
   -17.8630 -17.8522 -17.8492 -17.8492 -17.8482 -17.8222 -17.8120 -17.7994
   -17.7895 -17.7892 -17.7806 -17.7731 -17.7724 -17.7707 -17.7665 -17.7304
   -17.7294 -17.6747 -17.6673 -12.1077 -11.9335 -11.7092 -11.6719 -11.6365
   -11.5033 -11.4617 -11.4607 -11.4584 -11.4569 -11.4382 -11.4266 -11.4194
   -11.3906 -11.3838 -11.3748 -11.3610 -11.3493 -11.3450 -11.3237 -11.3062
   -11.3045 -11.2963 -11.2833 -11.2646 -11.2461 -11.2421 -11.2420 -11.2274
   -11.1965 -11.1946 -11.1663 -11.1392 -11.1382 -11.1216 -11.1128 -11.0796
   -11.0581 -10.9993 -10.9786 -10.9642 -10.9520 -10.9443 -10.9130 -10.9053
   -10.9029 -10.8908 -10.8810 -10.8686 -10.8638 -10.8340 -10.8258 -10.8182
   -10.8174 -10.8154 -10.8139 -10.8080 -10.8074 -10.7893 -10.7642 -10.7520
   -10.7481 -10.7417 -10.7312 -10.6948 -10.6254 -10.5984 -10.5826 -10.4984
   -10.4770 -10.4379 -10.3670 -10.3276 -10.2788 -10.2460 -10.1804 -10.1560
   -10.1387 -10.1176 -10.1114 -10.0889 -10.0793 -10.0582 -10.0422  -9.9980
    -9.9686  -9.9623  -9.9382  -9.9281  -9.9226  -9.9190  -9.9138  -9.9049
    -9.8855  -9.8776  -9.8718  -9.8698  -9.8612  -9.8078  -9.7897  -9.7700
    -9.7539  -9.7282  -9.7222  -9.7150  -9.7003  -9.6979  -9.6951  -9.6828
    -9.6795  -9.6505  -9.6418  -9.6398  -9.6374  -9.6286  -9.6018  -9.5781
    -9.5701  -9.5274  -9.5184  -9.5172  -9.5115  -9.4617  -9.4589  -9.4478
    -9.4435  -9.3411  -9.3330  -9.2936  -9.2879  -9.2763  -9.2576  -9.2063
    -9.1910  -9.1765  -9.1527  -9.1341  -9.1312  -9.1256  -9.1248  -9.1087
    -9.0988  -9.0810  -9.0758  -9.0649  -9.0490  -9.0345  -9.0240  -9.0170
    -9.0155  -9.0121  -8.9662  -8.9627  -8.9591  -8.9567  -8.9501  -8.9392
    -8.9339  -8.9253  -8.9172  -8.9108  -8.9029  -8.8919  -8.8664  -8.8603
    -8.8546  -8.8505  -8.8433  -8.8404  -8.8247  -8.8244  -8.8242  -8.8022
    -8.7966  -8.7851  -8.7762  -8.7672  -8.7575  -8.7465  -8.7406  -8.7328
    -8.7117  -8.6321  -8.5840  -8.5586  -8.5104  -8.4970  -8.4968  -8.4265
    -8.4155  -8.4141  -8.3727  -8.3069  -8.2895  -8.2307  -8.2122  -8.1784
    -8.1783  -8.1506  -8.1070  -8.1057  -8.0834  -8.0542  -8.0186  -8.0022
    -7.9844  -7.9565  -7.9167  -7.9154  -7.8776  -7.8563  -7.8464  -7.8442
    -7.8352  -7.8321  -7.8317  -7.8314  -7.8305  -7.8286  -7.8097  -7.7992
    -7.7858  -7.7857  -7.7844  -7.7823  -7.7638  -7.7618  -7.7563  -7.7448
    -7.7436  -7.7306  -7.7265  -7.7193  -7.7161  -7.7109  -7.7082  -7.7029
    -7.6906  -7.6786  -7.6750  -7.6627  -7.6500  -7.6483  -7.6465  -7.6463
    -7.6259  -7.6223  -7.6003  -7.5863  -7.5749  -7.5732  -7.5603  -7.5576
    -7.5310  -7.5233  -7.5008  -7.4797  -7.4642  -7.4458  -7.4219  -7.3919
    -7.3135  -7.2664  -7.2630  -7.2188  -7.2161  -7.2103  -7.2012  -7.1495
    -7.1258  -7.0743  -7.0587  -7.0504  -7.0147  -7.0057  -7.0013  -6.9944
    -6.9794  -6.9713  -6.9352  -6.9316  -6.9130  -6.8896  -6.8785  -6.8663
    -6.8608  -6.8401  -6.8264  -6.8132  -6.7576  -6.7414  -6.7215  -6.7140
    -6.6767  -6.6709  -6.6517  -6.6434  -6.6434  -6.6433  -6.6430  -6.6375
    -6.6282  -6.5913  -6.5840  -6.5772  -6.5734  -6.5724  -6.5695  -6.5560
    -6.5534  -6.5113  -6.4528  -6.4480  -6.4345  -6.3686  -6.3127  -6.3117
    -6.3115  -6.3112  -6.2966  -6.2755  -6.2560  -6.2510  -6.2389  -6.2339
    -6.2287  -6.2283  -6.2265  -6.2204  -6.2107  -6.1791  -6.1713  -6.1281
    -6.0807  -5.9632  -5.9632  -5.9143  -5.8869  -5.8857  -5.8763  -5.7931
    -5.7541  -5.7126  -5.6609  -5.6212  -5.5775  -5.5190  -5.4356  -5.3639
    -5.2722  -5.1620  -4.1632  -4.0503  -4.0031  -3.9968  -3.9625  -3.9075
    -3.8785  -3.8785  -3.8501  -3.8330  -3.8137  -3.8135  -3.7674  -3.7530
    -3.7448  -3.7424  -3.6936  -3.6791  -3.6423  -3.5919  -3.5868  -3.5794
    -3.5788  -3.5720  -3.5643  -3.5641  -3.5426  -3.5322  -3.5198  -3.4963
    -3.4866  -3.4828  -3.4761  -3.4696  -3.4628  -3.4613  -3.4475  -3.4434
    -3.4399  -3.4090  -3.3834  -3.3659  -3.3616  -3.3398  -3.3318  -3.3312
    -3.3294  -3.3021  -3.3004  -3.2964  -3.2940  -3.2766  -3.2613  -3.2567
    -3.2548  -3.2544  -3.2498  -3.2453  -3.2353  -3.2185  -3.2084  -3.1978
    -3.1940  -3.1903  -3.1840  -3.1794  -3.1685  -3.1586  -3.1418  -3.1275
    -3.1146  -3.1060  -3.0891  -3.0712  -3.0522  -3.0484  -3.0243  -3.0152
    -3.0107  -3.0071  -2.9958  -2.9919  -2.9911  -2.9907  -2.9648  -2.9598
    -2.9448  -2.9422  -2.9375  -2.9291  -2.9178  -2.9074  -2.9003  -2.8974
    -2.8946  -2.8879  -2.8782  -2.8701  -2.8644  -2.8548  -2.8482  -2.8441
    -2.8212  -2.7891  -2.7847  -2.7798  -2.7760  -2.7380  -2.7282  -2.7163
    -2.6945  -2.6903  -2.6363  -2.6319  -2.6293  -2.6249  -2.6177  -2.6115
    -2.5509  -2.5433  -2.5028  -2.4927  -2.4838  -2.4792  -2.4727  -2.4339
    -2.4232  -2.3534  -2.3439  -2.3227  -2.2854  -2.2739

          k =-0.5000-0.2887 0.0000 (321564 PWs)   bands (ev):

  -102.8551 -88.6484 -88.3053 -71.1883 -71.1806 -71.1642 -71.1516 -71.1414
   -71.1294 -71.1203 -66.6668 -66.6668 -66.6562 -66.6562 -66.6413 -66.6413
   -66.6413 -66.6413 -66.6369 -66.6369 -66.6307 -66.6307 -66.6307 -66.6307
   -66.6263 -66.6263 -66.6010 -66.6008 -66.5904 -66.5902 -66.5756 -66.5754
   -66.5753 -66.5753 -66.5711 -66.5709 -66.5650 -66.5648 -66.5647 -66.5646
   -66.5605 -66.5603 -66.5327 -66.5319 -66.5123 -66.5110 -66.5090 -66.5036
   -66.4972 -66.4931 -66.4906 -66.4811 -66.4788 -66.4674 -66.4620 -66.4541
   -66.4471 -66.4410 -57.1504 -57.0405 -57.0207 -54.5295 -54.4198 -54.3796
   -54.1611 -54.1199 -54.0438 -40.9679 -40.9679 -40.9679 -40.9679 -40.9413
   -40.9413 -40.9293 -40.9293 -40.9010 -40.9008 -40.9008 -40.9008 -40.8789
   -40.8789 -40.8789 -40.8789 -40.8743 -40.8741 -40.8624 -40.8622 -40.8258
   -40.8237 -40.8210 -40.8210 -40.8156 -40.8120 -40.8120 -40.8119 -40.8118
   -40.8115 -40.8110 -40.8110 -40.8012 -40.8003 -40.8003 -40.7964 -40.7709
   -40.7709 -40.7709 -40.7709 -40.7678 -40.7622 -40.7622 -40.7557 -40.7555
   -40.7500 -40.7500 -40.7500 -40.7500 -40.7500 -40.7500 -40.7485 -40.7442
   -40.7441 -40.7414 -40.7413 -40.7349 -40.7348 -40.7267 -40.7192 -40.7192
   -40.7192 -40.7192 -40.7177 -40.7112 -40.7057 -40.7055 -40.7055 -40.7054
   -40.7048 -40.6990 -40.6970 -40.6968 -40.6922 -40.6849 -40.6847 -40.6847
   -40.6847 -40.6847 -40.6846 -40.6845 -40.6845 -40.6832 -40.6831 -40.6799
   -40.6761 -40.6760 -40.6726 -40.6726 -40.6708 -40.6547 -40.6535 -40.6534
   -40.6526 -40.6525 -40.6523 -40.6522 -40.6513 -40.6498 -40.6463 -40.6448
   -40.6411 -40.6366 -40.6366 -40.6357 -40.6284 -40.6224 -40.6181 -40.6180
   -40.6179 -40.6178 -40.6154 -40.6131 -40.6061 -40.6061 -40.6060 -40.6059
   -40.6058 -40.6042 -40.5973 -40.5935 -40.5885 -40.5868 -40.5866 -40.5715
   -40.5700 -40.5697 -40.5679 -40.5664 -40.5587 -40.5395 -40.5393 -40.5357
   -40.5292 -40.5262 -40.5123 -40.5093 -40.5025 -40.5006 -40.4866 -40.4701
   -40.4516 -40.4444 -40.4318 -20.0061 -19.8795 -19.8550 -19.8107 -19.6966
   -19.6751 -19.4895 -19.4441 -19.4179 -19.3874 -19.2707 -19.2555 -19.0729
   -18.9437 -18.8144 -18.7399 -18.7358 -18.7275 -18.7224 -18.7195 -18.7126
   -18.6756 -18.6365 -18.6096 -18.5969 -18.5922 -18.5857 -18.5767 -18.5397
   -18.5376 -18.4942 -18.4778 -18.4724 -18.4483 -18.4359 -18.4153 -18.3984
   -18.3829 -18.3653 -18.3435 -18.3153 -18.2824 -18.2532 -18.2333 -18.2270
   -18.2169 -18.1804 -18.1687 -18.1458 -18.1384 -18.1324 -18.1127 -18.1125
   -18.1125 -18.1123 -18.0949 -18.0792 -18.0663 -18.0489 -18.0406 -18.0375
   -18.0323 -18.0294 -18.0260 -18.0220 -17.9954 -17.9839 -17.9743 -17.9730
   -17.9653 -17.9377 -17.9320 -17.9269 -17.9245 -17.9234 -17.9104 -17.8707
   -17.8688 -17.8631 -17.8556 -17.8492 -17.8491 -17.8137 -17.8072 -17.7938
   -17.7894 -17.7893 -17.7833 -17.7732 -17.7728 -17.7656 -17.7554 -17.7298
   -17.7290 -17.6733 -17.6672 -12.0619 -11.8846 -11.7270 -11.6957 -11.6514
   -11.5875 -11.5214 -11.4680 -11.4603 -11.4576 -11.4549 -11.4391 -11.4364
   -11.4213 -11.4072 -11.3680 -11.3597 -11.3522 -11.3488 -11.3348 -11.3172
   -11.2972 -11.2865 -11.2720 -11.2629 -11.2420 -11.2420 -11.2074 -11.1963
   -11.1958 -11.1668 -11.1447 -11.1435 -11.1403 -11.1348 -11.0607 -11.0537
   -11.0391 -11.0120 -10.9919 -10.9626 -10.9563 -10.9243 -10.9124 -10.9017
   -10.8959 -10.8940 -10.8756 -10.8710 -10.8498 -10.8285 -10.8260 -10.8186
   -10.8157 -10.8152 -10.8128 -10.8084 -10.8062 -10.7921 -10.7843 -10.7516
   -10.7480 -10.7450 -10.7380 -10.6564 -10.6144 -10.5831 -10.5612 -10.4887
   -10.4764 -10.4229 -10.3816 -10.3562 -10.3030 -10.2746 -10.2477 -10.1386
   -10.1238 -10.1060 -10.0990 -10.0914 -10.0679 -10.0312 -10.0104 -10.0015
    -9.9719  -9.9460  -9.9335  -9.9307  -9.9184  -9.9118  -9.9059  -9.9056
    -9.8843  -9.8811  -9.8664  -9.8642  -9.8162  -9.7829  -9.7786  -9.7546
    -9.7488  -9.7390  -9.7258  -9.7142  -9.7011  -9.6997  -9.6895  -9.6838
    -9.6696  -9.6608  -9.6550  -9.6407  -9.6310  -9.6038  -9.5977  -9.5905
    -9.5424  -9.5351  -9.5292  -9.5182  -9.5151  -9.5092  -9.4660  -9.4555
    -9.4477  -9.4304  -9.3845  -9.3699  -9.3333  -9.3039  -9.2406  -9.2052
    -9.1994  -9.1763  -9.1714  -9.1556  -9.1419  -9.1311  -9.1204  -9.1007
    -9.0915  -9.0818  -9.0673  -9.0446  -9.0340  -9.0308  -9.0279  -9.0076
    -9.0019  -8.9882  -8.9825  -8.9698  -8.9604  -8.9459  -8.9414  -8.9311
    -8.9238  -8.9205  -8.9185  -8.9040  -8.8923  -8.8733  -8.8606  -8.8520
    -8.8434  -8.8421  -8.8367  -8.8315  -8.8254  -8.8244  -8.8231  -8.8170
    -8.8120  -8.7995  -8.7967  -8.7662  -8.7559  -8.7480  -8.7405  -8.7241
    -8.6961  -8.6689  -8.5851  -8.5456  -8.4973  -8.4969  -8.4580  -8.4442
    -8.4151  -8.4091  -8.3965  -8.3504  -8.2728  -8.2263  -8.1784  -8.1784
    -8.1774  -8.1372  -8.1119  -8.1062  -8.1057  -8.0811  -8.0340  -7.9715
    -7.9472  -7.9221  -7.9166  -7.9061  -7.8698  -7.8532  -7.8460  -7.8420
    -7.8350  -7.8336  -7.8317  -7.8316  -7.8248  -7.8233  -7.8004  -7.7933
    -7.7864  -7.7849  -7.7814  -7.7804  -7.7644  -7.7621  -7.7594  -7.7460
    -7.7361  -7.7327  -7.7300  -7.7243  -7.7111  -7.7075  -7.7024  -7.6958
    -7.6896  -7.6749  -7.6737  -7.6539  -7.6503  -7.6465  -7.6465  -7.6371
    -7.6256  -7.6168  -7.6086  -7.5970  -7.5854  -7.5789  -7.5710  -7.5517
    -7.5423  -7.5207  -7.5081  -7.5042  -7.4603  -7.4445  -7.4130  -7.3075
    -7.2973  -7.2875  -7.2387  -7.2213  -7.2152  -7.2100  -7.1694  -7.1470
    -7.1309  -7.1097  -7.0725  -7.0665  -7.0394  -7.0277  -7.0040  -7.0016
    -6.9949  -6.9940  -6.9790  -6.9635  -6.9264  -6.9051  -6.8887  -6.8855
    -6.8722  -6.8674  -6.8290  -6.8143  -6.7856  -6.7279  -6.7194  -6.7058
    -6.6836  -6.6657  -6.6530  -6.6434  -6.6433  -6.6433  -6.6431  -6.6265
    -6.6225  -6.5883  -6.5775  -6.5745  -6.5737  -6.5694  -6.5638  -6.5572
    -6.5277  -6.4727  -6.4646  -6.4465  -6.4370  -6.3970  -6.3401  -6.3121
    -6.3115  -6.3112  -6.3107  -6.2666  -6.2498  -6.2413  -6.2359  -6.2304
    -6.2277  -6.2258  -6.2243  -6.2048  -6.1962  -6.1745  -6.1566  -6.0456
    -5.9728  -5.9632  -5.9631  -5.9126  -5.8886  -5.8832  -5.8655  -5.8506
    -5.7597  -5.7219  -5.6297  -5.6185  -5.5423  -5.5098  -5.4844  -5.4361
    -5.2720  -5.1991  -4.2055  -4.0288  -4.0083  -4.0021  -3.9748  -3.8807
    -3.8787  -3.8787  -3.8403  -3.8238  -3.8141  -3.8139  -3.7893  -3.7675
    -3.7588  -3.7419  -3.7128  -3.6784  -3.6101  -3.5887  -3.5873  -3.5813
    -3.5798  -3.5677  -3.5644  -3.5640  -3.5620  -3.5405  -3.5081  -3.4931
    -3.4866  -3.4826  -3.4703  -3.4619  -3.4586  -3.4540  -3.4492  -3.4441
    -3.4088  -3.3843  -3.3796  -3.3582  -3.3469  -3.3412  -3.3351  -3.3322
    -3.3298  -3.3086  -3.3001  -3.2962  -3.2920  -3.2847  -3.2744  -3.2567
    -3.2552  -3.2543  -3.2539  -3.2447  -3.2212  -3.2164  -3.2146  -3.2083
    -3.1954  -3.1854  -3.1805  -3.1761  -3.1669  -3.1620  -3.1459  -3.1305
    -3.1090  -3.1000  -3.0813  -3.0702  -3.0516  -3.0492  -3.0284  -3.0232
    -3.0115  -3.0097  -2.9916  -2.9912  -2.9908  -2.9907  -2.9590  -2.9475
    -2.9419  -2.9417  -2.9287  -2.9164  -2.9128  -2.9088  -2.9064  -2.8972
    -2.8878  -2.8788  -2.8769  -2.8696  -2.8620  -2.8587  -2.8368  -2.8339
    -2.8122  -2.8067  -2.7979  -2.7835  -2.7811  -2.7651  -2.7284  -2.7171
    -2.6887  -2.6862  -2.6546  -2.6365  -2.6320  -2.6296  -2.6266  -2.6125
    -2.5534  -2.5438  -2.5129  -2.5015  -2.4928  -2.4775  -2.4759  -2.4486
    -2.3687  -2.3623  -2.3322  -2.2759  -2.2492  -2.2333

          k =-0.5000-0.8660 0.0000 (321564 PWs)   bands (ev):

  -102.8551 -88.6484 -88.3053 -71.1883 -71.1806 -71.1642 -71.1516 -71.1414
   -71.1294 -71.1203 -66.6668 -66.6668 -66.6562 -66.6562 -66.6413 -66.6413
   -66.6413 -66.6413 -66.6369 -66.6369 -66.6307 -66.6307 -66.6307 -66.6307
   -66.6263 -66.6263 -66.6009 -66.6008 -66.5904 -66.5902 -66.5755 -66.5755
   -66.5754 -66.5752 -66.5710 -66.5709 -66.5649 -66.5648 -66.5648 -66.5646
   -66.5604 -66.5603 -66.5326 -66.5320 -66.5124 -66.5108 -66.5085 -66.5040
   -66.4985 -66.4929 -66.4896 -66.4805 -66.4792 -66.4678 -66.4620 -66.4539
   -66.4472 -66.4410 -57.1504 -57.0405 -57.0207 -54.5295 -54.4198 -54.3796
   -54.1611 -54.1199 -54.0438 -40.9679 -40.9679 -40.9679 -40.9679 -40.9413
   -40.9413 -40.9293 -40.9293 -40.9010 -40.9009 -40.9008 -40.9008 -40.8789
   -40.8789 -40.8789 -40.8789 -40.8743 -40.8742 -40.8624 -40.8622 -40.8265
   -40.8252 -40.8210 -40.8210 -40.8179 -40.8120 -40.8120 -40.8119 -40.8119
   -40.8110 -40.8110 -40.8075 -40.8011 -40.8003 -40.8003 -40.7943 -40.7709
   -40.7709 -40.7709 -40.7709 -40.7683 -40.7622 -40.7622 -40.7556 -40.7555
   -40.7500 -40.7500 -40.7500 -40.7500 -40.7500 -40.7500 -40.7479 -40.7442
   -40.7441 -40.7414 -40.7413 -40.7350 -40.7348 -40.7258 -40.7201 -40.7192
   -40.7192 -40.7192 -40.7192 -40.7106 -40.7068 -40.7056 -40.7056 -40.7055
   -40.7054 -40.6989 -40.6969 -40.6968 -40.6907 -40.6847 -40.6847 -40.6847
   -40.6847 -40.6847 -40.6847 -40.6847 -40.6845 -40.6832 -40.6831 -40.6806
   -40.6761 -40.6760 -40.6726 -40.6726 -40.6703 -40.6577 -40.6535 -40.6534
   -40.6525 -40.6525 -40.6524 -40.6523 -40.6518 -40.6495 -40.6458 -40.6437
   -40.6418 -40.6366 -40.6366 -40.6320 -40.6274 -40.6261 -40.6180 -40.6180
   -40.6179 -40.6179 -40.6168 -40.6120 -40.6070 -40.6061 -40.6061 -40.6060
   -40.6058 -40.6020 -40.5985 -40.5931 -40.5886 -40.5868 -40.5866 -40.5715
   -40.5699 -40.5698 -40.5673 -40.5647 -40.5606 -40.5395 -40.5394 -40.5330
   -40.5269 -40.5233 -40.5177 -40.5142 -40.5009 -40.4989 -40.4858 -40.4687
   -40.4523 -40.4493 -40.4285 -20.0025 -19.8824 -19.8550 -19.8166 -19.6971
   -19.6767 -19.4729 -19.4441 -19.4141 -19.3865 -19.2685 -19.2560 -19.1224
   -18.9074 -18.7960 -18.7489 -18.7407 -18.7264 -18.7224 -18.7198 -18.7123
   -18.6849 -18.6325 -18.6094 -18.6005 -18.5940 -18.5847 -18.5728 -18.5408
   -18.5366 -18.4952 -18.4778 -18.4730 -18.4484 -18.4356 -18.4184 -18.3949
   -18.3861 -18.3662 -18.3418 -18.3094 -18.2865 -18.2533 -18.2319 -18.2278
   -18.2141 -18.1814 -18.1710 -18.1451 -18.1410 -18.1297 -18.1127 -18.1125
   -18.1124 -18.1124 -18.0945 -18.0830 -18.0685 -18.0485 -18.0409 -18.0373
   -18.0328 -18.0269 -18.0255 -18.0232 -17.9956 -17.9831 -17.9773 -17.9679
   -17.9655 -17.9369 -17.9331 -17.9281 -17.9244 -17.9202 -17.9126 -17.8734
   -17.8675 -17.8642 -17.8541 -17.8491 -17.8491 -17.8122 -17.8076 -17.7952
   -17.7893 -17.7892 -17.7809 -17.7732 -17.7729 -17.7665 -17.7547 -17.7300
   -17.7291 -17.6740 -17.6669 -12.0501 -11.8905 -11.7465 -11.6984 -11.6613
   -11.5900 -11.5117 -11.4643 -11.4590 -11.4568 -11.4545 -11.4444 -11.4341
   -11.4112 -11.3958 -11.3666 -11.3590 -11.3564 -11.3522 -11.3293 -11.3168
   -11.2970 -11.2859 -11.2717 -11.2663 -11.2420 -11.2420 -11.2129 -11.1963
   -11.1962 -11.1573 -11.1482 -11.1460 -11.1393 -11.1368 -11.0657 -11.0525
   -11.0308 -11.0103 -10.9843 -10.9703 -10.9607 -10.9281 -10.9177 -10.8972
   -10.8952 -10.8930 -10.8801 -10.8667 -10.8455 -10.8328 -10.8290 -10.8185
   -10.8156 -10.8151 -10.8135 -10.8091 -10.8063 -10.7944 -10.7782 -10.7508
   -10.7496 -10.7438 -10.7373 -10.6476 -10.6166 -10.5823 -10.5360 -10.4884
   -10.4803 -10.4306 -10.4206 -10.3455 -10.3108 -10.2589 -10.2227 -10.1428
   -10.1224 -10.1043 -10.0953 -10.0844 -10.0789 -10.0257 -10.0192 -10.0008
    -9.9807  -9.9460  -9.9393  -9.9353  -9.9218  -9.9117  -9.9108  -9.9043
    -9.8868  -9.8808  -9.8674  -9.8653  -9.8177  -9.7883  -9.7674  -9.7547
    -9.7490  -9.7413  -9.7250  -9.7198  -9.7003  -9.6983  -9.6860  -9.6826
    -9.6721  -9.6604  -9.6574  -9.6390  -9.6276  -9.6026  -9.6015  -9.5972
    -9.5437  -9.5388  -9.5311  -9.5170  -9.5133  -9.5079  -9.4653  -9.4556
    -9.4507  -9.4200  -9.3737  -9.3709  -9.3281  -9.2998  -9.2587  -9.2054
    -9.1953  -9.1739  -9.1678  -9.1578  -9.1428  -9.1369  -9.1172  -9.1000
    -9.0916  -9.0841  -9.0681  -9.0471  -9.0301  -9.0271  -9.0260  -9.0114
    -9.0034  -8.9922  -8.9787  -8.9717  -8.9559  -8.9493  -8.9431  -8.9315
    -8.9249  -8.9179  -8.9177  -8.9052  -8.8935  -8.8712  -8.8587  -8.8459
    -8.8429  -8.8427  -8.8376  -8.8339  -8.8252  -8.8240  -8.8227  -8.8154
    -8.8104  -8.8019  -8.8002  -8.7654  -8.7580  -8.7487  -8.7394  -8.7278
    -8.7000  -8.6561  -8.5992  -8.5417  -8.4972  -8.4969  -8.4650  -8.4456
    -8.4157  -8.4055  -8.3854  -8.3494  -8.3038  -8.1971  -8.1802  -8.1784
    -8.1783  -8.1414  -8.1114  -8.1064  -8.1055  -8.0744  -8.0166  -7.9894
    -7.9379  -7.9218  -7.9147  -7.9057  -7.8649  -7.8529  -7.8467  -7.8417
    -7.8365  -7.8323  -7.8317  -7.8316  -7.8227  -7.8203  -7.8058  -7.7888
    -7.7861  -7.7858  -7.7840  -7.7715  -7.7665  -7.7611  -7.7593  -7.7435
    -7.7365  -7.7318  -7.7288  -7.7259  -7.7098  -7.7072  -7.7017  -7.6982
    -7.6896  -7.6835  -7.6721  -7.6573  -7.6496  -7.6465  -7.6465  -7.6389
    -7.6235  -7.6173  -7.6039  -7.5989  -7.5839  -7.5797  -7.5716  -7.5556
    -7.5402  -7.5177  -7.5032  -7.4989  -7.4809  -7.4578  -7.4171  -7.3284
    -7.2814  -7.2687  -7.2223  -7.2193  -7.2097  -7.2058  -7.1879  -7.1556
    -7.1238  -7.1147  -7.0825  -7.0539  -7.0378  -7.0274  -7.0065  -6.9979
    -6.9938  -6.9844  -6.9732  -6.9627  -6.9340  -6.9111  -6.8894  -6.8893
    -6.8852  -6.8757  -6.8316  -6.8136  -6.7839  -6.7408  -6.7240  -6.7019
    -6.6703  -6.6606  -6.6542  -6.6434  -6.6434  -6.6433  -6.6431  -6.6300
    -6.6140  -6.5849  -6.5758  -6.5747  -6.5737  -6.5724  -6.5645  -6.5464
    -6.5350  -6.4845  -6.4566  -6.4381  -6.4376  -6.3909  -6.3592  -6.3120
    -6.3116  -6.3113  -6.3109  -6.2593  -6.2510  -6.2437  -6.2335  -6.2309
    -6.2274  -6.2248  -6.2211  -6.2133  -6.1949  -6.1815  -6.1560  -6.0614
    -5.9749  -5.9632  -5.9631  -5.9053  -5.8867  -5.8794  -5.8699  -5.8203
    -5.7533  -5.7330  -5.6318  -5.6214  -5.5663  -5.5074  -5.4636  -5.4315
    -5.2766  -5.1966  -4.2067  -4.0229  -4.0112  -4.0037  -3.9750  -3.8864
    -3.8788  -3.8787  -3.8421  -3.8219  -3.8140  -3.8137  -3.7926  -3.7695
    -3.7546  -3.7435  -3.7127  -3.6853  -3.6111  -3.5933  -3.5850  -3.5833
    -3.5777  -3.5691  -3.5643  -3.5641  -3.5583  -3.5373  -3.5076  -3.4995
    -3.4859  -3.4834  -3.4659  -3.4616  -3.4582  -3.4562  -3.4463  -3.4451
    -3.4038  -3.3816  -3.3767  -3.3594  -3.3508  -3.3440  -3.3324  -3.3316
    -3.3198  -3.3057  -3.2992  -3.2927  -3.2912  -3.2847  -3.2750  -3.2587
    -3.2552  -3.2543  -3.2536  -3.2488  -3.2275  -3.2185  -3.2173  -3.2081
    -3.1901  -3.1885  -3.1860  -3.1737  -3.1696  -3.1619  -3.1419  -3.1340
    -3.1076  -3.1014  -3.0859  -3.0623  -3.0508  -3.0494  -3.0299  -3.0234
    -3.0114  -3.0088  -2.9924  -2.9921  -2.9916  -2.9913  -2.9580  -2.9517
    -2.9431  -2.9421  -2.9271  -2.9233  -2.9075  -2.9042  -2.9035  -2.8978
    -2.8904  -2.8878  -2.8785  -2.8666  -2.8618  -2.8571  -2.8333  -2.8243
    -2.8221  -2.8169  -2.7972  -2.7856  -2.7842  -2.7705  -2.7240  -2.7189
    -2.6934  -2.6891  -2.6488  -2.6365  -2.6312  -2.6288  -2.6262  -2.6145
    -2.5512  -2.5450  -2.5116  -2.5035  -2.4922  -2.4781  -2.4725  -2.4565
    -2.3853  -2.3593  -2.3450  -2.2908  -2.2707  -2.2630

     the Fermi energy is    -4.6621 ev

!    total energy              =  -26543.75865382 Ry
     total all-electron energy =   -522376.354962 Ry
     estimated scf accuracy    <       0.00000024 Ry
     smearing contrib. (-TS)   =      -0.00000008 Ry
     internal energy E=F+TS    =  -26543.75865374 Ry

     The total energy is F=E-TS. E is the sum of the following terms:
     one-electron contribution =  511290.93038903 Ry
     hartree contribution      = -255789.75110099 Ry
     xc contribution           =   -1565.70206052 Ry
     ewald contribution        = -264031.23335810 Ry
     DFT-D3 Dispersion         =      -4.05948314 Ry
     one-center paw contrib.   =  -16443.94304002 Ry

     convergence has been achieved in  21 iterations

     negative rho (up, down):  9.609E-04 0.000E+00

     Forces acting on atoms (cartesian axes, Ry/au):

     atom    1 type  1   force =     0.00206648   -0.00197693    0.00184830
     atom    2 type  1   force =     0.00000204    0.00000456    0.00191935
     atom    3 type  1   force =    -0.00002516   -0.00002629    0.00007444
     atom    4 type  2   force =     0.00000079   -0.00000184   -0.00321411
     atom    5 type  2   force =     0.00002149   -0.00000086    0.00008340
     atom    6 type  2   force =    -0.00012528   -0.00071440   -0.00119226
     atom    7 type  2   force =    -0.00000217   -0.00000430    0.00144173
     atom    8 type  2   force =    -0.00002316   -0.00002573   -0.00009254
     atom    9 type  2   force =    -0.00001053    0.00042161   -0.00143834
     atom   10 type  1   force =    -0.00006708   -0.00128763   -0.02187463
     atom   11 type  1   force =    -0.00001539    0.00001185    0.00191366
     atom   12 type  1   force =    -0.00000029    0.00000319    0.00001662
     atom   13 type  2   force =    -0.00000232    0.00000463   -0.00320968
     atom   14 type  2   force =     0.00000529    0.00000850    0.00007380
     atom   15 type  2   force =     0.00036175    0.00029334    0.00289718
     atom   16 type  2   force =    -0.00000388    0.00000510    0.00144832
     atom   17 type  2   force =    -0.00002406   -0.00001337   -0.00008498
     atom   18 type  2   force =    -0.01889325   -0.00846530    0.01327582
     atom   19 type  1   force =    -0.00119086    0.00200765   -0.00228994
     atom   20 type  1   force =    -0.00000961   -0.00000517    0.00191884
     atom   21 type  1   force =    -0.00003206    0.00000709    0.00001870
     atom   22 type  2   force =    -0.00000119    0.00000540   -0.00320962
     atom   23 type  2   force =     0.00001078    0.00000054    0.00007512
     atom   24 type  2   force =    -0.00046877    0.00018882   -0.00113200
     atom   25 type  2   force =    -0.00000278   -0.00000402    0.00142684
     atom   26 type  2   force =    -0.00001754    0.00000432   -0.00002691
     atom   27 type  2   force =     0.00099601   -0.00042054   -0.00065111
     atom   28 type  1   force =    -0.00003199    0.00026390    0.00036236
     atom   29 type  1   force =     0.00000791   -0.00001238    0.00192221
     atom   30 type  1   force =     0.00002721   -0.00001660    0.00003778
     atom   31 type  2   force =     0.00000284   -0.00000240   -0.00321262
     atom   32 type  2   force =     0.00000197    0.00000934    0.00006763
     atom   33 type  2   force =    -0.00008058   -0.00001443   -0.00020036
     atom   34 type  2   force =    -0.00000246   -0.00001122    0.00143436
     atom   35 type  2   force =    -0.00000067   -0.00001519   -0.00007291
     atom   36 type  2   force =     0.00028212    0.00007376   -0.00013949
     atom   37 type  1   force =     0.00027518    0.00079065    0.00040239
     atom   38 type  1   force =     0.00000985   -0.00000360    0.00191887
     atom   39 type  1   force =     0.00002235   -0.00003149    0.00010005
     atom   40 type  2   force =     0.00000260   -0.00000380   -0.00321156
     atom   41 type  2   force =    -0.00001616   -0.00001356    0.00007949
     atom   42 type  2   force =    -0.00063315    0.00015703   -0.00011881
     atom   43 type  2   force =     0.00000679    0.00000154    0.00143411
     atom   44 type  2   force =     0.00001130    0.00000443   -0.00004090
     atom   45 type  2   force =    -0.00004559    0.00027668    0.00010863
     atom   46 type  1   force =     0.00256844   -0.00002545   -0.00303321
     atom   47 type  1   force =     0.00000295    0.00000630    0.00190695
     atom   48 type  1   force =    -0.00001369    0.00000689    0.00004071
     atom   49 type  2   force =     0.00000247    0.00000077   -0.00321566
     atom   50 type  2   force =    -0.00000443   -0.00001419    0.00009067
     atom   51 type  2   force =     0.00015148    0.00032511    0.00247593
     atom   52 type  2   force =     0.00000130    0.00001103    0.00143600
     atom   53 type  2   force =     0.00003922    0.00004285    0.00002603
     atom   54 type  2   force =     0.02312665   -0.01138982    0.00037310
     atom   55 type  1   force =     0.00165189    0.00384172   -0.00096383
     atom   56 type  1   force =    -0.00000502    0.00000614    0.00190937
     atom   57 type  1   force =    -0.00000828   -0.00001386    0.00002820
     atom   58 type  2   force =    -0.00000365    0.00000260   -0.00321133
     atom   59 type  2   force =    -0.00000672   -0.00001895    0.00007200
     atom   60 type  2   force =     0.00009493    0.00041416    0.00281500
     atom   61 type  2   force =     0.00000255   -0.00000045    0.00142590
     atom   62 type  2   force =     0.00002093    0.00001445   -0.00003900
     atom   63 type  2   force =    -0.00168496    0.01792565    0.01277412
     atom   64 type  1   force =    -0.00023816   -0.00054473    0.00007344
     atom   65 type  1   force =    -0.00000403    0.00000249    0.00191629
     atom   66 type  1   force =    -0.00002555    0.00000129    0.00006612
     atom   67 type  2   force =    -0.00000085   -0.00000036   -0.00321169
     atom   68 type  2   force =    -0.00001023   -0.00001620    0.00008486
     atom   69 type  2   force =     0.00012995    0.00018078    0.00010505
     atom   70 type  2   force =     0.00000310   -0.00000711    0.00142169
     atom   71 type  2   force =     0.00000781   -0.00001806   -0.00002038
     atom   72 type  2   force =     0.00006025    0.00009626    0.00038034
     atom   73 type  1   force =     0.00000658    0.00033146   -0.00004698
     atom   74 type  1   force =    -0.00000496    0.00000652    0.00191884
     atom   75 type  1   force =     0.00000880    0.00001321   -0.00000613
     atom   76 type  2   force =    -0.00000142   -0.00000502   -0.00320724
     atom   77 type  2   force =     0.00000031    0.00000536    0.00006250
     atom   78 type  2   force =     0.00000716   -0.00013546   -0.00023612
     atom   79 type  2   force =    -0.00000011    0.00000165    0.00142957
     atom   80 type  2   force =     0.00001102    0.00000821   -0.00011597
     atom   81 type  2   force =    -0.00020822   -0.00008132    0.00007595
     atom   82 type  1   force =    -0.00005424   -0.00055910   -0.00049283
     atom   83 type  1   force =     0.00000682    0.00000693    0.00190999
     atom   84 type  1   force =     0.00003392    0.00001292    0.00000241
     atom   85 type  2   force =     0.00000122    0.00000159   -0.00321653
     atom   86 type  2   force =    -0.00000090    0.00000412    0.00004834
     atom   87 type  2   force =     0.00028852    0.00011179   -0.00028072
     atom   88 type  2   force =     0.00000466    0.00001186    0.00143346
     atom   89 type  2   force =    -0.00001152    0.00001354   -0.00009160
     atom   90 type  2   force =     0.00117348    0.00088898    0.00041921
     atom   91 type  1   force =    -0.00001230   -0.00009100   -0.00024372
     atom   92 type  1   force =     0.00000487    0.00000109    0.00190416
     atom   93 type  1   force =     0.00003937    0.00002783   -0.00002276
     atom   94 type  2   force =     0.00000136    0.00000193   -0.00321979
     atom   95 type  2   force =     0.00001738   -0.00000601    0.00004236
     atom   96 type  2   force =     0.00043081    0.00097227   -0.00106758
     atom   97 type  2   force =     0.00000161   -0.00000216    0.00142998
     atom   98 type  2   force =     0.00000900    0.00001482   -0.00007432
     atom   99 type  2   force =     0.00153505   -0.00171272   -0.00436172
     atom  100 type  1   force =     0.00006796    0.00026094    0.00038207
     atom  101 type  1   force =    -0.00000310    0.00000209    0.00191648
     atom  102 type  1   force =     0.00004001    0.00003340    0.00000882
     atom  103 type  2   force =    -0.00000083   -0.00000098   -0.00321178
     atom  104 type  2   force =     0.00000864    0.00001141    0.00005607
     atom  105 type  2   force =     0.00006051   -0.00044425    0.00004988
     atom  106 type  2   force =     0.00000501   -0.00000752    0.00142609
     atom  107 type  2   force =     0.00000627    0.00000733   -0.00007768
     atom  108 type  2   force =     0.00039929    0.00025086   -0.00000343
     atom  109 type  1   force =    -0.00142384   -0.00219052   -0.00091295
     atom  110 type  1   force =    -0.00001402    0.00000564    0.00192270
     atom  111 type  1   force =    -0.00000366   -0.00001932   -0.00001385
     atom  112 type  2   force =    -0.00000167   -0.00000287   -0.00321031
     atom  113 type  2   force =     0.00000279   -0.00001134    0.00005924
     atom  114 type  2   force =     0.00014699   -0.00001552   -0.00012452
     atom  115 type  2   force =    -0.00000102   -0.00000024    0.00144019
     atom  116 type  2   force =    -0.00000953   -0.00002088   -0.00004779
     atom  117 type  2   force =    -0.00016926   -0.00014937    0.00026903
     atom  118 type  1   force =    -0.00269745   -0.00020456   -0.00233606
     atom  119 type  1   force =    -0.00000156    0.00000904    0.00191705
     atom  120 type  1   force =    -0.00002364    0.00001084   -0.00001127
     atom  121 type  2   force =     0.00000103    0.00000354   -0.00320861
     atom  122 type  2   force =    -0.00001003    0.00001213    0.00007890
     atom  123 type  2   force =     0.00003478    0.00035445    0.00004426
     atom  124 type  2   force =     0.00000103    0.00000776    0.00144269
     atom  125 type  2   force =    -0.00002619    0.00001779    0.00002083
     atom  126 type  2   force =    -0.00004039   -0.00002034    0.00111187
     atom  127 type  1   force =    -0.00032594    0.00009707    0.00046090
     atom  128 type  1   force =     0.00000229   -0.00000941    0.00191263
     atom  129 type  1   force =     0.00001730   -0.00003815   -0.00003439
     atom  130 type  2   force =     0.00000208    0.00000369   -0.00321219
     atom  131 type  2   force =    -0.00000148   -0.00000341    0.00005243
     atom  132 type  2   force =    -0.00004932    0.00032067   -0.00035550
     atom  133 type  2   force =     0.00000101   -0.00000732    0.00143354
     atom  134 type  2   force =    -0.00000681    0.00000905   -0.00008931
     atom  135 type  2   force =    -0.00055701   -0.00042770    0.00043233
     atom  136 type  1   force =     0.00023289   -0.00021947    0.00037779
     atom  137 type  1   force =    -0.00000221   -0.00000953    0.00191360
     atom  138 type  1   force =    -0.00003616    0.00001004   -0.00004568
     atom  139 type  2   force =     0.00000079   -0.00000355   -0.00321223
     atom  140 type  2   force =     0.00000984   -0.00000424    0.00006886
     atom  141 type  2   force =    -0.00016550   -0.00000244   -0.00001140
     atom  142 type  2   force =    -0.00000119   -0.00001240    0.00142405
     atom  143 type  2   force =    -0.00000415   -0.00003460   -0.00004295
     atom  144 type  2   force =    -0.00064614   -0.00007661   -0.00024963
     atom  145 type  3   force =    -0.01838904   -0.00268452    0.00943782
     atom  146 type  4   force =     0.00060261    0.00006836   -0.00062282
     atom  147 type  4   force =     0.01143265    0.00297951   -0.00879959

     Total force =     0.055074     Total SCF correction =     0.002302

     BFGS Geometry Optimization
     Energy error            =      0.0E+00 Ry
     Gradient error          =      2.3E-02 Ry/Bohr

     number of scf cycles    =   1
     number of bfgs steps    =   0

     energy             new  =  -26543.7586538195 Ry

     new trust radius        =       0.0257819504 bohr
     new conv_thr            =       0.0000010000 Ry


[...]
     atom   72 type  2   force =    -0.00010718    0.00014249    0.00001693
     atom   73 type  1   force =     0.00007392   -0.00004872    0.00008998
     atom   74 type  1   force =     0.00000356   -0.00000153    0.00190576
     atom   75 type  1   force =     0.00000328   -0.00000371    0.00004491
     atom   76 type  2   force =     0.00000289   -0.00000163   -0.00327964
     atom   77 type  2   force =    -0.00003116    0.00002555    0.00000131
     atom   78 type  2   force =    -0.00005329    0.00010680    0.00004709
     atom   79 type  2   force =    -0.00000070    0.00000125    0.00151070
     atom   80 type  2   force =     0.00003614   -0.00002967   -0.00000014
     atom   81 type  2   force =    -0.00013093    0.00014295    0.00000495
     atom   82 type  1   force =    -0.00003974   -0.00015360    0.00019915
     atom   83 type  1   force =     0.00000200    0.00000037    0.00189675
     atom   84 type  1   force =     0.00000650   -0.00000267    0.00001043
     atom   85 type  2   force =     0.00000298   -0.00000190   -0.00328013
     atom   86 type  2   force =    -0.00000072   -0.00002288    0.00002034
     atom   87 type  2   force =     0.00046286    0.00010234   -0.00002395
     atom   88 type  2   force =     0.00000021    0.00000661    0.00151181
     atom   89 type  2   force =     0.00002092    0.00001372    0.00000053
     atom   90 type  2   force =    -0.00006393   -0.00035484    0.00013881
     atom   91 type  1   force =     0.00001593    0.00005713   -0.00006668
     atom   92 type  1   force =     0.00000363   -0.00000391    0.00189747
     atom   93 type  1   force =     0.00000765   -0.00000881   -0.00002719
     atom   94 type  2   force =     0.00000290   -0.00000137   -0.00328021
     atom   95 type  2   force =     0.00001063   -0.00000268   -0.00000262
     atom   96 type  2   force =     0.00028385   -0.00000060   -0.00021457
     atom   97 type  2   force =     0.00000250   -0.00001198    0.00149989
     atom   98 type  2   force =    -0.00002153    0.00001391    0.00000346
     atom   99 type  2   force =     0.00004175    0.00042844    0.00002014
     atom  100 type  1   force =     0.00004238    0.00009180    0.00012355
     atom  101 type  1   force =     0.00000316   -0.00000121    0.00190320
     atom  102 type  1   force =     0.00000426    0.00000175   -0.00002116
     atom  103 type  2   force =     0.00000295   -0.00000083   -0.00327921
     atom  104 type  2   force =     0.00001994   -0.00001170   -0.00002066
     atom  105 type  2   force =     0.00006324    0.00001881   -0.00002804
     atom  106 type  2   force =     0.00000307   -0.00001251    0.00149827
     atom  107 type  2   force =    -0.00001049   -0.00001331   -0.00003110
     atom  108 type  2   force =    -0.00003894    0.00010116   -0.00001719
     atom  109 type  1   force =     0.00007506   -0.00032902    0.00008762
     atom  110 type  1   force =     0.00000176   -0.00000181    0.00190479
     atom  111 type  1   force =     0.00000306   -0.00000453   -0.00001241
     atom  112 type  2   force =     0.00000269   -0.00000158   -0.00328018
     atom  113 type  2   force =     0.00000654   -0.00001509   -0.00001171
     atom  114 type  2   force =     0.00012269    0.00013009    0.00017407
     atom  115 type  2   force =     0.00000556   -0.00000049    0.00150019
     atom  116 type  2   force =    -0.00000451    0.00001137   -0.00002438
     atom  117 type  2   force =    -0.00016505   -0.00007895    0.00029157
     atom  118 type  1   force =    -0.00014504    0.00010954    0.00005016
     atom  119 type  1   force =     0.00000235   -0.00000079    0.00189729
     atom  120 type  1   force =     0.00000463   -0.00000888    0.00000818
     atom  121 type  2   force =     0.00000284   -0.00000192   -0.00327962
     atom  122 type  2   force =    -0.00002214   -0.00000015   -0.00000670
     atom  123 type  2   force =     0.00038927   -0.00008802    0.00027917
     atom  124 type  2   force =     0.00000466    0.00000649    0.00151460
     atom  125 type  2   force =     0.00003353   -0.00000345    0.00002389
     atom  126 type  2   force =    -0.00021894   -0.00013495    0.00019484
     atom  127 type  1   force =    -0.00001675   -0.00007505    0.00011822
     atom  128 type  1   force =     0.00000151   -0.00000328    0.00189725
     atom  129 type  1   force =    -0.00000801    0.00000274    0.00001332
     atom  130 type  2   force =     0.00000293   -0.00000131   -0.00328039
     atom  131 type  2   force =    -0.00000299    0.00000672    0.00001044
     atom  132 type  2   force =     0.00011399   -0.00020752    0.00014008
     atom  133 type  2   force =     0.00000315   -0.00000508    0.00149154
     atom  134 type  2   force =     0.00000591    0.00000995   -0.00000295
     atom  135 type  2   force =    -0.00009834   -0.00004658   -0.00009471
     atom  136 type  1   force =    -0.00008482    0.00015787    0.00002956
     atom  137 type  1   force =     0.00000278   -0.00000210    0.00190175
     atom  138 type  1   force =     0.00000088   -0.00000102   -0.00000841
     atom  139 type  2   force =     0.00000265   -0.00000096   -0.00327902
     atom  140 type  2   force =    -0.00000653   -0.00000465   -0.00000926
     atom  141 type  2   force =     0.00011019    0.00040254   -0.00007228
     atom  142 type  2   force =     0.00000464   -0.00001045    0.00149866
     atom  143 type  2   force =    -0.00000996   -0.00000620    0.00001230
     atom  144 type  2   force =     0.00010360   -0.00006772    0.00002829
     atom  145 type  3   force =    -0.00027774    0.00043700   -0.00068655
     atom  146 type  4   force =    -0.00020116   -0.00001467   -0.00019748
     atom  147 type  4   force =    -0.00093251   -0.00010604   -0.00011674

     Total force =     0.003175     Total SCF correction =     0.000802
     SCF correction compared to forces is large: reduce conv_thr to get better values
     Energy error            =      1.8E-05 Ry
     Gradient error          =      9.3E-04 Ry/Bohr

     bfgs converged in  23 scf cycles and  22 bfgs steps
     (criteria: energy <  1.0E-04 Ry, force <  1.0E-03 Ry/Bohr)

     End of BFGS Geometry Optimization

     Final energy             =  -26543.7698038690 Ry

     File ./outdir/pwscf.bfgs deleted, as requested
Begin final coordinates

ATOMIC_POSITIONS (angstrom)
Mo               1.5740982238        2.6897852231        6.0639939784
Mo               1.5769197498        0.9104407117       -6.0872367793    0   0   0
Mo              -0.0001600253        1.8209654200       -0.0000026984
S                0.0000044503        0.0000077495       -7.6506323570    0   0   0
S                1.5771919103        0.9110360625       -1.5655080664
S               -0.0160961432        1.8202333950        4.4971415083
S                0.0000053241        0.0000068460       -4.5222282367    0   0   0
S                1.5763814200        0.9093969870        1.5661476721
S               -0.0016566867        1.7976678825        7.6384888841
Mo              -0.0131363127        5.4602994037        6.1299831421
Mo               0.0000011799        3.6417399547       -6.0872367793    0   0   0
Mo              -1.5767409115        4.5523525698        0.0004434482
S               -1.5769141197        2.7313069925       -7.6506323570    0   0   0
S                0.0003208137        3.6419417652       -1.5648710722
S               -1.5712221875        4.5664813957        4.5537400608
S               -1.5769132459        2.7313060890       -4.5222282367    0   0   0
S                0.0000250651        3.6421164510        1.5682424005
S               -1.6236195076        4.5205874955        7.7230343030
Mo              -1.5837078927        8.2030524126        6.0813348393
Mo              -1.5769173901        6.3730391977       -6.0872367793    0   0   0
Mo              -3.1536696418        7.2829405511       -0.0013089533
S               -3.1538326896        5.4626062355       -7.6506323570    0   0   0
S               -1.5766011841        6.3722003587       -1.5662865568
S               -3.1531061401        7.2706823262        4.5193547152
S               -3.1538318159        5.4626053320       -4.5222282367    0   0   0
S               -1.5766579876        6.3736124253        1.5666923758
S               -3.1547215334        7.2977520985        7.6545083343
Mo               3.1537912323       -0.0090161994        6.0496512475
Mo              -3.1538359601        9.1043384407       -6.0872367793    0   0   0
Mo              -4.7307569272       10.0143052352       -0.0013187466
S               -4.7307512596        8.1939054785       -7.6506323570    0   0   0
S               -3.1537183536        9.1040374507       -1.5668450968
S               -4.7350207885       10.0031940410        4.4903051333
S               -4.7307503859        8.1939045750       -4.5222282367    0   0   0
S               -3.1536252900        9.1035473440        1.5653171860
S               -4.7259748779       10.0284634242        7.6317422888
Mo               4.7314733929        2.6884343451        6.0624408600
Mo               4.7307503218        0.9104407117       -6.0872367793    0   0   0
Mo               3.1540016135        1.8209735251        0.0008003482
S                3.1538350223        0.0000077495       -7.6506323570    0   0   0
S                4.7306337222        0.9108331371       -1.5656787175
S                3.1509220963        1.8074162269        4.4785734969
S                3.1538358961        0.0000068460       -4.5222282367    0   0   0
S                4.7317019166        0.9093262066        1.5661213593
S                3.1530542995        1.7833740453        7.6257581063
Mo               3.1520180554        5.4571246967        6.1104963916
Mo               3.1538317519        3.6417399547       -6.0872367793    0   0   0
Mo               1.5770738828        4.5522705644        0.0009121961
S                1.5769164523        2.7313069925       -7.6506323570    0   0   0
S                3.1537964138        3.6416508791       -1.5644446249
S                1.5701674149        4.5649207260        4.5642549167
S                1.5769173261        2.7313060890       -4.5222282367    0   0   0
S                3.1540892871        3.6425907238        1.5691739595
S                1.5702787130        4.4249091417        7.6899702356
Mo               1.5730314769        8.2190126531        6.0863754471
Mo               1.5769131819        6.3730391977       -6.0872367793    0   0   0
Mo               0.0003837847        7.2827410493       -0.0010742038
S               -0.0000021176        5.4626062355       -7.6506323570    0   0   0
S                1.5771870961        6.3719518794       -1.5660377112
S               -0.0009402787        7.2673789640        4.5461843176
S               -0.0000012439        5.4626053320       -4.5222282367    0   0   0
S                1.5772073647        6.3735733704        1.5674477679
S               -0.0019727082        7.3739779119        7.6853435277
Mo               6.3111542613       -0.0021603731        6.0601101613
Mo              -0.0000053881        9.1043384407       -6.0872367793    0   0   0
Mo              -1.5765726907       10.0142174189       -0.0013814777
S               -1.5769206876        8.1939054785       -7.6506323570    0   0   0
S                0.0003890159        9.1037507421       -1.5666711262
S               -1.5710259753       10.0019594323        4.4928007731
S               -1.5769198139        8.1939045750       -4.5222282367    0   0   0
S                0.0004331923        9.1031310829        1.5657344122
S               -1.5809257204       10.0279799501        7.6329935715
Mo               7.8862441055        2.7290197550        6.0907730428
Mo               7.8845808939        0.9104407117       -6.0872367793    0   0   0
Mo               6.3080645171        1.8209020413       -0.0003831812
S                6.3076655943        0.0000077495       -7.6506323570    0   0   0
S                7.8849480211        0.9106494370       -1.5661360543
S                6.3228581893        1.8193439762        4.4956360907
S                6.3076664681        0.0000068460       -4.5222282367    0   0   0
S                7.8852043906        0.9097482688        1.5657339962
S                6.3072743002        1.7980571502        7.6388709487
Mo               6.3193574647        5.4620060506        6.1288387144
Mo               6.3076623239        3.6417399547       -6.0872367793    0   0   0
Mo               4.7308309543        4.5522307403        0.0005809834
S                4.7307470244        2.7313069925       -7.6506323570    0   0   0
S                6.3075909051        3.6419004563       -1.5652868427
S                4.7345394272        4.5652256670        4.5646434949
S                4.7307478981        2.7313060890       -4.5222282367    0   0   0
S                6.3077334918        3.6420354901        1.5678754461
S                4.7356005665        4.4256981746        7.6881689481
Mo               4.7315829842        8.2200187373        6.0843608242
Mo               4.7307437539        6.3730391977       -6.0872367793    0   0   0
Mo               3.1539955504        7.2827861667       -0.0010209486
S                3.1538284544        5.4626062355       -7.6506323570    0   0   0
S                4.7307087574        6.3719834799       -1.5662830959
S                3.1512518915        7.2737495185        4.5464669123
S                3.1538293281        5.4626053320       -4.5222282367    0   0   0
S                4.7309306542        6.3734764292        1.5671660214
S                3.1534175952        7.3824091485        7.6929840738
Mo               9.4608540739        0.0078391708        6.0650189057
Mo               3.1538251839        9.1043384407       -6.0872367793    0   0   0
Mo               1.5773058220       10.0142658754       -0.0012818416
S                1.5769098844        8.1939054785       -7.6506323570    0   0   0
S                3.1539567849        9.1037516256       -1.5667401331
S                1.5808873898       10.0144775130        4.4953429293
S                1.5769107581        8.1939045750       -4.5222282367    0   0   0
S                3.1540182449        9.1031377572        1.5657294676
S                1.5773416819       10.0429089525        7.6412815084
Mo              -1.5806876754        2.7297224124        6.0915467242
Mo              11.0384114659        0.9104407117       -6.0872367793    0   0   0
Mo               9.4616131348        1.8211944295       -0.0003493097
S                9.4614961663        0.0000077495       -7.6506323570    0   0   0
S               11.0385054685        0.9108408594       -1.5659868674
S                9.4605869071        1.8373151127        4.5118934108
S                9.4614970401        0.0000068460       -4.5222282367    0   0   0
S               11.0378650366        0.9096272646        1.5659255548
S                9.4607887005        1.8074806217        7.6520756044
Mo              -3.1537108871        5.4605237900        6.1114552895
Mo               9.4614928959        3.6417399547       -6.0872367793    0   0   0
Mo               7.8845734833        4.5523261599        0.0001360205
S                7.8845775964        2.7313069925       -7.6506323570    0   0   0
S                9.4617451820        3.6421406288       -1.5651970604
S                7.8752734240        4.5679590707        4.5539122733
S                7.8845784701        2.7313060890       -4.5222282367    0   0   0
S                9.4613731628        3.6426231463        1.5682463551
S                7.9349546911        4.5187630785        7.7216943857
Mo              -4.7234826775        8.2045249253        6.0788535507
Mo               7.8845743259        6.3730391977       -6.0872367793    0   0   0
Mo               6.3076513471        7.2827795440       -0.0013737569
S                6.3076590264        5.4626062355       -7.6506323570    0   0   0
S                7.8847240400        6.3722242656       -1.5665468725
S                6.3067739381        7.2682611535        4.5448970856
S                6.3076599001        5.4626053320       -4.5222282367    0   0   0
S                7.8845179489        6.3735398975        1.5664694457
S                6.3090071147        7.3789128727        7.6827922027
Mo              -0.0035331489       -0.0026747758        6.0588469143
Mo               6.3076557559        9.1043384407       -6.0872367793    0   0   0
Mo               4.7306645609       10.0142912320       -0.0013283032
S                4.7307404564        8.1939054785       -7.6506323570    0   0   0
S                6.3077029576        9.1039614784       -1.5667577013
S                4.7248748008       10.0145808016        4.4942116915
S                4.7307413301        8.1939045750       -4.5222282367    0   0   0
S                6.3075200969        9.1030320650        1.5656439843
S                4.7295303787       10.0433459768        7.6400590614
Pt               3.1537810596        5.4759292043        9.0117345868
Pd               6.1514718269        5.5085293291        9.0891956433
Pd               0.1735713745        5.5120947605        9.1011208660
End final coordinates



     Writing all to output data dir ./outdir/pwscf.save/ :
     XML data file, charge density, pseudopotentials, collected wavefunctions
 
     init_run     :     96.15s CPU     98.56s WALL (       1 calls)
     electrons    :  97180.13s CPU  98666.64s WALL (      23 calls)
     update_pot   :     28.99s CPU     29.89s WALL (      22 calls)
     forces       :   1619.79s CPU   1655.38s WALL (      23 calls)
     force_dftd3  :      8.72s CPU      9.20s WALL (      23 calls)

     Called by init_run:
     wfcinit      :     77.35s CPU     78.36s WALL (       1 calls)
     potinit      :      1.09s CPU      1.19s WALL (       1 calls)
     hinit0       :     10.26s CPU     10.33s WALL (       1 calls)

     Called by electrons:
     c_bands      :  84543.91s CPU  85441.02s WALL (     296 calls)
     sum_band     :  10864.61s CPU  11168.52s WALL (     296 calls)
     v_of_rho     :     84.99s CPU     95.42s WALL (     299 calls)
     newd         :   1497.02s CPU   1776.65s WALL (     299 calls)
     PAW_pot      :    242.21s CPU    244.16s WALL (     321 calls)
     mix_rho      :     22.22s CPU     25.34s WALL (     296 calls)
     energy_dftd3 :      4.92s CPU      4.96s WALL (      23 calls)

     Called by c_bands:
     init_us_2    :    415.64s CPU    417.51s WALL (    2552 calls)
     init_us_2:cp :    415.62s CPU    417.49s WALL (    2552 calls)
     cegterg      :  82818.50s CPU  83708.05s WALL (    1199 calls)

     Called by *egterg:
     cdiaghg      :   4306.54s CPU   4500.86s WALL (   13923 calls)
     h_psi        :  43268.91s CPU  43552.50s WALL (   14096 calls)
     s_psi        :   9108.72s CPU   9149.42s WALL (   14096 calls)
     g_psi        :     96.77s CPU     97.20s WALL (   12893 calls)

     Called by h_psi:
     h_psi:calbec :   8705.85s CPU   8736.34s WALL (   14096 calls)
     vloc_psi     :  25204.63s CPU  25344.56s WALL (   14096 calls)
     add_vuspsi   :   9147.22s CPU   9190.46s WALL (   14096 calls)

     General routines
     calbec       :  12429.94s CPU  12473.74s WALL (   15736 calls)
     fft          :     70.99s CPU     80.59s WALL (    4136 calls)
     ffts         :      3.79s CPU      3.93s WALL (     595 calls)
     fftw         :  19062.84s CPU  19165.30s WALL ( 6610914 calls)
     interpolate  :      7.03s CPU      7.72s WALL (     299 calls)
 
     Parallel routines
 
     PWSCF        :   1d 3h38m CPU   1d 4h 4m WALL

 
   This run was terminated on:   7:33: 8   2Apr2024            

=------------------------------------------------------------------------------=
   JOB DONE.
=------------------------------------------------------------------------------=
