
     Program PWSCF v.7.3 starts on 16Apr2024 at  7:22:57 

     This program is part of the open-source Quantum ESPRESSO suite
     for quantum simulation of materials; please cite
         "P. Giannozzi et al., J. Phys.:Condens. Matter 21 395502 (2009);
         "P. Giannozzi et al., J. Phys.:Condens. Matter 29 465901 (2017);
         "P. Giannozzi et al., J. Chem. Phys. 152 154105 (2020);
          URL http://www.quantum-espresso.org", 
     in publications or presentations arising from this work. More details at
     http://www.quantum-espresso.org/quote

     Parallel version (MPI & OpenMP), running on      36 processor cores
     Number of MPI processes:                36
     Threads/MPI process:                     1

     MPI processes distributed on     1 nodes
     556765 MiB available memory on the printing compute node when the environment starts
 
     Waiting for input...
     Reading input from standard input
Warning: card &CELL ignored
Warning: card / ignored

     Current dimensions of program PWSCF are:
     Max number of different atomic species (ntypx) = 10
     Max number of k-points (npk) =  40000
     Max angular momentum in pseudopotentials (lmaxx) =  4
     Message from routine iosys:
     restart disabled: needed files not found
     file Mo.pbe-spn-kjpaw_psl.1.0.0.UPF: wavefunction(s)  4S 4D renormalized
     file S.pbe-n-kjpaw_psl.1.0.0.UPF: wavefunction(s)  3S 3P renormalized
     file Pt.pbe-spfn-kjpaw_psl.1.0.0.UPF: wavefunction(s)  5P 4F renormalized
     file Pd.pbe-spn-kjpaw_psl.1.0.0.UPF: wavefunction(s)  4S 5S 4D renormalized

     Atomic positions and unit cell read from directory:
     ./outdir/pwscf.save/
     Message from routine qexsd_readschema :
     xml data file ./outdir/pwscf.save/data-file-schema.xml not found
     Nothing found: using input atomic positions and unit cell

 
     R & G space division:  proc/nbgrp/npool/nimage =      36
     Subspace diagonalization in iterative solution of the eigenvalue problem:
     one sub-group per band group will be used
     scalapack distributed-memory algorithm (size of sub-group:  6*  6 procs)

 
     Parallelization info
     --------------------
     sticks:   dense  smooth     PW     G-vecs:    dense   smooth      PW
     Min         586     335     89               165416    71459    9765
     Max         587     337     90               165425    71461    9778
     Sum       21109   12085   3205              5955087  2572543  351657
 
     Using Slab Decomposition
 


     bravais-lattice index     =            0
     lattice parameter (alat)  =      23.8395  a.u.
     unit-cell volume          =   28182.8498 (a.u.)^3
     number of atoms/cell      =          147
     number of atomic types    =            4
     number of electrons       =      1330.00
     number of Kohn-Sham states=          798
     kinetic-energy cutoff     =      77.0000  Ry
     charge density cutoff     =     539.0000  Ry
     scf convergence threshold =      1.0E-06
     mixing beta               =       0.2000
     number of iterations used =            8  plain     mixing
     energy convergence thresh.=      1.0E-04
     force convergence thresh. =      1.0E-03
     Exchange-correlation= SLA  PW   PBX  PBC
                           (   1   4   3   4   0   0   0)
     nstep                     =         1000


     Effective Screening Medium Method
     =================================
     Boundary Conditions: Vacuum-Slab-Vacuum
     total charge in unit cell        =   0.0000
     grid points for fit at edges     =        4 
 

     celldm(1)=  23.839504  celldm(2)=   0.000000  celldm(3)=   0.000000
     celldm(4)=   0.000000  celldm(5)=   0.000000  celldm(6)=   0.000000

     crystal axes: (cart. coord. in units of alat)
               a(1) = (   1.000000   0.000000   0.000000 )  
               a(2) = (  -0.500001   0.866026   0.000000 )  
               a(3) = (   0.000000   0.000000   2.401941 )  

     reciprocal axes: (cart. coord. in units 2 pi/alat)
               b(1) = (  1.000000  0.577351  0.000000 )  
               b(2) = (  0.000000  1.154700  0.000000 )  
               b(3) = (  0.000000  0.000000  0.416330 )  


     PseudoPot. # 1 for Mo read from file:
     ./pseudo/Mo.pbe-spn-kjpaw_psl.1.0.0.UPF
     MD5 check sum: 317bf72632116215fd98f72de1686f13
     Pseudo is Projector augmented-wave + core cor, Zval = 14.0
     Generated using 'atomic' code by A. Dal Corso  v.7.2
     Shape of augmentation charge: PSQ
     Using radial grid of 1229 points,  6 beta functions with: 
                l(1) =   0
                l(2) =   0
                l(3) =   1
                l(4) =   1
                l(5) =   2
                l(6) =   2
     Q(r) pseudized with 0 coefficients 


     PseudoPot. # 2 for S  read from file:
     ./pseudo/S.pbe-n-kjpaw_psl.1.0.0.UPF
     MD5 check sum: 8b7b5302570d38d5e87fed6a1065abda
     Pseudo is Projector augmented-wave + core cor, Zval =  6.0
     Generated using 'atomic' code by A. Dal Corso  v.7.2
     Shape of augmentation charge: PSQ
     Using radial grid of 1151 points,  6 beta functions with: 
                l(1) =   0
                l(2) =   0
                l(3) =   1
                l(4) =   1
                l(5) =   2
                l(6) =   2
     Q(r) pseudized with 0 coefficients 


     PseudoPot. # 3 for Pt read from file:
     ./pseudo/Pt.pbe-spfn-kjpaw_psl.1.0.0.UPF
     MD5 check sum: 620096ebf4e6ebacc94de60fd67efcb5
     Pseudo is Projector augmented-wave + core cor, Zval = 32.0
     Generated using 'atomic' code by A. Dal Corso  v.7.2
     Shape of augmentation charge: PSQ
     Using radial grid of 1277 points,  8 beta functions with: 
                l(1) =   0
                l(2) =   0
                l(3) =   1
                l(4) =   1
                l(5) =   2
                l(6) =   2
                l(7) =   3
                l(8) =   3
     Q(r) pseudized with 0 coefficients 


     PseudoPot. # 4 for Pd read from file:
     ./pseudo/Pd.pbe-spn-kjpaw_psl.1.0.0.UPF
     MD5 check sum: a60571a671f2502b8a6a4569d20a6edb
     Pseudo is Projector augmented-wave + core cor, Zval = 18.0
     Generated using 'atomic' code by A. Dal Corso  v.7.2
     Shape of augmentation charge: PSQ
     Using radial grid of 1235 points,  6 beta functions with: 
                l(1) =   0
                l(2) =   0
                l(3) =   1
                l(4) =   1
                l(5) =   2
                l(6) =   2
     Q(r) pseudized with 0 coefficients 


     atomic species   valence    mass     pseudopotential
     Mo               14.00    95.95000     Mo( 1.00)
     S                 6.00    32.06000     S ( 1.00)
     Pt               32.00   195.08400     Pt( 1.00)
     Pd               18.00   106.42000     Pd( 1.00)

     No symmetry found



   Cartesian axes

     site n.     atom                  positions (alat units)
         1        Mo     tau(   1) = (   0.1245154   0.2145629   0.4838883  )
         2        Mo     tau(   2) = (   0.1250004   0.0721694  -0.4825273  )
         3        Mo     tau(   3) = (   0.0000425   0.1442456   0.0000619  )
         4        S      tau(   4) = (   0.0000004   0.0000006  -0.6064556  )
         5        S      tau(   5) = (   0.1250289   0.0721378  -0.1240905  )
         6        S      tau(   6) = (   0.0004348   0.1425943   0.3589312  )
         7        S      tau(   7) = (   0.0000004   0.0000005  -0.3584711  )
         8        S      tau(   8) = (   0.1250590   0.0720566   0.1242171  )
         9        S      tau(   9) = (  -0.0003812   0.1430770   0.6082257  )
        10        Mo     tau(  10) = (  -0.0007514   0.4316905   0.4830160  )
        11        Mo     tau(  11) = (   0.0000001   0.2886759  -0.4825273  )
        12        Mo     tau(  12) = (  -0.1249521   0.3607434   0.0000147  )
        13        S      tau(  13) = (  -0.1249999   0.2165071  -0.6064556  )
        14        S      tau(  14) = (   0.0000696   0.2885943  -0.1240368  )
        15        S      tau(  15) = (  -0.1243620   0.3589267   0.3580713  )
        16        S      tau(  16) = (  -0.1249998   0.2165070  -0.3584711  )
        17        S      tau(  17) = (   0.0000810   0.2885804   0.1243185  )
        18        S      tau(  18) = (  -0.1257647   0.3594678   0.6068568  )
        19        Mo     tau(  19) = (  -0.1258132   0.6483948   0.4805624  )
        20        Mo     tau(  20) = (  -0.1250002   0.5051824  -0.4825273  )
        21        Mo     tau(  21) = (  -0.2499883   0.5772682  -0.0000419  )
        22        S      tau(  22) = (  -0.2500002   0.4330136  -0.6064556  )
        23        S      tau(  23) = (  -0.1249379   0.5050979  -0.1240947  )
        24        S      tau(  24) = (  -0.2506625   0.5759186   0.3568926  )
        25        S      tau(  25) = (  -0.2500001   0.4330135  -0.3584711  )
        26        S      tau(  26) = (  -0.1250441   0.5050577   0.1241569  )
        27        S      tau(  27) = (  -0.2487337   0.5760113   0.6060824  )
        28        Mo     tau(  28) = (   0.2499313  -0.0010413   0.4821860  )
        29        Mo     tau(  29) = (  -0.2500004   0.7216889  -0.4825273  )
        30        Mo     tau(  30) = (  -0.3749657   0.7937917  -0.0000260  )
        31        S      tau(  31) = (  -0.3750004   0.6495201  -0.6064556  )
        32        S      tau(  32) = (  -0.2499441   0.7216334  -0.1241298  )
        33        S      tau(  33) = (  -0.3753987   0.7929794   0.3583883  )
        34        S      tau(  34) = (  -0.3750004   0.6495200  -0.3584711  )
        35        S      tau(  35) = (  -0.2499697   0.7216106   0.1241587  )
        36        S      tau(  36) = (  -0.3740548   0.7924718   0.6070428  )
        37        Mo     tau(  37) = (   0.3754903   0.2138312   0.4824355  )
        38        Mo     tau(  38) = (   0.3750004   0.0721694  -0.4825273  )
        39        Mo     tau(  39) = (   0.2500190   0.1443049   0.0000251  )
        40        S      tau(  40) = (   0.2500004   0.0000006  -0.6064556  )
        41        S      tau(  41) = (   0.3750395   0.0721655  -0.1240658  )
        42        S      tau(  42) = (   0.2492498   0.1434297   0.3583124  )
        43        S      tau(  43) = (   0.2500004   0.0000005  -0.3584711  )
        44        S      tau(  44) = (   0.3749990   0.0721134   0.1242290  )
        45        S      tau(  45) = (   0.2505186   0.1425747   0.6070242  )
        46        Mo     tau(  46) = (   0.2489619   0.4303408   0.4857216  )
        47        Mo     tau(  47) = (   0.2500001   0.2886759  -0.4825273  )
        48        Mo     tau(  48) = (   0.1250526   0.3607813   0.0000840  )
        49        S      tau(  49) = (   0.1250001   0.2165071  -0.6064556  )
        50        S      tau(  50) = (   0.2500419   0.2886606  -0.1240379  )
        51        S      tau(  51) = (   0.1261759   0.3597087   0.3613462  )
        52        S      tau(  52) = (   0.1250002   0.2165070  -0.3584711  )
        53        S      tau(  53) = (   0.2500376   0.2886120   0.1243390  )
        54        S      tau(  54) = (   0.1185564   0.3555008   0.6138384  )
        55        Mo     tau(  55) = (   0.1202279   0.6507949   0.4802728  )
        56        Mo     tau(  56) = (   0.1249998   0.5051824  -0.4825273  )
        57        Mo     tau(  57) = (   0.0000374   0.5772595   0.0000671  )
        58        S      tau(  58) = (  -0.0000002   0.4330136  -0.6064556  )
        59        S      tau(  59) = (   0.1250566   0.5051315  -0.1240039  )
        60        S      tau(  60) = (  -0.0017492   0.5751181   0.3561394  )
        61        S      tau(  61) = (  -0.0000001   0.4330135  -0.3584711  )
        62        S      tau(  62) = (   0.1250592   0.5050887   0.1243806  )
        63        S      tau(  63) = (  -0.0025886   0.5770810   0.6054654  )
        64        Mo     tau(  64) = (   0.4997787  -0.0005006   0.4806072  )
        65        Mo     tau(  65) = (  -0.0000004   0.7216889  -0.4825273  )
        66        Mo     tau(  66) = (  -0.1249578   0.7938077  -0.0000124  )
        67        S      tau(  67) = (  -0.1250004   0.6495201  -0.6064556  )
        68        S      tau(  68) = (   0.0000912   0.7216231  -0.1240278  )
        69        S      tau(  69) = (  -0.1257861   0.7933803   0.3568273  )
        70        S      tau(  70) = (  -0.1250004   0.6495200  -0.3584711  )
        71        S      tau(  71) = (  -0.0000101   0.7216131   0.1242707  )
        72        S      tau(  72) = (  -0.1247631   0.7926968   0.6053221  )
        73        Mo     tau(  73) = (   0.6254983   0.2150747   0.4816248  )
        74        Mo     tau(  74) = (   0.6250004   0.0721694  -0.4825273  )
        75        Mo     tau(  75) = (   0.5000176   0.1443256   0.0000522  )
        76        S      tau(  76) = (   0.5000004   0.0000006  -0.6064556  )
        77        S      tau(  77) = (   0.6250309   0.0721123  -0.1240107  )
        78        S      tau(  78) = (   0.5001073   0.1438670   0.3568675  )
        79        S      tau(  79) = (   0.5000004   0.0000005  -0.3584711  )
        80        S      tau(  80) = (   0.6250184   0.0721649   0.1242372  )
        81        S      tau(  81) = (   0.5008579   0.1421657   0.6061011  )
        82        Mo     tau(  82) = (   0.5020927   0.4305259   0.4835992  )
        83        Mo     tau(  83) = (   0.5000001   0.2886759  -0.4825273  )
        84        Mo     tau(  84) = (   0.3750096   0.3608300   0.0000853  )
        85        S      tau(  85) = (   0.3750001   0.2165071  -0.6064556  )
        86        S      tau(  86) = (   0.5000130   0.2886647  -0.1240153  )
        87        S      tau(  87) = (   0.3740918   0.3603366   0.3614179  )
        88        S      tau(  88) = (   0.3750002   0.2165070  -0.3584711  )
        89        S      tau(  89) = (   0.4999600   0.2886676   0.1243287  )
        90        S      tau(  90) = (   0.3826295   0.3540684   0.6107884  )
        91        Mo     tau(  91) = (   0.3754347   0.6495598   0.4856131  )
        92        Mo     tau(  92) = (   0.3749998   0.5051824  -0.4825273  )
        93        Mo     tau(  93) = (   0.2500442   0.5772815   0.0001210  )
        94        S      tau(  94) = (   0.2499998   0.4330136  -0.6064556  )
        95        S      tau(  95) = (   0.3750010   0.5051487  -0.1240235  )
        96        S      tau(  96) = (   0.2505704   0.5754266   0.3628441  )
        97        S      tau(  97) = (   0.2499999   0.4330135  -0.3584711  )
        98        S      tau(  98) = (   0.3750559   0.5051422   0.1243805  )
        99        S      tau(  99) = (   0.2381374   0.5825819   0.6067890  )
       100        Mo     tau( 100) = (   0.7497549  -0.0007739   0.4829754  )
       101        Mo     tau( 101) = (   0.2499996   0.7216889  -0.4825273  )
       102        Mo     tau( 102) = (   0.1250535   0.7937975   0.0001168  )
       103        S      tau( 103) = (   0.1249996   0.6495201  -0.6064556  )
       104        S      tau( 104) = (   0.2500248   0.7216238  -0.1239807  )
       105        S      tau( 105) = (   0.1250865   0.7943282   0.3561776  )
       106        S      tau( 106) = (   0.1249996   0.6495200  -0.3584711  )
       107        S      tau( 107) = (   0.2500804   0.7215701   0.1244010  )
       108        S      tau( 108) = (   0.1230625   0.7940424   0.6054764  )
       109        Mo     tau( 109) = (  -0.1247968   0.2149139   0.4827366  )
       110        Mo     tau( 110) = (   0.8750004   0.0721694  -0.4825273  )
       111        Mo     tau( 111) = (   0.7500535   0.1442576   0.0000659  )
       112        S      tau( 112) = (   0.7500004   0.0000006  -0.6064556  )
       113        S      tau( 113) = (   0.8750311   0.0720720  -0.1240212  )
       114        S      tau( 114) = (   0.7507437   0.1426622   0.3580001  )
       115        S      tau( 115) = (   0.7500004   0.0000005  -0.3584711  )
       116        S      tau( 116) = (   0.8750679   0.0720215   0.1243391  )
       117        S      tau( 117) = (   0.7495917   0.1435798   0.6069484  )
       118        Mo     tau( 118) = (  -0.2495513   0.4315827   0.4815648  )
       119        Mo     tau( 119) = (   0.7500001   0.2886759  -0.4825273  )
       120        Mo     tau( 120) = (   0.6250173   0.3607849   0.0000853  )
       121        S      tau( 121) = (   0.6250001   0.2165071  -0.6064556  )
       122        S      tau( 122) = (   0.7500100   0.2885948  -0.1240341  )
       123        S      tau( 123) = (   0.6253146   0.3594994   0.3574324  )
       124        S      tau( 124) = (   0.6250002   0.2165070  -0.3584711  )
       125        S      tau( 125) = (   0.7500616   0.2885920   0.1242759  )
       126        S      tau( 126) = (   0.6276913   0.3582815   0.6066892  )
       127        Mo     tau( 127) = (  -0.3734392   0.6486538   0.4825126  )
       128        Mo     tau( 128) = (   0.6249998   0.5051824  -0.4825273  )
       129        Mo     tau( 129) = (   0.5000108   0.5772931   0.0000391  )
       130        S      tau( 130) = (   0.4999998   0.4330136  -0.6064556  )
       131        S      tau( 131) = (   0.6249933   0.5050874  -0.1240675  )
       132        S      tau( 132) = (   0.4990505   0.5765481   0.3615193  )
       133        S      tau( 133) = (   0.4999999   0.4330135  -0.3584711  )
       134        S      tau( 134) = (   0.6249857   0.5051595   0.1242674  )
       135        S      tau( 135) = (   0.5084858   0.5722242   0.6106609  )
       136        Mo     tau( 136) = (   0.0003958  -0.0008070   0.4838665  )
       137        Mo     tau( 137) = (   0.4999996   0.7216889  -0.4825273  )
       138        Mo     tau( 138) = (   0.3750498   0.7937581   0.0000905  )
       139        S      tau( 139) = (   0.3749996   0.6495201  -0.6064556  )
       140        S      tau( 140) = (   0.5000109   0.7216246  -0.1240696  )
       141        S      tau( 141) = (   0.3755073   0.7912798   0.3612018  )
       142        S      tau( 142) = (   0.3749996   0.6495200  -0.3584711  )
       143        S      tau( 143) = (   0.5000873   0.7215932   0.1243026  )
       144        S      tau( 144) = (   0.3753273   0.8000111   0.6138078  )
       145        Pt     tau( 145) = (   0.2576892   0.4411371   0.7122167  )
       146        Pt     tau( 146) = (   0.3705587   0.6371970   0.7119237  )
       147        Pd     tau( 147) = (  -0.0007134   0.4316973   0.7327597  )

     --------------------------------------------
     DFT-D3 Dispersion Correction (3-body terms):
     --------------------------------------------
       Reference C6 values for interpolation: 

         atom   Coordination number   C6
         S          0.000           268.01
         S          0.995           261.99
         S          1.990           251.62
         Mo         0.000          1691.79
         Mo         1.942          1004.01
         Mo        11.056           674.22
         Pd         0.000          1217.01
         Pd         1.863           573.90
         Pd         5.710           531.75
         Pt         0.000           782.29
         Pt         1.919           692.72
         Pt         6.667           673.75

       Values used:

         atom   Coordination number  R0_AB[au]  C6      C8
         Mo        10.228            3.547    674.22  77634.20
         Mo        10.189            3.547    674.22  77634.20
         Mo        10.201            3.547    674.22  77634.20
         S          3.753            3.128    251.62  12327.25
         S          3.858            3.128    251.62  12327.25
         S          3.859            3.128    251.62  12327.25
         S          3.858            3.128    251.62  12327.25
         S          3.859            3.128    251.62  12327.25
         S          3.824            3.128    251.62  12327.25
         Mo        10.636            3.547    674.22  77634.20
         Mo        10.189            3.547    674.22  77634.20
         Mo        10.200            3.547    674.22  77634.20
         S          3.753            3.128    251.62  12327.25
         S          3.858            3.128    251.62  12327.25
         S          3.859            3.128    251.62  12327.25
         S          3.858            3.128    251.62  12327.25
         S          3.854            3.128    251.62  12327.25
         S          4.734            3.128    251.62  12327.25
         Mo        10.280            3.547    674.22  77634.20
         Mo        10.189            3.547    674.22  77634.20
         Mo        10.200            3.547    674.22  77634.20
         S          3.753            3.128    251.62  12327.25
         S          3.858            3.128    251.62  12327.25
         S          3.855            3.128    251.62  12327.25
         S          3.858            3.128    251.62  12327.25
         S          3.864            3.128    251.62  12327.25
         S          3.828            3.128    251.62  12327.25
         Mo        10.240            3.547    674.22  77634.20
         Mo        10.189            3.547    674.22  77634.20
         Mo        10.201            3.547    674.22  77634.20
         S          3.753            3.128    251.62  12327.25
         S          3.857            3.128    251.62  12327.25
         S          3.867            3.128    251.62  12327.25
         S          3.858            3.128    251.62  12327.25
         S          3.862            3.128    251.62  12327.25
         S          3.762            3.128    251.62  12327.25
         Mo        10.206            3.547    674.22  77634.20
         Mo        10.189            3.547    674.22  77634.20
         Mo        10.201            3.547    674.22  77634.20
         S          3.753            3.128    251.62  12327.25
         S          3.858            3.128    251.62  12327.25
         S          3.865            3.128    251.62  12327.25
         S          3.858            3.128    251.62  12327.25
         S          3.862            3.128    251.62  12327.25
         S          3.763            3.128    251.62  12327.25
         Mo        10.828            3.547    674.22  77634.20
         Mo        10.189            3.547    674.22  77634.20
         Mo        10.202            3.547    674.22  77634.20
         S          3.753            3.128    251.62  12327.25
         S          3.858            3.128    251.62  12327.25
         S          3.846            3.128    251.62  12327.25
         S          3.858            3.128    251.62  12327.25
         S          3.853            3.128    251.62  12327.25
         S          5.586            3.128    251.62  12327.25
         Mo        10.159            3.547    674.22  77634.20
         Mo        10.189            3.547    674.22  77634.20
         Mo        10.200            3.547    674.22  77634.20
         S          3.753            3.128    251.62  12327.25
         S          3.858            3.128    251.62  12327.25
         S          3.838            3.128    251.62  12327.25
         S          3.858            3.128    251.62  12327.25
         S          3.851            3.128    251.62  12327.25
         S          4.752            3.128    251.62  12327.25
         Mo        10.272            3.547    674.22  77634.20
         Mo        10.189            3.547    674.22  77634.20
         Mo        10.199            3.547    674.22  77634.20
         S          3.753            3.128    251.62  12327.25
         S          3.858            3.128    251.62  12327.25
         S          3.856            3.128    251.62  12327.25
         S          3.858            3.128    251.62  12327.25
         S          3.862            3.128    251.62  12327.25
         S          3.792            3.128    251.62  12327.25
         Mo        10.246            3.547    674.22  77634.20
         Mo        10.189            3.547    674.22  77634.20
         Mo        10.200            3.547    674.22  77634.20
         S          3.753            3.128    251.62  12327.25
         S          3.858            3.128    251.62  12327.25
         S          3.854            3.128    251.62  12327.25
         S          3.858            3.128    251.62  12327.25
         S          3.863            3.128    251.62  12327.25
         S          3.817            3.128    251.62  12327.25
         Mo        10.140            3.547    674.22  77634.20
         Mo        10.189            3.547    674.22  77634.20
         Mo        10.202            3.547    674.22  77634.20
         S          3.753            3.128    251.62  12327.25
         S          3.858            3.128    251.62  12327.25
         S          3.856            3.128    251.62  12327.25
         S          3.858            3.128    251.62  12327.25
         S          3.857            3.128    251.62  12327.25
         S          4.671            3.128    251.62  12327.25
         Mo        10.819            3.547    674.22  77634.20
         Mo        10.189            3.547    674.22  77634.20
         Mo        10.202            3.547    674.22  77634.20
         S          3.753            3.128    251.62  12327.25
         S          3.858            3.128    251.62  12327.25
         S          3.874            3.128    251.62  12327.25
         S          3.858            3.128    251.62  12327.25
         S          3.848            3.128    251.62  12327.25
         S          5.684            3.128    251.62  12327.25
         Mo        10.209            3.547    674.22  77634.20
         Mo        10.189            3.547    674.22  77634.20
         Mo        10.200            3.547    674.22  77634.20
         S          3.753            3.128    251.62  12327.25
         S          3.858            3.128    251.62  12327.25
         S          3.837            3.128    251.62  12327.25
         S          3.858            3.128    251.62  12327.25
         S          3.851            3.128    251.62  12327.25
         S          3.837            3.128    251.62  12327.25
         Mo        10.236            3.547    674.22  77634.20
         Mo        10.189            3.547    674.22  77634.20
         Mo        10.200            3.547    674.22  77634.20
         S          3.753            3.128    251.62  12327.25
         S          3.858            3.128    251.62  12327.25
         S          3.859            3.128    251.62  12327.25
         S          3.858            3.128    251.62  12327.25
         S          3.854            3.128    251.62  12327.25
         S          3.807            3.128    251.62  12327.25
         Mo        10.251            3.547    674.22  77634.20
         Mo        10.189            3.547    674.22  77634.20
         Mo        10.201            3.547    674.22  77634.20
         S          3.753            3.128    251.62  12327.25
         S          3.858            3.128    251.62  12327.25
         S          3.846            3.128    251.62  12327.25
         S          3.858            3.128    251.62  12327.25
         S          3.859            3.128    251.62  12327.25
         S          3.836            3.128    251.62  12327.25
         Mo        10.204            3.547    674.22  77634.20
         Mo        10.189            3.547    674.22  77634.20
         Mo        10.202            3.547    674.22  77634.20
         S          3.753            3.128    251.62  12327.25
         S          3.858            3.128    251.62  12327.25
         S          3.857            3.128    251.62  12327.25
         S          3.858            3.128    251.62  12327.25
         S          3.858            3.128    251.62  12327.25
         S          4.671            3.128    251.62  12327.25
         Mo        10.222            3.547    674.22  77634.20
         Mo        10.189            3.547    674.22  77634.20
         Mo        10.202            3.547    674.22  77634.20
         S          3.753            3.128    251.62  12327.25
         S          3.858            3.128    251.62  12327.25
         S          3.843            3.128    251.62  12327.25
         S          3.858            3.128    251.62  12327.25
         S          3.853            3.128    251.62  12327.25
         S          4.627            3.128    251.62  12327.25
         Pt         4.731            3.168    673.75  70061.90
         Pt         4.577            3.168    673.75  70061.94
         Pd         3.480            3.168    573.90  52582.75

         Molecular C6 ( Ry / a.u.^6 ) =   8082341.75


     number of k points=     4  Gaussian smearing, width (Ry)=  0.0100
                       cart. coord. in units 2pi/alat
        k(    1) = (   0.0000000   0.0000000   0.0000000), wk =   0.5000000
        k(    2) = (   0.0000000  -0.5773499   0.0000000), wk =   0.5000000
        k(    3) = (  -0.5000000  -0.2886755   0.0000000), wk =   0.5000000
        k(    4) = (  -0.5000000  -0.8660254   0.0000000), wk =   0.5000000

     Dense  grid:  5955087 G-vectors     FFT dimensions: ( 180, 180, 432)

     Smooth grid:  2572543 G-vectors     FFT dimensions: ( 135, 135, 320)

     Estimated max dynamical RAM per process >       3.09 GB

     Estimated total dynamical RAM >     111.14 GB
     Cannot read rho : file not found

     Initial potential from superposition of free atoms

     starting charge    1329.9539, renormalised to    1330.0000

     negative rho (up, down):  8.919E-04 0.000E+00
     Message from routine qexsd_readschema :
     xml data file ./outdir/pwscf.save/data-file-schema.xml not found
     Cannot read wfcs: file not found
     Starting wfcs are  908 randomized atomic wfcs
     Checking if some PAW data can be deallocated... 

     total cpu time spent up to now is      101.5 secs

     Self-consistent Calculation

     iteration #  1     ecut=    77.00 Ry     beta= 0.20
     Davidson diagonalization with overlap
     c_bands:  1 eigenvalues not converged
     c_bands:  3 eigenvalues not converged
     c_bands:  4 eigenvalues not converged
     c_bands:  5 eigenvalues not converged
     ethr =  1.00E-05,  avg # of iterations =110.0

     negative rho (up, down):  8.639E-04 0.000E+00

     total cpu time spent up to now is     5764.1 secs

     total energy              =  -27706.42139309 Ry
     estimated scf accuracy    <       6.56648866 Ry

     iteration #  2     ecut=    77.00 Ry     beta= 0.20
     Davidson diagonalization with overlap
     ethr =  4.94E-04,  avg # of iterations =  2.0

     negative rho (up, down):  8.562E-04 0.000E+00

     total cpu time spent up to now is     5989.6 secs

     total energy              =  -27706.00202490 Ry
     estimated scf accuracy    <       2.28889197 Ry

     iteration #  3     ecut=    77.00 Ry     beta= 0.20
     Davidson diagonalization with overlap
     ethr =  1.72E-04,  avg # of iterations = 12.0

     negative rho (up, down):  8.632E-04 0.000E+00

     total cpu time spent up to now is     6245.2 secs

     total energy              =  -27705.90470894 Ry
     estimated scf accuracy    <       1.20839296 Ry

     iteration #  4     ecut=    77.00 Ry     beta= 0.20
     Davidson diagonalization with overlap
     ethr =  9.09E-05,  avg # of iterations =  4.2

     negative rho (up, down):  9.189E-04 0.000E+00

     total cpu time spent up to now is     6481.1 secs

     total energy              =  -27705.84978119 Ry
     estimated scf accuracy    <       0.43416579 Ry

     iteration #  5     ecut=    77.00 Ry     beta= 0.20
     Davidson diagonalization with overlap
     c_bands:  2 eigenvalues not converged
     c_bands:  2 eigenvalues not converged
     c_bands:  3 eigenvalues not converged
     c_bands:  2 eigenvalues not converged
     ethr =  3.26E-05,  avg # of iterations = 20.0

     negative rho (up, down):  8.682E-04 0.000E+00

     total cpu time spent up to now is     7103.5 secs

     total energy              =  -27706.51859107 Ry
     estimated scf accuracy    <       0.91813915 Ry

     iteration #  6     ecut=    77.00 Ry     beta= 0.20
     Davidson diagonalization with overlap
     ethr =  3.26E-05,  avg # of iterations =  1.5

     negative rho (up, down):  8.660E-04 0.000E+00

     total cpu time spent up to now is     7319.0 secs

     total energy              =  -27706.42849042 Ry
     estimated scf accuracy    <       0.57742405 Ry

     iteration #  7     ecut=    77.00 Ry     beta= 0.20
     Davidson diagonalization with overlap
     ethr =  3.26E-05,  avg # of iterations =  1.0

     negative rho (up, down):  9.025E-04 0.000E+00

     total cpu time spent up to now is     7524.4 secs

     total energy              =  -27706.19580295 Ry
     estimated scf accuracy    <       0.39775025 Ry

     iteration #  8     ecut=    77.00 Ry     beta= 0.20
     Davidson diagonalization with overlap
     ethr =  2.99E-05,  avg # of iterations = 14.5

     negative rho (up, down):  9.282E-04 0.000E+00

     total cpu time spent up to now is     7940.6 secs

     total energy              =  -27706.43218970 Ry
     estimated scf accuracy    <       0.14321788 Ry

     iteration #  9     ecut=    77.00 Ry     beta= 0.20
     Davidson diagonalization with overlap
     ethr =  1.08E-05,  avg # of iterations =  3.2

     negative rho (up, down):  9.230E-04 0.000E+00

     total cpu time spent up to now is     8172.7 secs

     total energy              =  -27706.41166116 Ry
     estimated scf accuracy    <       0.04733269 Ry

     iteration # 10     ecut=    77.00 Ry     beta= 0.20
     Davidson diagonalization with overlap
     c_bands:  1 eigenvalues not converged
     c_bands:  1 eigenvalues not converged
     c_bands:  2 eigenvalues not converged
     ethr =  3.56E-06,  avg # of iterations = 35.5

     negative rho (up, down):  9.206E-04 0.000E+00

     total cpu time spent up to now is     8840.6 secs

     total energy              =  -27706.44183590 Ry
     estimated scf accuracy    <       0.00494590 Ry

     iteration # 11     ecut=    77.00 Ry     beta= 0.20
     Davidson diagonalization with overlap
     c_bands:  2 eigenvalues not converged
     c_bands:  4 eigenvalues not converged
     ethr =  3.72E-07,  avg # of iterations = 18.8

     negative rho (up, down):  9.189E-04 0.000E+00

     total cpu time spent up to now is     9434.7 secs

     total energy              =  -27706.44042213 Ry
     estimated scf accuracy    <       0.01170028 Ry

     iteration # 12     ecut=    77.00 Ry     beta= 0.20
     Davidson diagonalization with overlap
     ethr =  3.72E-07,  avg # of iterations = 11.2

     negative rho (up, down):  9.154E-04 0.000E+00

     total cpu time spent up to now is     9810.5 secs

     total energy              =  -27706.44297383 Ry
     estimated scf accuracy    <       0.00074838 Ry

     iteration # 13     ecut=    77.00 Ry     beta= 0.20
     Davidson diagonalization with overlap
     c_bands:  1 eigenvalues not converged
     c_bands:  2 eigenvalues not converged
     ethr =  5.63E-08,  avg # of iterations = 19.2

     negative rho (up, down):  9.137E-04 0.000E+00

     total cpu time spent up to now is    10601.6 secs

     total energy              =  -27706.44406197 Ry
     estimated scf accuracy    <       0.00247818 Ry

     iteration # 14     ecut=    77.00 Ry     beta= 0.20
     Davidson diagonalization with overlap
     ethr =  5.63E-08,  avg # of iterations =  1.8

     negative rho (up, down):  9.113E-04 0.000E+00

     total cpu time spent up to now is    10822.0 secs

     total energy              =  -27706.44311497 Ry
     estimated scf accuracy    <       0.00139620 Ry

     iteration # 15     ecut=    77.00 Ry     beta= 0.20
     Davidson diagonalization with overlap
     ethr =  5.63E-08,  avg # of iterations = 15.5

     negative rho (up, down):  9.109E-04 0.000E+00

     total cpu time spent up to now is    11339.4 secs

     total energy              =  -27706.44407699 Ry
     estimated scf accuracy    <       0.00090022 Ry

     iteration # 16     ecut=    77.00 Ry     beta= 0.20
     Davidson diagonalization with overlap
     ethr =  5.63E-08,  avg # of iterations =  1.0

     negative rho (up, down):  9.109E-04 0.000E+00

     total cpu time spent up to now is    11544.9 secs

     total energy              =  -27706.44386096 Ry
     estimated scf accuracy    <       0.00050780 Ry

     iteration # 17     ecut=    77.00 Ry     beta= 0.20
     Davidson diagonalization with overlap
     ethr =  3.82E-08,  avg # of iterations =  8.2

     negative rho (up, down):  9.107E-04 0.000E+00

     total cpu time spent up to now is    11784.2 secs

     total energy              =  -27706.44378971 Ry
     estimated scf accuracy    <       0.00014287 Ry

     iteration # 18     ecut=    77.00 Ry     beta= 0.20
     Davidson diagonalization with overlap
     ethr =  1.07E-08,  avg # of iterations = 16.0

     negative rho (up, down):  9.105E-04 0.000E+00

     total cpu time spent up to now is    12301.0 secs

     total energy              =  -27706.44395578 Ry
     estimated scf accuracy    <       0.00011431 Ry

     iteration # 19     ecut=    77.00 Ry     beta= 0.20
     Davidson diagonalization with overlap
     ethr =  8.59E-09,  avg # of iterations =  3.0

     negative rho (up, down):  9.100E-04 0.000E+00

     total cpu time spent up to now is    12529.1 secs

     total energy              =  -27706.44394027 Ry
     estimated scf accuracy    <       0.00003664 Ry

     iteration # 20     ecut=    77.00 Ry     beta= 0.20
     Davidson diagonalization with overlap
     c_bands:  1 eigenvalues not converged
     ethr =  2.75E-09,  avg # of iterations = 22.8

     negative rho (up, down):  9.098E-04 0.000E+00

     total cpu time spent up to now is    13136.1 secs

     total energy              =  -27706.44397668 Ry
     estimated scf accuracy    <       0.00000454 Ry

     iteration # 21     ecut=    77.00 Ry     beta= 0.20
     Davidson diagonalization with overlap
     c_bands:  4 eigenvalues not converged
     c_bands:  2 eigenvalues not converged
     ethr =  3.41E-10,  avg # of iterations = 19.5

     negative rho (up, down):  9.092E-04 0.000E+00

     total cpu time spent up to now is    13835.7 secs

     total energy              =  -27706.44398122 Ry
     estimated scf accuracy    <       0.00001127 Ry

     iteration # 22     ecut=    77.00 Ry     beta= 0.20
     Davidson diagonalization with overlap
     ethr =  3.41E-10,  avg # of iterations = 10.0

     negative rho (up, down):  9.088E-04 0.000E+00

     total cpu time spent up to now is    14096.2 secs

     total energy              =  -27706.44397990 Ry
     estimated scf accuracy    <       0.00000342 Ry

     iteration # 23     ecut=    77.00 Ry     beta= 0.20
     Davidson diagonalization with overlap
     ethr =  2.57E-10,  avg # of iterations = 12.5

     negative rho (up, down):  9.084E-04 0.000E+00

     total cpu time spent up to now is    14480.6 secs

     End of self-consistent calculation

          k = 0.0000 0.0000 0.0000 (321495 PWs)   bands (ev):

  -102.9331-102.9073 -88.2986 -71.2755 -71.2689 -71.2565 -71.2527 -71.2485
   -71.2363 -71.2220 -71.2213 -71.2090 -71.1961 -71.1955 -71.1865 -71.1724
   -71.1635 -66.7261 -66.7051 -66.7051 -66.7050 -66.7050 -66.7050 -66.7050
   -66.6839 -66.6839 -66.6839 -66.6839 -66.6838 -66.6838 -66.6838 -66.6838
   -66.6838 -66.6604 -66.6397 -66.6397 -66.6395 -66.6391 -66.6390 -66.6388
   -66.6189 -66.6185 -66.6185 -66.6183 -66.6181 -66.6179 -66.6178 -66.6177
   -66.6173 -66.5877 -66.5761 -66.5698 -66.5629 -66.5588 -66.5525 -66.5462
   -66.5406 -66.5394 -66.5338 -66.5293 -66.5262 -66.5221 -66.5184 -66.5154
   -66.5013 -57.2714 -57.2225 -57.1225 -57.0849 -57.0688 -57.0292 -54.1575
   -54.1081 -54.0353 -41.0526 -41.0526 -41.0526 -40.9857 -40.9857 -40.9855
   -40.9778 -40.9778 -40.9778 -40.9778 -40.9778 -40.9778 -40.9111 -40.9110
   -40.9110 -40.9108 -40.9107 -40.9106 -40.9040 -40.9029 -40.9002 -40.8863
   -40.8522 -40.8522 -40.8522 -40.8522 -40.8522 -40.8522 -40.8449 -40.8449
   -40.8448 -40.8448 -40.8448 -40.8448 -40.8359 -40.8306 -40.8273 -40.8210
   -40.8200 -40.8174 -40.8174 -40.8174 -40.8174 -40.8174 -40.8174 -40.8104
   -40.8032 -40.8032 -40.8032 -40.8032 -40.8031 -40.8031 -40.8031 -40.8031
   -40.8031 -40.8009 -40.7857 -40.7856 -40.7855 -40.7854 -40.7853 -40.7852
   -40.7800 -40.7799 -40.7797 -40.7794 -40.7794 -40.7792 -40.7672 -40.7509
   -40.7508 -40.7508 -40.7506 -40.7505 -40.7504 -40.7438 -40.7396 -40.7396
   -40.7396 -40.7387 -40.7384 -40.7382 -40.7381 -40.7379 -40.7378 -40.7377
   -40.7376 -40.7372 -40.7274 -40.7247 -40.7204 -40.7159 -40.7085 -40.7075
   -40.7059 -40.7042 -40.6931 -40.6928 -40.6928 -40.6928 -40.6928 -40.6928
   -40.6928 -40.6897 -40.6888 -40.6850 -40.6796 -40.6754 -40.6747 -40.6730
   -40.6729 -40.6729 -40.6714 -40.6710 -40.6692 -40.6687 -40.6655 -40.6600
   -40.6574 -40.6555 -40.6463 -40.6455 -40.6455 -40.6430 -40.6335 -40.6265
   -40.6264 -40.6263 -40.6261 -40.6259 -40.6258 -40.5893 -40.5849 -40.5803
   -40.5789 -40.5789 -40.5388 -40.5379 -40.5338 -40.5297 -40.5248 -40.5210
   -40.4819 -40.4685 -20.3089 -20.1453 -19.9872 -19.7600 -19.4740 -19.3375
   -19.2970 -19.2958 -19.2918 -19.2850 -19.2823 -19.2728 -19.2259 -19.2227
   -19.1882 -19.1423 -19.1354 -19.1264 -19.1094 -19.1082 -19.0749 -18.9314
   -18.8293 -18.7846 -18.6602 -18.5829 -18.5754 -18.5486 -18.5445 -18.5117
   -18.4850 -18.4756 -18.4403 -18.4254 -18.4183 -18.3913 -18.3557 -18.3338
   -18.2766 -18.2577 -18.2573 -18.2511 -18.2326 -18.2031 -18.1862 -18.1858
   -18.1855 -18.1854 -18.1852 -18.1852 -18.1640 -18.1468 -18.1454 -18.1452
   -18.1441 -18.1169 -18.1059 -18.1037 -18.1011 -18.0997 -18.0967 -18.0776
   -18.0725 -18.0715 -18.0684 -18.0268 -18.0231 -18.0137 -18.0084 -17.9926
   -17.9890 -17.9884 -17.9850 -17.9779 -17.9695 -17.9638 -17.9615 -17.9608
   -17.9381 -17.9296 -17.9279 -17.9189 -17.9092 -17.9043 -17.8953 -17.8935
   -17.8901 -17.8692 -17.8610 -17.8602 -17.8427 -17.8335 -17.8252 -17.8126
   -17.8105 -17.8062 -12.3471 -12.3221 -12.0095 -11.9721 -11.8168 -11.7999
   -11.7985 -11.7932 -11.7173 -11.7143 -11.7120 -11.6356 -11.5186 -11.4314
   -11.3768 -11.3507 -11.3121 -11.2623 -11.2546 -11.2496 -11.2399 -11.2341
   -11.2209 -11.1896 -11.1843 -11.1722 -11.1707 -11.1676 -11.1653 -11.1576
   -11.1444 -11.0902 -11.0567 -11.0464 -11.0343 -11.0341 -11.0297 -11.0196
   -11.0102 -10.9864 -10.9758 -10.9679 -10.9542 -10.9472 -10.9288 -10.9228
   -10.9071 -10.8921 -10.8872 -10.8803 -10.8774 -10.8762 -10.8755 -10.8739
   -10.8716 -10.8554 -10.8485 -10.8470 -10.8459 -10.8346 -10.8299 -10.8286
   -10.8257 -10.8243 -10.8180 -10.7910 -10.7698 -10.7545 -10.7499 -10.7351
   -10.7146 -10.7082 -10.6723 -10.6641 -10.6555 -10.5992 -10.5008 -10.4138
   -10.3048 -10.1964 -10.0952 -10.0927 -10.0906 -10.0522  -9.9820  -9.9598
    -9.9319  -9.9020  -9.8840  -9.8440  -9.8374  -9.8300  -9.8200  -9.8166
    -9.7934  -9.7820  -9.7746  -9.7590  -9.7547  -9.7407  -9.7318  -9.7042
    -9.6937  -9.6808  -9.6778  -9.6683  -9.6661  -9.6611  -9.6554  -9.6478
    -9.6418  -9.6262  -9.6215  -9.6192  -9.6178  -9.6169  -9.6161  -9.6033
    -9.5974  -9.5863  -9.5231  -9.5136  -9.5061  -9.4919  -9.4868  -9.4823
    -9.4792  -9.4410  -9.4305  -9.4210  -9.4070  -9.4058  -9.3972  -9.3862
    -9.3701  -9.3574  -9.3440  -9.3003  -9.2931  -9.2725  -9.2669  -9.2569
    -9.2499  -9.2437  -9.2155  -9.2073  -9.1691  -9.1556  -9.1122  -9.0845
    -9.0773  -9.0707  -9.0676  -9.0642  -9.0641  -9.0634  -9.0423  -9.0253
    -8.9943  -8.9876  -8.9848  -8.9772  -8.9742  -8.9533  -8.9085  -8.8872
    -8.8834  -8.8635  -8.8544  -8.8511  -8.8457  -8.8431  -8.8380  -8.8316
    -8.8246  -8.8166  -8.8096  -8.8039  -8.7896  -8.7793  -8.7788  -8.7661
    -8.7626  -8.7356  -8.6288  -8.6138  -8.5182  -8.4755  -8.4755  -8.4743
    -8.4027  -8.4027  -8.3900  -8.3755  -8.3635  -8.3633  -8.3632  -8.3631
    -8.3629  -8.3626  -8.3431  -8.3274  -8.3043  -8.2968  -8.2892  -8.2860
    -8.2856  -8.2850  -8.2771  -8.2678  -8.2391  -8.1201  -8.1101  -8.0468
    -7.9918  -7.9789  -7.9546  -7.9414  -7.8571  -7.8104  -7.7512  -7.7180
    -7.7049  -7.6782  -7.6474  -7.6288  -7.6283  -7.6278  -7.6276  -7.6275
    -7.6266  -7.6131  -7.6005  -7.5820  -7.5817  -7.5812  -7.5810  -7.5803
    -7.5799  -7.5646  -7.5579  -7.5565  -7.5491  -7.5464  -7.5437  -7.5410
    -7.5381  -7.5240  -7.5096  -7.5086  -7.5076  -7.5046  -7.5037  -7.5009
    -7.4982  -7.4780  -7.4735  -7.4678  -7.4659  -7.4611  -7.4485  -7.4164
    -7.4042  -7.3596  -7.3467  -7.3465  -7.3422  -7.3370  -7.2835  -7.2803
    -7.2765  -7.2712  -7.2577  -7.2118  -7.1900  -7.1306  -7.0914  -7.0705
    -7.0325  -7.0202  -6.9694  -6.9643  -6.9356  -6.9052  -6.8896  -6.8433
    -6.8408  -6.8395  -6.7883  -6.7432  -6.7163  -6.7157  -6.7114  -6.7066
    -6.6970  -6.6714  -6.6700  -6.6642  -6.6484  -6.6339  -6.6099  -6.5990
    -6.5912  -6.5700  -6.5693  -6.5635  -6.5607  -6.5571  -6.5393  -6.5322
    -6.5184  -6.5140  -6.5115  -6.4913  -6.4899  -6.4780  -6.4690  -6.4660
    -6.4426  -6.4197  -6.3946  -6.3945  -6.3945  -6.3945  -6.3945  -6.3945
    -6.3885  -6.3604  -6.3540  -6.3291  -6.3233  -6.3174  -6.3163  -6.3155
    -6.3141  -6.3106  -6.3004  -6.2605  -6.2475  -6.1735  -6.0569  -5.9852
    -5.9232  -5.7939  -5.6835  -5.5894  -5.5491  -5.4202  -5.4179  -5.1773
    -5.1562  -4.2843  -4.0215  -3.9153  -3.8798  -3.8788  -3.8773  -3.8615
    -3.8556  -3.8519  -3.8477  -3.8453  -3.8427  -3.8254  -3.7977  -3.7473
    -3.6691  -3.6602  -3.6402  -3.6345  -3.6279  -3.6256  -3.6154  -3.6107
    -3.6057  -3.5351  -3.5351  -3.5351  -3.5207  -3.5178  -3.5173  -3.5154
    -3.5148  -3.5138  -3.4891  -3.4774  -3.4682  -3.4679  -3.4676  -3.4557
    -3.4455  -3.4412  -3.4277  -3.4227  -3.4163  -3.4140  -3.4075  -3.4012
    -3.3961  -3.3913  -3.3890  -3.3788  -3.3681  -3.3654  -3.3458  -3.3290
    -3.3165  -3.3060  -3.2986  -3.2953  -3.2706  -3.2387  -3.2239  -3.1758
    -3.0875  -3.0678  -3.0673  -3.0660  -3.0633  -3.0632  -3.0525  -3.0191
    -3.0018  -2.9977  -2.9973  -2.9972  -2.9967  -2.9965  -2.9962  -2.9941
    -2.9919  -2.9817  -2.9748  -2.9696  -2.9592  -2.9483  -2.9450  -2.9366
    -2.9348  -2.9317  -2.9262  -2.9225  -2.9206  -2.9132  -2.9112  -2.9093
    -2.8958  -2.8869  -2.8700  -2.8650  -2.8557  -2.8542  -2.8289  -2.8079
    -2.8064  -2.7924  -2.7904  -2.7887  -2.7880  -2.7870  -2.7846  -2.7418
    -2.7402  -2.7312  -2.7269  -2.7054  -2.6844  -2.6794  -2.6647  -2.6371
    -2.6231  -2.6186  -2.6034  -2.5870  -2.5854  -2.5787  -2.5705  -2.5639
    -2.5457  -2.5338  -2.5169  -2.4991  -2.4948  -2.4867

          k = 0.0000-0.5773 0.0000 (321564 PWs)   bands (ev):

  -102.9331-102.9073 -88.2986 -71.2755 -71.2689 -71.2565 -71.2527 -71.2485
   -71.2363 -71.2220 -71.2213 -71.2090 -71.1961 -71.1955 -71.1865 -71.1724
   -71.1635 -66.7200 -66.7200 -66.7094 -66.7094 -66.6945 -66.6945 -66.6945
   -66.6945 -66.6901 -66.6900 -66.6839 -66.6839 -66.6838 -66.6838 -66.6795
   -66.6795 -66.6543 -66.6541 -66.6437 -66.6436 -66.6290 -66.6288 -66.6287
   -66.6285 -66.6244 -66.6242 -66.6183 -66.6182 -66.6181 -66.6178 -66.6137
   -66.6136 -66.5864 -66.5782 -66.5703 -66.5623 -66.5587 -66.5505 -66.5485
   -66.5396 -66.5378 -66.5357 -66.5282 -66.5252 -66.5240 -66.5192 -66.5145
   -66.5013 -57.2714 -57.2225 -57.1225 -57.0849 -57.0688 -57.0292 -54.1575
   -54.1081 -54.0353 -41.0212 -41.0212 -41.0212 -41.0212 -40.9946 -40.9945
   -40.9826 -40.9826 -40.9544 -40.9543 -40.9542 -40.9540 -40.9322 -40.9322
   -40.9322 -40.9322 -40.9277 -40.9275 -40.9157 -40.9156 -40.8861 -40.8764
   -40.8742 -40.8742 -40.8654 -40.8654 -40.8653 -40.8652 -40.8643 -40.8643
   -40.8624 -40.8585 -40.8534 -40.8534 -40.8529 -40.8463 -40.8273 -40.8240
   -40.8240 -40.8240 -40.8240 -40.8154 -40.8153 -40.8090 -40.8088 -40.8052
   -40.8033 -40.8033 -40.8031 -40.8031 -40.8031 -40.8031 -40.7976 -40.7974
   -40.7945 -40.7945 -40.7882 -40.7881 -40.7835 -40.7725 -40.7725 -40.7725
   -40.7725 -40.7718 -40.7694 -40.7657 -40.7590 -40.7588 -40.7588 -40.7586
   -40.7586 -40.7502 -40.7501 -40.7459 -40.7381 -40.7380 -40.7380 -40.7380
   -40.7380 -40.7380 -40.7380 -40.7377 -40.7373 -40.7366 -40.7364 -40.7294
   -40.7293 -40.7265 -40.7259 -40.7259 -40.7134 -40.7087 -40.7067 -40.7067
   -40.7059 -40.7058 -40.7058 -40.7057 -40.7025 -40.6998 -40.6971 -40.6938
   -40.6898 -40.6898 -40.6855 -40.6793 -40.6792 -40.6726 -40.6714 -40.6714
   -40.6713 -40.6712 -40.6704 -40.6646 -40.6629 -40.6594 -40.6594 -40.6594
   -40.6592 -40.6531 -40.6501 -40.6447 -40.6402 -40.6400 -40.6253 -40.6233
   -40.6231 -40.6187 -40.6159 -40.6093 -40.5929 -40.5927 -40.5844 -40.5812
   -40.5780 -40.5723 -40.5709 -40.5558 -40.5492 -40.5449 -40.5242 -40.5097
   -40.5043 -40.4806 -20.2416 -19.9283 -19.9126 -19.8517 -19.7607 -19.7239
   -19.5864 -19.5280 -19.4779 -19.4645 -19.3370 -19.3153 -19.2059 -18.9605
   -18.8791 -18.8304 -18.8009 -18.7844 -18.7756 -18.7734 -18.7673 -18.7656
   -18.6903 -18.6692 -18.6560 -18.6488 -18.6451 -18.6405 -18.6228 -18.5820
   -18.5635 -18.5307 -18.5273 -18.4993 -18.4927 -18.4795 -18.4522 -18.4385
   -18.4247 -18.4114 -18.3721 -18.3618 -18.3172 -18.3085 -18.2837 -18.2632
   -18.2450 -18.2378 -18.2038 -18.1898 -18.1808 -18.1659 -18.1658 -18.1658
   -18.1657 -18.1560 -18.1359 -18.1318 -18.1021 -18.0921 -18.0889 -18.0853
   -18.0846 -18.0771 -18.0626 -18.0548 -18.0363 -18.0349 -18.0291 -18.0073
   -17.9879 -17.9874 -17.9847 -17.9797 -17.9656 -17.9626 -17.9308 -17.9230
   -17.9150 -17.9026 -17.9026 -17.9004 -17.8816 -17.8614 -17.8533 -17.8433
   -17.8431 -17.8303 -17.8296 -17.8258 -17.8237 -17.8198 -17.7842 -17.7833
   -17.7272 -17.7211 -12.3132 -12.2275 -11.8866 -11.7959 -11.7278 -11.6434
   -11.6216 -11.5153 -11.5129 -11.5102 -11.5100 -11.4974 -11.4891 -11.4732
   -11.4604 -11.4439 -11.4208 -11.4147 -11.4132 -11.3955 -11.3805 -11.3497
   -11.3399 -11.3246 -11.3148 -11.3120 -11.2954 -11.2954 -11.2803 -11.2497
   -11.2496 -11.2074 -11.2050 -11.1973 -11.1933 -11.1483 -11.1447 -11.1060
   -11.0874 -11.0726 -11.0258 -11.0160 -11.0069 -10.9789 -10.9707 -10.9528
   -10.9500 -10.9388 -10.9246 -10.9113 -10.8941 -10.8884 -10.8834 -10.8700
   -10.8688 -10.8682 -10.8674 -10.8637 -10.8510 -10.8293 -10.8079 -10.8049
   -10.7980 -10.7954 -10.7546 -10.7127 -10.6484 -10.6272 -10.5994 -10.5374
   -10.5256 -10.4876 -10.4226 -10.3938 -10.3417 -10.3056 -10.2105 -10.1900
   -10.1706 -10.1574 -10.1511 -10.1276 -10.1115 -10.0922 -10.0597 -10.0205
   -10.0121  -9.9971  -9.9786  -9.9762  -9.9700  -9.9654  -9.9561  -9.9474
    -9.9364  -9.9262  -9.9207  -9.9162  -9.8693  -9.8588  -9.8424  -9.8320
    -9.8113  -9.7894  -9.7698  -9.7556  -9.7520  -9.7451  -9.7418  -9.7380
    -9.7347  -9.7101  -9.7031  -9.6926  -9.6813  -9.6533  -9.6425  -9.6152
    -9.6006  -9.5893  -9.5786  -9.5675  -9.5561  -9.5178  -9.5104  -9.4935
    -9.4592  -9.4371  -9.3997  -9.3763  -9.3374  -9.3226  -9.2624  -9.2462
    -9.2408  -9.2206  -9.2041  -9.2012  -9.1936  -9.1742  -9.1602  -9.1537
    -9.1427  -9.1369  -9.1200  -9.1032  -9.0909  -9.0859  -9.0822  -9.0653
    -9.0543  -9.0397  -9.0335  -9.0150  -9.0059  -8.9927  -8.9888  -8.9816
    -8.9796  -8.9715  -8.9593  -8.9499  -8.9406  -8.9251  -8.9170  -8.9076
    -8.8981  -8.8959  -8.8898  -8.8860  -8.8783  -8.8775  -8.8696  -8.8664
    -8.8593  -8.8538  -8.8182  -8.8136  -8.8026  -8.7979  -8.7826  -8.7714
    -8.7489  -8.6621  -8.6111  -8.5627  -8.5574  -8.5506  -8.5492  -8.4786
    -8.4723  -8.4591  -8.4130  -8.3986  -8.3705  -8.2629  -8.2319  -8.2319
    -8.2165  -8.2073  -8.1598  -8.1593  -8.1353  -8.1151  -8.0801  -8.0401
    -8.0090  -7.9711  -7.9686  -7.9585  -7.9136  -7.9036  -7.8960  -7.8947
    -7.8887  -7.8887  -7.8852  -7.8851  -7.8806  -7.8778  -7.8554  -7.8444
    -7.8388  -7.8376  -7.8366  -7.8348  -7.8144  -7.8138  -7.8006  -7.7955
    -7.7860  -7.7831  -7.7679  -7.7671  -7.7638  -7.7598  -7.7546  -7.7451
    -7.7356  -7.7293  -7.7188  -7.7060  -7.7001  -7.6999  -7.6989  -7.6889
    -7.6807  -7.6656  -7.6588  -7.6465  -7.6262  -7.6252  -7.6125  -7.5978
    -7.5801  -7.5693  -7.5566  -7.5367  -7.5133  -7.4570  -7.4094  -7.3841
    -7.3824  -7.2992  -7.2799  -7.2724  -7.2619  -7.2494  -7.2139  -7.1767
    -7.1689  -7.1385  -7.1126  -7.1041  -7.0946  -7.0614  -7.0532  -7.0472
    -7.0370  -7.0127  -7.0049  -6.9939  -6.9681  -6.9419  -6.9402  -6.9298
    -6.9159  -6.8697  -6.8647  -6.8353  -6.8125  -6.7869  -6.7529  -6.7452
    -6.7235  -6.7004  -6.6969  -6.6968  -6.6967  -6.6967  -6.6898  -6.6500
    -6.6418  -6.6294  -6.6279  -6.6262  -6.6228  -6.6128  -6.6063  -6.5787
    -6.5435  -6.5323  -6.5118  -6.4756  -6.4716  -6.3794  -6.3657  -6.3652
    -6.3647  -6.3644  -6.3430  -6.3069  -6.3044  -6.2984  -6.2858  -6.2829
    -6.2801  -6.2789  -6.2681  -6.2491  -6.2359  -6.2031  -6.1825  -6.0404
    -6.0168  -6.0166  -6.0108  -5.9494  -5.9396  -5.9370  -5.8331  -5.8038
    -5.7849  -5.7469  -5.6619  -5.6189  -5.5481  -5.5162  -5.3933  -5.3364
    -5.2006  -4.3264  -4.0851  -4.0715  -4.0569  -4.0277  -3.9525  -3.9317
    -3.9317  -3.8954  -3.8855  -3.8775  -3.8667  -3.8664  -3.8235  -3.8129
    -3.7967  -3.7564  -3.7325  -3.6756  -3.6522  -3.6374  -3.6349  -3.6338
    -3.6307  -3.6195  -3.6175  -3.6173  -3.5986  -3.5623  -3.5423  -3.5384
    -3.5362  -3.5331  -3.5162  -3.5138  -3.5086  -3.5038  -3.4969  -3.4633
    -3.4611  -3.4321  -3.4219  -3.4078  -3.4032  -3.3884  -3.3857  -3.3833
    -3.3801  -3.3555  -3.3532  -3.3471  -3.3427  -3.3229  -3.3092  -3.3089
    -3.3083  -3.3072  -3.2975  -3.2803  -3.2703  -3.2693  -3.2621  -3.2497
    -3.2458  -3.2342  -3.2293  -3.2240  -3.2218  -3.2019  -3.1853  -3.1664
    -3.1514  -3.1367  -3.1254  -3.1049  -3.1028  -3.0893  -3.0746  -3.0648
    -3.0626  -3.0452  -3.0449  -3.0445  -3.0440  -3.0139  -3.0054  -2.9967
    -2.9962  -2.9878  -2.9815  -2.9734  -2.9624  -2.9580  -2.9503  -2.9480
    -2.9376  -2.9285  -2.9264  -2.9200  -2.9123  -2.8988  -2.8855  -2.8678
    -2.8634  -2.8559  -2.8378  -2.8353  -2.8105  -2.7869  -2.7777  -2.7494
    -2.7467  -2.7080  -2.6976  -2.6823  -2.6813  -2.6803  -2.6686  -2.6048
    -2.5999  -2.5702  -2.5658  -2.5399  -2.5315  -2.5228  -2.5163  -2.4603
    -2.4164  -2.4027  -2.3806  -2.3468  -2.3194  -2.3044

          k =-0.5000-0.2887 0.0000 (321564 PWs)   bands (ev):

  -102.9331-102.9073 -88.2986 -71.2755 -71.2689 -71.2565 -71.2527 -71.2485
   -71.2363 -71.2220 -71.2213 -71.2090 -71.1961 -71.1955 -71.1865 -71.1724
   -71.1635 -66.7200 -66.7200 -66.7094 -66.7094 -66.6945 -66.6945 -66.6945
   -66.6945 -66.6901 -66.6901 -66.6839 -66.6839 -66.6838 -66.6838 -66.6795
   -66.6795 -66.6544 -66.6540 -66.6438 -66.6436 -66.6290 -66.6288 -66.6287
   -66.6285 -66.6245 -66.6241 -66.6186 -66.6180 -66.6180 -66.6178 -66.6138
   -66.6136 -66.5857 -66.5800 -66.5689 -66.5624 -66.5578 -66.5524 -66.5476
   -66.5397 -66.5390 -66.5344 -66.5284 -66.5257 -66.5233 -66.5193 -66.5146
   -66.5013 -57.2714 -57.2225 -57.1225 -57.0849 -57.0688 -57.0292 -54.1575
   -54.1081 -54.0353 -41.0212 -41.0212 -41.0212 -41.0212 -40.9946 -40.9945
   -40.9826 -40.9826 -40.9546 -40.9542 -40.9541 -40.9541 -40.9322 -40.9322
   -40.9322 -40.9322 -40.9278 -40.9275 -40.9158 -40.9156 -40.8775 -40.8742
   -40.8742 -40.8741 -40.8704 -40.8654 -40.8654 -40.8653 -40.8652 -40.8643
   -40.8643 -40.8643 -40.8565 -40.8534 -40.8534 -40.8457 -40.8276 -40.8240
   -40.8240 -40.8240 -40.8240 -40.8154 -40.8153 -40.8090 -40.8087 -40.8033
   -40.8033 -40.8031 -40.8031 -40.8031 -40.8031 -40.8005 -40.7976 -40.7974
   -40.7945 -40.7945 -40.7883 -40.7881 -40.7822 -40.7725 -40.7725 -40.7725
   -40.7725 -40.7715 -40.7675 -40.7607 -40.7603 -40.7590 -40.7588 -40.7588
   -40.7586 -40.7503 -40.7500 -40.7467 -40.7384 -40.7380 -40.7380 -40.7380
   -40.7380 -40.7378 -40.7378 -40.7377 -40.7366 -40.7365 -40.7364 -40.7294
   -40.7292 -40.7259 -40.7259 -40.7243 -40.7184 -40.7067 -40.7067 -40.7062
   -40.7060 -40.7059 -40.7057 -40.7055 -40.7042 -40.7019 -40.6957 -40.6932
   -40.6898 -40.6898 -40.6857 -40.6838 -40.6766 -40.6733 -40.6715 -40.6714
   -40.6713 -40.6712 -40.6683 -40.6653 -40.6637 -40.6594 -40.6594 -40.6594
   -40.6591 -40.6528 -40.6525 -40.6433 -40.6403 -40.6399 -40.6237 -40.6233
   -40.6231 -40.6231 -40.6160 -40.6115 -40.5930 -40.5926 -40.5847 -40.5824
   -40.5759 -40.5745 -40.5664 -40.5562 -40.5534 -40.5369 -40.5288 -40.5017
   -40.4993 -40.4906 -20.2363 -19.9357 -19.9127 -19.8698 -19.7601 -19.7288
   -19.5766 -19.4995 -19.4776 -19.4433 -19.3406 -19.3082 -19.2326 -19.0167
   -18.8512 -18.8236 -18.7959 -18.7808 -18.7762 -18.7737 -18.7651 -18.7484
   -18.7141 -18.6735 -18.6594 -18.6502 -18.6439 -18.6338 -18.6189 -18.5884
   -18.5648 -18.5307 -18.5280 -18.5128 -18.4972 -18.4696 -18.4617 -18.4400
   -18.4211 -18.3957 -18.3709 -18.3399 -18.3281 -18.2964 -18.2770 -18.2710
   -18.2350 -18.2265 -18.2138 -18.1911 -18.1678 -18.1662 -18.1659 -18.1658
   -18.1656 -18.1546 -18.1426 -18.1279 -18.1003 -18.0983 -18.0923 -18.0852
   -18.0826 -18.0809 -18.0787 -18.0583 -18.0377 -18.0331 -18.0230 -18.0205
   -17.9941 -17.9878 -17.9821 -17.9771 -17.9759 -17.9628 -17.9292 -17.9223
   -17.9151 -17.9103 -17.9026 -17.9026 -17.8671 -17.8647 -17.8474 -17.8431
   -17.8429 -17.8417 -17.8301 -17.8259 -17.8243 -17.8017 -17.7830 -17.7819
   -17.7302 -17.7213 -12.3088 -12.2214 -11.8258 -11.8058 -11.7294 -11.6950
   -11.6387 -11.5676 -11.5123 -11.5120 -11.5099 -11.5091 -11.4917 -11.4849
   -11.4766 -11.4312 -11.4164 -11.4125 -11.4108 -11.4081 -11.3704 -11.3575
   -11.3344 -11.3258 -11.3180 -11.2954 -11.2954 -11.2805 -11.2515 -11.2497
   -11.2453 -11.2018 -11.1996 -11.1953 -11.1919 -11.1344 -11.1289 -11.1024
   -11.0918 -11.0564 -11.0443 -11.0179 -11.0096 -11.0014 -10.9602 -10.9553
   -10.9495 -10.9448 -10.9248 -10.9212 -10.9053 -10.9007 -10.8740 -10.8693
   -10.8685 -10.8679 -10.8667 -10.8648 -10.8638 -10.8347 -10.8067 -10.8031
   -10.7999 -10.7957 -10.7201 -10.7097 -10.6506 -10.6241 -10.5528 -10.5478
   -10.5207 -10.5045 -10.4310 -10.4062 -10.3481 -10.3081 -10.2170 -10.1857
   -10.1607 -10.1573 -10.1449 -10.1357 -10.0802 -10.0758 -10.0626 -10.0461
   -10.0042 -10.0008  -9.9927  -9.9710  -9.9700  -9.9633  -9.9503  -9.9439
    -9.9391  -9.9292  -9.9181  -9.9138  -9.8732  -9.8591  -9.8060  -9.8017
    -9.7899  -9.7850  -9.7720  -9.7569  -9.7511  -9.7501  -9.7396  -9.7333
    -9.7222  -9.7111  -9.6856  -9.6751  -9.6596  -9.6470  -9.6191  -9.6133
    -9.5972  -9.5805  -9.5792  -9.5654  -9.5590  -9.5528  -9.5280  -9.5094
    -9.5024  -9.4682  -9.4469  -9.3814  -9.3605  -9.3504  -9.2596  -9.2530
    -9.2466  -9.2224  -9.2136  -9.1990  -9.1977  -9.1817  -9.1616  -9.1533
    -9.1466  -9.1417  -9.1181  -9.0937  -9.0879  -9.0765  -9.0744  -9.0623
    -9.0557  -9.0388  -9.0356  -9.0203  -9.0014  -8.9970  -8.9861  -8.9852
    -8.9742  -8.9709  -8.9552  -8.9464  -8.9295  -8.9275  -8.9168  -8.8978
    -8.8955  -8.8933  -8.8869  -8.8829  -8.8783  -8.8775  -8.8739  -8.8689
    -8.8595  -8.8487  -8.8366  -8.8249  -8.8016  -8.7965  -8.7900  -8.7515
    -8.7485  -8.6685  -8.6315  -8.5674  -8.5514  -8.5504  -8.5287  -8.4841
    -8.4684  -8.4668  -8.4561  -8.4027  -8.3699  -8.2507  -8.2319  -8.2319
    -8.2157  -8.1898  -8.1619  -8.1593  -8.1575  -8.1139  -8.0704  -8.0247
    -7.9726  -7.9701  -7.9580  -7.9265  -7.9163  -7.9051  -7.8998  -7.8936
    -7.8895  -7.8853  -7.8851  -7.8846  -7.8824  -7.8646  -7.8491  -7.8395
    -7.8387  -7.8375  -7.8327  -7.8203  -7.8145  -7.8116  -7.8033  -7.7993
    -7.7873  -7.7830  -7.7753  -7.7670  -7.7644  -7.7596  -7.7555  -7.7504
    -7.7436  -7.7268  -7.7194  -7.7100  -7.7016  -7.6999  -7.6998  -7.6860
    -7.6801  -7.6632  -7.6514  -7.6461  -7.6345  -7.6248  -7.6140  -7.5890
    -7.5829  -7.5677  -7.5557  -7.5523  -7.5170  -7.4473  -7.4421  -7.3957
    -7.3285  -7.3136  -7.2818  -7.2732  -7.2659  -7.2572  -7.2340  -7.1843
    -7.1618  -7.1348  -7.1220  -7.0976  -7.0854  -7.0611  -7.0495  -7.0475
    -7.0440  -7.0119  -7.0004  -6.9836  -6.9600  -6.9415  -6.9407  -6.9333
    -6.9080  -6.8840  -6.8601  -6.8400  -6.8242  -6.7900  -6.7849  -6.7373
    -6.7268  -6.7010  -6.6968  -6.6968  -6.6967  -6.6960  -6.6854  -6.6652
    -6.6440  -6.6387  -6.6287  -6.6274  -6.6265  -6.6235  -6.5976  -6.5518
    -6.5472  -6.5054  -6.4977  -6.4829  -6.4777  -6.4145  -6.3698  -6.3649
    -6.3648  -6.3646  -6.3587  -6.3102  -6.3028  -6.2910  -6.2825  -6.2811
    -6.2795  -6.2776  -6.2563  -6.2463  -6.2248  -6.1997  -6.0883  -6.0530
    -6.0167  -6.0166  -5.9956  -5.9554  -5.9394  -5.9362  -5.9020  -5.8108
    -5.7800  -5.7252  -5.6567  -5.6277  -5.5723  -5.4908  -5.4313  -5.3386
    -5.1909  -4.3313  -4.0824  -4.0637  -4.0577  -4.0399  -3.9318  -3.9317
    -3.9263  -3.9163  -3.8895  -3.8671  -3.8670  -3.8392  -3.8329  -3.8224
    -3.8074  -3.7932  -3.7215  -3.6706  -3.6614  -3.6372  -3.6352  -3.6324
    -3.6304  -3.6177  -3.6174  -3.6072  -3.5969  -3.5950  -3.5553  -3.5443
    -3.5360  -3.5216  -3.5153  -3.5137  -3.5074  -3.4995  -3.4984  -3.4668
    -3.4427  -3.4310  -3.4171  -3.4015  -3.3931  -3.3861  -3.3847  -3.3796
    -3.3596  -3.3537  -3.3512  -3.3472  -3.3419  -3.3299  -3.3093  -3.3088
    -3.3087  -3.3075  -3.2927  -3.2758  -3.2690  -3.2620  -3.2582  -3.2515
    -3.2438  -3.2356  -3.2284  -3.2248  -3.2233  -3.2120  -3.1740  -3.1645
    -3.1568  -3.1506  -3.1163  -3.1036  -3.1028  -3.0919  -3.0798  -3.0651
    -3.0628  -3.0451  -3.0447  -3.0445  -3.0442  -3.0100  -3.0036  -2.9971
    -2.9965  -2.9840  -2.9788  -2.9752  -2.9615  -2.9609  -2.9552  -2.9497
    -2.9430  -2.9317  -2.9247  -2.9168  -2.9116  -2.8929  -2.8862  -2.8681
    -2.8576  -2.8559  -2.8396  -2.8384  -2.8206  -2.7833  -2.7780  -2.7487
    -2.7455  -2.7088  -2.7052  -2.6821  -2.6812  -2.6737  -2.6662  -2.6058
    -2.5983  -2.5708  -2.5629  -2.5367  -2.5350  -2.5281  -2.5172  -2.4794
    -2.4186  -2.3977  -2.3657  -2.3467  -2.3187  -2.2432

          k =-0.5000-0.8660 0.0000 (321564 PWs)   bands (ev):

  -102.9331-102.9073 -88.2986 -71.2755 -71.2689 -71.2565 -71.2527 -71.2485
   -71.2363 -71.2220 -71.2213 -71.2090 -71.1961 -71.1955 -71.1865 -71.1724
   -71.1635 -66.7200 -66.7200 -66.7094 -66.7094 -66.6945 -66.6945 -66.6945
   -66.6945 -66.6901 -66.6901 -66.6839 -66.6839 -66.6838 -66.6838 -66.6795
   -66.6795 -66.6545 -66.6539 -66.6437 -66.6436 -66.6290 -66.6288 -66.6286
   -66.6285 -66.6246 -66.6240 -66.6185 -66.6185 -66.6181 -66.6174 -66.6138
   -66.6136 -66.5865 -66.5782 -66.5687 -66.5641 -66.5588 -66.5526 -66.5447
   -66.5396 -66.5390 -66.5347 -66.5296 -66.5258 -66.5236 -66.5183 -66.5149
   -66.5013 -57.2714 -57.2225 -57.1225 -57.0849 -57.0688 -57.0292 -54.1575
   -54.1081 -54.0353 -41.0212 -41.0212 -41.0212 -41.0212 -40.9946 -40.9945
   -40.9826 -40.9826 -40.9545 -40.9545 -40.9542 -40.9537 -40.9322 -40.9322
   -40.9322 -40.9322 -40.9279 -40.9274 -40.9157 -40.9157 -40.8901 -40.8774
   -40.8742 -40.8742 -40.8661 -40.8654 -40.8654 -40.8653 -40.8653 -40.8643
   -40.8643 -40.8583 -40.8534 -40.8534 -40.8449 -40.8334 -40.8251 -40.8240
   -40.8240 -40.8240 -40.8240 -40.8164 -40.8154 -40.8153 -40.8091 -40.8086
   -40.8033 -40.8032 -40.8031 -40.8031 -40.8031 -40.8031 -40.7976 -40.7975
   -40.7945 -40.7945 -40.7882 -40.7882 -40.7835 -40.7752 -40.7730 -40.7725
   -40.7725 -40.7725 -40.7725 -40.7646 -40.7595 -40.7590 -40.7589 -40.7586
   -40.7586 -40.7504 -40.7499 -40.7478 -40.7383 -40.7382 -40.7380 -40.7380
   -40.7380 -40.7380 -40.7379 -40.7373 -40.7366 -40.7365 -40.7332 -40.7294
   -40.7293 -40.7279 -40.7259 -40.7259 -40.7138 -40.7103 -40.7068 -40.7067
   -40.7067 -40.7063 -40.7061 -40.7058 -40.7052 -40.6989 -40.6942 -40.6904
   -40.6898 -40.6898 -40.6873 -40.6778 -40.6760 -40.6749 -40.6719 -40.6714
   -40.6714 -40.6713 -40.6713 -40.6682 -40.6595 -40.6594 -40.6594 -40.6591
   -40.6590 -40.6536 -40.6516 -40.6405 -40.6397 -40.6394 -40.6272 -40.6233
   -40.6232 -40.6212 -40.6142 -40.6043 -40.5931 -40.5925 -40.5865 -40.5841
   -40.5746 -40.5720 -40.5651 -40.5526 -40.5500 -40.5427 -40.5309 -40.5216
   -40.5056 -40.4728 -20.2427 -19.9271 -19.9123 -19.8423 -19.7601 -19.7173
   -19.6342 -19.5122 -19.4786 -19.4591 -19.3358 -19.3148 -19.1743 -18.9736
   -18.8800 -18.8521 -18.8023 -18.7813 -18.7755 -18.7742 -18.7693 -18.7541
   -18.6977 -18.6675 -18.6582 -18.6492 -18.6474 -18.6409 -18.6202 -18.5888
   -18.5565 -18.5306 -18.5275 -18.5029 -18.4952 -18.4752 -18.4601 -18.4378
   -18.4179 -18.4089 -18.3629 -18.3472 -18.3312 -18.3035 -18.2787 -18.2736
   -18.2448 -18.2249 -18.2025 -18.1957 -18.1737 -18.1663 -18.1659 -18.1658
   -18.1656 -18.1558 -18.1326 -18.1222 -18.1158 -18.0950 -18.0922 -18.0851
   -18.0835 -18.0807 -18.0679 -18.0568 -18.0373 -18.0297 -18.0272 -18.0118
   -17.9928 -17.9866 -17.9830 -17.9781 -17.9676 -17.9632 -17.9317 -17.9219
   -17.9187 -17.9028 -17.9025 -17.9025 -17.8741 -17.8649 -17.8509 -17.8429
   -17.8426 -17.8330 -17.8280 -17.8259 -17.8251 -17.8137 -17.7840 -17.7820
   -17.7323 -17.7190 -12.3011 -12.2713 -11.8214 -11.7881 -11.7115 -11.6183
   -11.6092 -11.5451 -11.5146 -11.5121 -11.5104 -11.5072 -11.4956 -11.4796
   -11.4632 -11.4384 -11.4224 -11.4155 -11.4135 -11.3827 -11.3790 -11.3613
   -11.3528 -11.3317 -11.3253 -11.3048 -11.2954 -11.2954 -11.2763 -11.2515
   -11.2497 -11.2253 -11.2113 -11.1993 -11.1914 -11.1786 -11.1686 -11.1030
   -11.0689 -11.0564 -11.0344 -11.0149 -10.9962 -10.9809 -10.9682 -10.9580
   -10.9533 -10.9407 -10.9322 -10.9273 -10.9006 -10.8877 -10.8712 -10.8691
   -10.8683 -10.8676 -10.8625 -10.8586 -10.8400 -10.8279 -10.8186 -10.8038
   -10.8004 -10.7933 -10.7814 -10.6770 -10.6671 -10.6336 -10.5746 -10.5346
   -10.5266 -10.4491 -10.4094 -10.3435 -10.3335 -10.2982 -10.2696 -10.2496
   -10.1874 -10.1693 -10.1501 -10.1475 -10.1123 -10.0999 -10.0602 -10.0373
   -10.0236 -10.0045  -9.9871  -9.9773  -9.9719  -9.9681  -9.9559  -9.9440
    -9.9333  -9.9311  -9.9237  -9.8939  -9.8704  -9.8480  -9.8210  -9.8078
    -9.7909  -9.7843  -9.7584  -9.7579  -9.7546  -9.7473  -9.7396  -9.7316
    -9.7183  -9.7064  -9.7032  -9.6871  -9.6643  -9.6500  -9.6400  -9.6025
    -9.5929  -9.5804  -9.5693  -9.5643  -9.5383  -9.5205  -9.5103  -9.5089
    -9.4357  -9.4123  -9.3938  -9.3844  -9.3498  -9.3215  -9.3073  -9.2561
    -9.2466  -9.2276  -9.2204  -9.1987  -9.1899  -9.1843  -9.1789  -9.1586
    -9.1507  -9.1362  -9.1263  -9.1014  -9.0959  -9.0841  -9.0789  -9.0719
    -9.0516  -9.0404  -9.0297  -9.0135  -9.0053  -8.9964  -8.9920  -8.9851
    -8.9758  -8.9692  -8.9658  -8.9570  -8.9359  -8.9250  -8.9159  -8.9049
    -8.8978  -8.8949  -8.8920  -8.8849  -8.8781  -8.8775  -8.8762  -8.8576
    -8.8573  -8.8373  -8.8223  -8.8097  -8.8028  -8.7951  -8.7847  -8.7654
    -8.7212  -8.7108  -8.6338  -8.5927  -8.5508  -8.5505  -8.4816  -8.4710
    -8.4673  -8.4632  -8.4361  -8.3994  -8.3696  -8.2708  -8.2359  -8.2319
    -8.2319  -8.1882  -8.1601  -8.1586  -8.1352  -8.1194  -8.0860  -8.0609
    -8.0219  -7.9726  -7.9697  -7.9654  -7.9091  -7.9038  -7.8999  -7.8885
    -7.8862  -7.8852  -7.8851  -7.8844  -7.8800  -7.8719  -7.8452  -7.8401
    -7.8391  -7.8379  -7.8357  -7.8270  -7.8154  -7.8135  -7.8001  -7.7894
    -7.7856  -7.7796  -7.7765  -7.7645  -7.7637  -7.7601  -7.7574  -7.7494
    -7.7378  -7.7318  -7.7237  -7.7197  -7.6999  -7.6998  -7.6949  -7.6864
    -7.6714  -7.6642  -7.6537  -7.6380  -7.6297  -7.6239  -7.6120  -7.6044
    -7.5792  -7.5628  -7.5533  -7.5226  -7.5149  -7.4644  -7.4145  -7.3558
    -7.3235  -7.3065  -7.2829  -7.2687  -7.2589  -7.2458  -7.2226  -7.1943
    -7.1588  -7.1326  -7.1214  -7.0826  -7.0757  -7.0642  -7.0510  -7.0476
    -7.0448  -7.0185  -7.0120  -6.9970  -6.9761  -6.9502  -6.9402  -6.9343
    -6.9050  -6.8811  -6.8688  -6.8310  -6.8128  -6.7868  -6.7548  -6.7408
    -6.7270  -6.7201  -6.6977  -6.6968  -6.6968  -6.6967  -6.6941  -6.6694
    -6.6591  -6.6356  -6.6295  -6.6280  -6.6263  -6.6234  -6.6111  -6.6045
    -6.5407  -6.5173  -6.4850  -6.4630  -6.4303  -6.4274  -6.3657  -6.3653
    -6.3646  -6.3646  -6.3390  -6.3220  -6.3029  -6.2931  -6.2898  -6.2835
    -6.2800  -6.2779  -6.2714  -6.2574  -6.2402  -6.2047  -6.1518  -6.0890
    -6.0167  -6.0166  -5.9615  -5.9424  -5.9398  -5.9269  -5.8822  -5.7952
    -5.7596  -5.7235  -5.6586  -5.6127  -5.5835  -5.4941  -5.4367  -5.3343
    -5.1538  -4.2653  -4.0975  -4.0737  -4.0533  -4.0222  -3.9884  -3.9318
    -3.9317  -3.9066  -3.8889  -3.8754  -3.8671  -3.8664  -3.8169  -3.8128
    -3.8028  -3.7675  -3.7503  -3.6852  -3.6570  -3.6448  -3.6343  -3.6331
    -3.6292  -3.6204  -3.6177  -3.6173  -3.5964  -3.5802  -3.5416  -3.5402
    -3.5360  -3.5343  -3.5245  -3.5175  -3.5076  -3.5036  -3.4968  -3.4778
    -3.4617  -3.4498  -3.4238  -3.4050  -3.3982  -3.3855  -3.3844  -3.3772
    -3.3566  -3.3543  -3.3513  -3.3460  -3.3336  -3.3150  -3.3103  -3.3086
    -3.3083  -3.3079  -3.2997  -3.2797  -3.2754  -3.2644  -3.2584  -3.2539
    -3.2487  -3.2338  -3.2312  -3.2212  -3.2145  -3.1997  -3.1867  -3.1715
    -3.1630  -3.1415  -3.1128  -3.1050  -3.1015  -3.0771  -3.0762  -3.0648
    -3.0642  -3.0468  -3.0453  -3.0444  -3.0441  -3.0196  -3.0112  -3.0072
    -2.9966  -2.9946  -2.9877  -2.9825  -2.9621  -2.9580  -2.9543  -2.9506
    -2.9373  -2.9268  -2.9242  -2.9161  -2.9053  -2.8939  -2.8860  -2.8812
    -2.8486  -2.8426  -2.8398  -2.8382  -2.7867  -2.7828  -2.7685  -2.7484
    -2.7426  -2.6988  -2.6886  -2.6829  -2.6815  -2.6724  -2.6682  -2.6072
    -2.5976  -2.5587  -2.5514  -2.5442  -2.5356  -2.5312  -2.5059  -2.4505
    -2.4141  -2.3959  -2.3848  -2.3449  -2.3299  -2.2639

     the Fermi energy is    -4.7399 ev

!    total energy              =  -27706.44398146 Ry
     total all-electron energy =   -549111.706420 Ry
     estimated scf accuracy    <       0.00000012 Ry
     smearing contrib. (-TS)   =      -0.00000068 Ry
     internal energy E=F+TS    =  -27706.44398079 Ry

     The total energy is F=E-TS. E is the sum of the following terms:
     one-electron contribution =  525263.13220182 Ry
     hartree contribution      = -262814.49022701 Ry
     xc contribution           =   -1610.33353802 Ry
     ewald contribution        = -271761.01965440 Ry
     DFT-D3 Dispersion         =      -4.06329011 Ry
     one-center paw contrib.   =  -16779.66947306 Ry

     convergence has been achieved in  23 iterations

     negative rho (up, down):  9.084E-04 0.000E+00

     Forces acting on atoms (cartesian axes, Ry/au):

     atom    1 type  1   force =     0.00234286   -0.00149668    0.00107990
     atom    2 type  1   force =     0.00000154    0.00000018    0.00189603
     atom    3 type  1   force =     0.00000550   -0.00001352    0.00005855
     atom    4 type  2   force =    -0.00000245    0.00000076   -0.00344463
     atom    5 type  2   force =    -0.00002668   -0.00002559   -0.00013741
     atom    6 type  2   force =    -0.00047133   -0.00041053   -0.00172998
     atom    7 type  2   force =     0.00000073   -0.00000346    0.00166172
     atom    8 type  2   force =     0.00002545   -0.00006039    0.00016490
     atom    9 type  2   force =    -0.00006989    0.00073239   -0.00134015
     atom   10 type  1   force =     0.00060174   -0.00049191   -0.02157493
     atom   11 type  1   force =     0.00000017    0.00000135    0.00189410
     atom   12 type  1   force =     0.00003665   -0.00003083    0.00005274
     atom   13 type  2   force =     0.00000034    0.00000022   -0.00344111
     atom   14 type  2   force =     0.00000966   -0.00001500   -0.00011972
     atom   15 type  2   force =     0.00042434    0.00060717    0.00229724
     atom   16 type  2   force =     0.00000371   -0.00000201    0.00167408
     atom   17 type  2   force =     0.00001752   -0.00000521    0.00017410
     atom   18 type  2   force =    -0.01660357   -0.00683896    0.01490094
     atom   19 type  1   force =    -0.00114360    0.00147991   -0.00266571
     atom   20 type  1   force =     0.00000158   -0.00000735    0.00189881
     atom   21 type  1   force =    -0.00005390   -0.00001807    0.00004524
     atom   22 type  2   force =     0.00000179   -0.00000017   -0.00344001
     atom   23 type  2   force =     0.00000424   -0.00003467   -0.00007692
     atom   24 type  2   force =    -0.00048413    0.00029281   -0.00148588
     atom   25 type  2   force =     0.00000454   -0.00000530    0.00166395
     atom   26 type  2   force =    -0.00004904    0.00000479    0.00022273
     atom   27 type  2   force =     0.00112846   -0.00060643   -0.00012529
     atom   28 type  1   force =    -0.00012580   -0.00009043    0.00024161
     atom   29 type  1   force =     0.00000407   -0.00000279    0.00189786
     atom   30 type  1   force =     0.00000721   -0.00002541    0.00000342
     atom   31 type  2   force =    -0.00000043   -0.00000254   -0.00344139
     atom   32 type  2   force =    -0.00002665   -0.00001683   -0.00010433
     atom   33 type  2   force =    -0.00039812    0.00043764   -0.00052819
     atom   34 type  2   force =    -0.00000053   -0.00000576    0.00166723
     atom   35 type  2   force =    -0.00007024   -0.00003916    0.00018048
     atom   36 type  2   force =     0.00019849    0.00038540    0.00011162
     atom   37 type  1   force =    -0.00147224    0.00065629    0.00065080
     atom   38 type  1   force =     0.00000141   -0.00000349    0.00189272
     atom   39 type  1   force =     0.00000735   -0.00006839   -0.00000891
     atom   40 type  2   force =     0.00000058   -0.00000070   -0.00344142
     atom   41 type  2   force =     0.00001923   -0.00008787   -0.00018879
     atom   42 type  2   force =     0.00007902    0.00010170   -0.00023951
     atom   43 type  2   force =     0.00000510    0.00000134    0.00165706
     atom   44 type  2   force =    -0.00000992   -0.00002620    0.00006382
     atom   45 type  2   force =    -0.00016896   -0.00014838    0.00041656
     atom   46 type  1   force =     0.00264739   -0.00095428   -0.00276870
     atom   47 type  1   force =    -0.00000541    0.00000037    0.00188949
     atom   48 type  1   force =    -0.00003210    0.00000100    0.00004517
     atom   49 type  2   force =     0.00000080    0.00000240   -0.00344260
     atom   50 type  2   force =    -0.00005294   -0.00001188   -0.00013282
     atom   51 type  2   force =    -0.00058328    0.00006987    0.00173578
     atom   52 type  2   force =     0.00000841    0.00000626    0.00166037
     atom   53 type  2   force =     0.00003330   -0.00000859    0.00016815
     atom   54 type  2   force =     0.02155019   -0.01241137    0.00316901
     atom   55 type  1   force =     0.00072821    0.00555115   -0.00244674
     atom   56 type  1   force =    -0.00000073   -0.00000921    0.00189311
     atom   57 type  1   force =     0.00000068   -0.00004936    0.00006105
     atom   58 type  2   force =    -0.00000101    0.00000085   -0.00344165
     atom   59 type  2   force =    -0.00001047   -0.00004530   -0.00008895
     atom   60 type  2   force =     0.00046369    0.00037477    0.00249653
     atom   61 type  2   force =     0.00001179   -0.00000552    0.00166078
     atom   62 type  2   force =     0.00005304    0.00000181    0.00018452
     atom   63 type  2   force =    -0.00197328    0.01603062    0.01489639
     atom   64 type  1   force =    -0.00061881   -0.00066181    0.00014557
     atom   65 type  1   force =     0.00000138   -0.00000184    0.00189221
     atom   66 type  1   force =    -0.00005269   -0.00003834    0.00004162
     atom   67 type  2   force =     0.00000131   -0.00000255   -0.00344184
     atom   68 type  2   force =    -0.00002451   -0.00002673   -0.00010392
     atom   69 type  2   force =    -0.00015620   -0.00040892   -0.00027017
     atom   70 type  2   force =     0.00001252   -0.00000301    0.00166158
     atom   71 type  2   force =     0.00001227   -0.00003530    0.00023523
     atom   72 type  2   force =     0.00003595   -0.00008767    0.00062332
     atom   73 type  1   force =     0.00034173    0.00036960   -0.00031208
     atom   74 type  1   force =     0.00000297   -0.00000187    0.00189838
     atom   75 type  1   force =    -0.00000147   -0.00004993   -0.00006383
     atom   76 type  2   force =    -0.00000007   -0.00000083   -0.00344289
     atom   77 type  2   force =     0.00001991   -0.00004430   -0.00017208
     atom   78 type  2   force =    -0.00047412    0.00002097   -0.00021318
     atom   79 type  2   force =     0.00000145   -0.00000606    0.00166693
     atom   80 type  2   force =     0.00000631   -0.00001627    0.00008524
     atom   81 type  2   force =     0.00007912   -0.00025280    0.00006495
     atom   82 type  1   force =     0.00068500    0.00010055    0.00000581
     atom   83 type  1   force =     0.00000126   -0.00000017    0.00189523
     atom   84 type  1   force =     0.00000762   -0.00000826   -0.00003965
     atom   85 type  2   force =    -0.00000115    0.00000251   -0.00343829
     atom   86 type  2   force =     0.00000078   -0.00002486   -0.00017048
     atom   87 type  2   force =     0.00031977   -0.00003677   -0.00014556
     atom   88 type  2   force =     0.00000027    0.00000350    0.00166220
     atom   89 type  2   force =     0.00000495   -0.00001113    0.00005227
     atom   90 type  2   force =     0.00165720    0.00221063    0.00113613
     atom   91 type  1   force =     0.00001126   -0.00046416    0.00068186
     atom   92 type  1   force =    -0.00000145    0.00000008    0.00189576
     atom   93 type  1   force =     0.00002189   -0.00003911    0.00003276
     atom   94 type  2   force =    -0.00000117   -0.00000059   -0.00344342
     atom   95 type  2   force =    -0.00002558   -0.00004179   -0.00018608
     atom   96 type  2   force =     0.00100387    0.00125623   -0.00091044
     atom   97 type  2   force =     0.00000043    0.00000005    0.00166107
     atom   98 type  2   force =    -0.00000859   -0.00006640    0.00012115
     atom   99 type  2   force =     0.00425122    0.00224582   -0.00516164
     atom  100 type  1   force =    -0.00002445    0.00033437    0.00055147
     atom  101 type  1   force =     0.00000282   -0.00000139    0.00189145
     atom  102 type  1   force =     0.00001413   -0.00002782    0.00002023
     atom  103 type  2   force =    -0.00000030   -0.00000344   -0.00344073
     atom  104 type  2   force =     0.00000976   -0.00005003   -0.00012150
     atom  105 type  2   force =     0.00039244   -0.00053881   -0.00009076
     atom  106 type  2   force =     0.00000897   -0.00000984    0.00166126
     atom  107 type  2   force =    -0.00000986   -0.00002435    0.00018056
     atom  108 type  2   force =    -0.00022525    0.00013737    0.00043332
     atom  109 type  1   force =    -0.00125341   -0.00173796   -0.00058046
     atom  110 type  1   force =    -0.00000092    0.00000429    0.00189748
     atom  111 type  1   force =     0.00002561   -0.00004710   -0.00000132
     atom  112 type  2   force =    -0.00000112   -0.00000031   -0.00343984
     atom  113 type  2   force =     0.00003244   -0.00001408   -0.00011225
     atom  114 type  2   force =     0.00036563   -0.00010933   -0.00021324
     atom  115 type  2   force =     0.00000074   -0.00000678    0.00166683
     atom  116 type  2   force =     0.00000481   -0.00003381    0.00014525
     atom  117 type  2   force =    -0.00026623   -0.00008062    0.00027074
     atom  118 type  1   force =    -0.00302296    0.00025922   -0.00274849
     atom  119 type  1   force =     0.00000255    0.00000065    0.00189735
     atom  120 type  1   force =    -0.00001555    0.00001596   -0.00002797
     atom  121 type  2   force =     0.00000126    0.00000085   -0.00343991
     atom  122 type  2   force =     0.00002800   -0.00002079   -0.00012377
     atom  123 type  2   force =    -0.00002214    0.00013784   -0.00025998
     atom  124 type  2   force =    -0.00000266   -0.00000603    0.00166716
     atom  125 type  2   force =    -0.00002443   -0.00001337    0.00023926
     atom  126 type  2   force =    -0.00039740   -0.00086427    0.00075753
     atom  127 type  1   force =    -0.00061414    0.00014783    0.00057964
     atom  128 type  1   force =     0.00000290   -0.00000702    0.00189642
     atom  129 type  1   force =    -0.00004071   -0.00007644   -0.00002381
     atom  130 type  2   force =    -0.00000155   -0.00000054   -0.00344236
     atom  131 type  2   force =    -0.00001082   -0.00000719   -0.00015479
     atom  132 type  2   force =    -0.00046946   -0.00030249   -0.00069933
[...]
     atom  120 type  1   force =     0.00007722   -0.00008322    0.00009311
     atom  121 type  2   force =    -0.00000067    0.00000055   -0.00327730
     atom  122 type  2   force =     0.00023727    0.00000183    0.00019964
     atom  123 type  2   force =    -0.00233653    0.00082044    0.00099485
     atom  124 type  2   force =    -0.00001789   -0.00005367    0.00145318
     atom  125 type  2   force =     0.00007060    0.00006891   -0.00003488
     atom  126 type  2   force =     0.00210691   -0.00066813   -0.00103495
     atom  127 type  1   force =    -0.00055050   -0.00069125   -0.00061326
     atom  128 type  1   force =     0.00000409   -0.00001180    0.00188837
     atom  129 type  1   force =     0.00002985    0.00006393   -0.00004779
     atom  130 type  2   force =    -0.00000080    0.00000128   -0.00327932
     atom  131 type  2   force =    -0.00012588   -0.00007805   -0.00002554
     atom  132 type  2   force =     0.00072822   -0.00284363    0.00091038
     atom  133 type  2   force =     0.00001819   -0.00004512    0.00149372
     atom  134 type  2   force =    -0.00002105    0.00014191   -0.00025903
     atom  135 type  2   force =    -0.00040785   -0.00131087    0.00094603
     atom  136 type  1   force =    -0.00061474   -0.00111279   -0.00127207
     atom  137 type  1   force =     0.00001191   -0.00001414    0.00189854
     atom  138 type  1   force =     0.00000831   -0.00018310   -0.00004937
     atom  139 type  2   force =    -0.00000136    0.00000168   -0.00327829
     atom  140 type  2   force =    -0.00025777   -0.00000074   -0.00001292
     atom  141 type  2   force =    -0.00132839   -0.00088353   -0.00061015
     atom  142 type  2   force =     0.00003126   -0.00005867    0.00152810
     atom  143 type  2   force =     0.00025096    0.00007121    0.00006542
     atom  144 type  2   force =    -0.00048177    0.00229645    0.00014205
     atom  145 type  3   force =     0.00089191    0.00524912   -0.00104445
     atom  146 type  3   force =    -0.00022370   -0.00060364   -0.00144575
     atom  147 type  4   force =    -0.00166704    0.00141787    0.00269995

     Total force =     0.017385     Total SCF correction =     0.001814
     SCF correction compared to forces is large: reduce conv_thr to get better values
     Energy error            =      3.8E-04 Ry
     Gradient error          =      5.2E-03 Ry/Bohr

     number of scf cycles    =  46
     number of bfgs steps    =  45

     energy             old  =  -27706.4656484966 Ry
     energy             new  =  -27706.4660329993 Ry

     CASE: energy            _new < energy            _old

     new trust radius        =       0.0458981924 bohr
     new conv_thr            =       0.0000000385 Ry


ATOMIC_POSITIONS (angstrom)
Mo               1.5831134439        2.6925287459        6.0614195554
Mo               1.5769197498        0.9104407117       -6.0872367793    0   0   0
Mo               0.0001418423        1.8104161551       -0.0024991655
S                0.0000044503        0.0000077495       -7.6506323570    0   0   0
S                1.5800713671        0.8992641704       -1.5638781071
S               -0.0086141416        1.8023556849        4.5100385631
S                0.0000053241        0.0000068460       -4.5222282367    0   0   0
S                1.5741438528        0.9009912647        1.5683814052
S                0.0169717348        1.8238807572        7.6664244239
Mo               0.0126161914        5.4421123844        6.1016620096
Mo               0.0000011799        3.6417399547       -6.0872367793    0   0   0
Mo              -1.5769778770        4.5417005444       -0.0046416251
S               -1.5769141197        2.7313069925       -7.6506323570    0   0   0
S                0.0022164434        3.6316288846       -1.5675656233
S               -1.5539892504        4.5415059828        4.5429388369
S               -1.5769132459        2.7313060890       -4.5222282367    0   0   0
S               -0.0032772980        3.6303796206        1.5648363798
S               -1.6429845322        4.5027325402        7.6990638054
Mo              -1.5895409326        8.1865780708        6.0556155697
Mo              -1.5769173901        6.3730391977       -6.0872367793    0   0   0
Mo              -3.1540884345        7.2732919093        0.0009809869
S               -3.1538326896        5.4626062355       -7.6506323570    0   0   0
S               -1.5771171930        6.3655602618       -1.5665216079
S               -3.1592937801        7.2620882277        4.4963340451
S               -3.1538318159        5.4626053320       -4.5222282367    0   0   0
S               -1.5774383632        6.3595901726        1.5656966967
S               -3.1404282844        7.2722751886        7.6475433502
Mo               3.1697811390       -0.0099324621        6.0653730134
Mo              -3.1538359601        9.1043384407       -6.0872367793    0   0   0
Mo              -4.7302348041       10.0046613959        0.0023810462
S               -4.7307512596        8.1939054785       -7.6506323570    0   0   0
S               -3.1532281190        9.0953181187       -1.5622587530
S               -4.7283579887       10.0143078390        4.5165901053
S               -4.7307503859        8.1939045750       -4.5222282367    0   0   0
S               -3.1544346067        9.0927301185        1.5709811828
S               -4.7047987918       10.0067049142        7.6507167921
Mo               4.7472676727        2.7131588657        6.0316621767
Mo               4.7307503218        0.9104407117       -6.0872367793    0   0   0
Mo               3.1541542226        1.8104269669        0.0032875542
S                3.1538350223        0.0000077495       -7.6506323570    0   0   0
S                4.7283862605        0.8982810224       -1.5639830529
S                3.1558096095        1.7964198439        4.4800662097
S                3.1538358961        0.0000068460       -4.5222282367    0   0   0
S                4.7335811979        0.9013302659        1.5686339393
S                3.1872705055        1.8065509011        7.6246715054
Mo               3.1850599766        5.4057402148        5.9789723096
Mo               3.1538317519        3.6417399547       -6.0872367793    0   0   0
Mo               1.5766111189        4.5418347155        0.0009280053
S                1.5769164523        2.7313069925       -7.6506323570    0   0   0
S                3.1539425595        3.6300665943       -1.5630050371
S                1.5442060219        4.5210844536        4.4990876438
S                1.5769173261        2.7313060890       -4.5222282367    0   0   0
S                3.1540295069        3.6331701797        1.5689397953
S                1.7124188560        4.4828832161        7.6438684382
Mo               1.5545596567        8.1967499431        6.0478627227
Mo               1.5769131819        6.3730391977       -6.0872367793    0   0   0
Mo               0.0000642049        7.2732127945        0.0006481811
S               -0.0000021176        5.4626062355       -7.6506323570    0   0   0
S                1.5769245608        6.3623812729       -1.5647331631
S               -0.0141728713        7.2406089242        4.5110663614
S               -0.0000012439        5.4626053320       -4.5222282367    0   0   0
S                1.5785351914        6.3636741629        1.5671962258
S               -0.0209774268        7.3582042348        7.6526060197
Mo               6.3197253640       -0.0207172028        6.0648325603
Mo              -0.0000053881        9.1043384407       -6.0872367793    0   0   0
Mo              -1.5769724139       10.0043184790        0.0037685820
S               -1.5769206876        8.1939054785       -7.6506323570    0   0   0
S               -0.0030368435        9.0942108647       -1.5646667948
S               -1.5717055104       10.0036459393        4.4921026923
S               -1.5769198139        8.1939045750       -4.5222282367    0   0   0
S                0.0032867899        9.0938752901        1.5682924244
S               -1.5685886036       10.0048845958        7.6358573626
Mo               7.8925417575        2.7169561914        6.0645931207
Mo               7.8845808939        0.9104407117       -6.0872367793    0   0   0
Mo               6.3081837978        1.8099337512       -0.0035173450
S                6.3076655943        0.0000077495       -7.6506323570    0   0   0
S                7.8832112328        0.8998207365       -1.5706814968
S                6.3318595350        1.7901005678        4.4886789009
S                6.3076664681        0.0000068460       -4.5222282367    0   0   0
S                7.8882015187        0.9012225625        1.5610016708
S                6.3054835813        1.8082454263        7.6209530729
Mo               6.3292058511        5.4429415717        6.0455183273
Mo               6.3076623239        3.6417399547       -6.0872367793    0   0   0
Mo               4.7315223441        4.5421095379       -0.0000833046
S                4.7307470244        2.7313069925       -7.6506323570    0   0   0
S                6.3059157903        3.6310278142       -1.5687144495
S                4.7858152410        4.5225362939        4.4417897349
S                4.7307478981        2.7313060890       -4.5222282367    0   0   0
S                6.3117455566        3.6298048558        1.5622199087
S                4.7443443486        4.5327344224        7.5904756738
Mo               4.7455127736        8.1912390332        6.0828997373
Mo               4.7307437539        6.3730391977       -6.0872367793    0   0   0
Mo               3.1548342474        7.2738450808       -0.0012702768
S                3.1538284544        5.4626062355       -7.6506323570    0   0   0
S                4.7312162743        6.3621630546       -1.5664527574
S                3.1714432786        7.2922012674        4.4946373204
S                3.1538293281        5.4626053320       -4.5222282367    0   0   0
S                4.7315316007        6.3639816684        1.5665728134
S                3.0563392827        7.1766614877        7.5599023007
Mo               9.4668701728       -0.0097512226        6.0905604473
Mo               3.1538251839        9.1043384407       -6.0872367793    0   0   0
Mo               1.5773803542       10.0048050875       -0.0033678643
S                1.5769098844        8.1939054785       -7.6506323570    0   0   0
S                3.1538243072        9.0932595958       -1.5689281177
S                1.5939299166       10.0132699384        4.4904102568
S                1.5769107581        8.1939045750       -4.5222282367    0   0   0
S                3.1555492375        9.0967053024        1.5635027536
S                1.5835295321        9.9928736788        7.6399487904
Mo              -1.5730369936        2.7078985302        6.0937079861
Mo              11.0384114659        0.9104407117       -6.0872367793    0   0   0
Mo               9.4628374461        1.8105355533       -0.0072323376
S                9.4614961663        0.0000077495       -7.6506323570    0   0   0
S               11.0413099901        0.8999064295       -1.5712648022
S                9.4765743197        1.8026544738        4.5131092222
S                9.4614970401        0.0000068460       -4.5222282367    0   0   0
S               11.0373918286        0.8997569227        1.5624749351
S                9.4446340149        1.8091921080        7.6555508848
Mo              -3.1558424770        5.4514142920        6.0796179223
Mo               9.4614928959        3.6417399547       -6.0872367793    0   0   0
Mo               7.8853787313        4.5416117951       -0.0048431479
S                7.8845775964        2.7313069925       -7.6506323570    0   0   0
S                9.4615179316        3.6324861116       -1.5718198398
S                7.9154697496        4.5338244834        4.4892198458
S                7.8845784701        2.7313060890       -4.5222282367    0   0   0
S                9.4627626309        3.6297163803        1.5615317496
S                7.8732082912        4.5346681014        7.6370894446
Mo              -4.7086988556        8.1869223328        6.0766710460
Mo               7.8845743259        6.3730391977       -6.0872367793    0   0   0
Mo               6.3078616947        7.2732809753       -0.0015330375
S                6.3076590264        5.4626062355       -7.6506323570    0   0   0
S                7.8855727091        6.3648633218       -1.5672036312
S                6.3132084657        7.3002033104        4.5183711214
S                6.3076599001        5.4626053320       -4.5222282367    0   0   0
S                7.8832383768        6.3604441964        1.5654233057
S                6.3773968403        7.2332145634        7.6732400529
Mo               0.0181972408        0.0032667118        6.1013349627
Mo               6.3076557559        9.1043384407       -6.0872367793    0   0   0
Mo               4.7314052473       10.0051226805       -0.0047980189
S                4.7307404564        8.1939054785       -7.6506323570    0   0   0
S                6.3111785277        9.0944790387       -1.5667249073
S                4.7535264127       10.0094345036        4.5471498368
S                4.7307413301        8.1939045750       -4.5222282367    0   0   0
S                6.3051983253        9.0943640480        1.5656168662
S                4.7424412066       10.0906416431        7.7257577621
Pt               2.7545215026        6.0981639197        9.4749440975
Pt               4.5203706741        8.1017012164        8.9548800463
Pd               0.1173722408        5.4224341841        8.9879399999



     Writing config-only to output data dir ./outdir/pwscf.save/ :
     XML data file
     NEW-OLD atomic charge density approx. for the potential

     negative rho (up, down):  9.289E-04 0.000E+00

     total cpu time spent up to now is   253995.5 secs

     Self-consistent Calculation

     iteration #  1     ecut=    77.00 Ry     beta= 0.20
     Davidson diagonalization with overlap
     ethr =  1.00E-06,  avg # of iterations = 16.8

     negative rho (up, down):  9.298E-04 0.000E+00

     total cpu time spent up to now is   254550.8 secs

     total energy              =  -27706.47417671 Ry
     estimated scf accuracy    <       0.00761422 Ry

     iteration #  2     ecut=    77.00 Ry     beta= 0.20
     Davidson diagonalization with overlap
     ethr =  5.72E-07,  avg # of iterations = 12.8

     negative rho (up, down):  9.303E-04 0.000E+00

     total cpu time spent up to now is   254818.4 secs

     total energy              =  -27706.47285822 Ry
     estimated scf accuracy    <       0.00319621 Ry

     iteration #  3     ecut=    77.00 Ry     beta= 0.20
     Davidson diagonalization with overlap
     ethr =  2.40E-07,  avg # of iterations =  7.0

     negative rho (up, down):  9.306E-04 0.000E+00

     total cpu time spent up to now is   255056.1 secs

     total energy              =  -27706.47002824 Ry
     estimated scf accuracy    <       0.00046412 Ry

     iteration #  4     ecut=    77.00 Ry     beta= 0.20
     Davidson diagonalization with overlap
     ethr =  3.49E-08,  avg # of iterations = 13.8

     negative rho (up, down):  9.311E-04 0.000E+00

     total cpu time spent up to now is   255496.8 secs

     total energy              =  -27706.46911646 Ry
     estimated scf accuracy    <       0.00034394 Ry

     iteration #  5     ecut=    77.00 Ry     beta= 0.20
     Davidson diagonalization with overlap
     ethr =  2.59E-08,  avg # of iterations = 10.8

     negative rho (up, down):  9.315E-04 0.000E+00

     total cpu time spent up to now is   255751.3 secs

     total energy              =  -27706.46842379 Ry
     estimated scf accuracy    <       0.00012921 Ry

     iteration #  6     ecut=    77.00 Ry     beta= 0.20
     Davidson diagonalization with overlap
     ethr =  9.71E-09,  avg # of iterations =  9.2

     negative rho (up, down):  9.318E-04 0.000E+00

     total cpu time spent up to now is   256009.3 secs

     total energy              =  -27706.46763182 Ry
     estimated scf accuracy    <       0.00011731 Ry

     iteration #  7     ecut=    77.00 Ry     beta= 0.20
     Davidson diagonalization with overlap
     ethr =  8.82E-09,  avg # of iterations =  8.2

     negative rho (up, down):  9.322E-04 0.000E+00

     total cpu time spent up to now is   256260.5 secs

     total energy              =  -27706.46714532 Ry
     estimated scf accuracy    <       0.00008322 Ry

     iteration #  8     ecut=    77.00 Ry     beta= 0.20
     Davidson diagonalization with overlap
     ethr =  6.26E-09,  avg # of iterations =  8.8

     negative rho (up, down):  9.325E-04 0.000E+00

     total cpu time spent up to now is   256516.6 secs

     total energy              =  -27706.46686947 Ry
     estimated scf accuracy    <       0.00003944 Ry

     iteration #  9     ecut=    77.00 Ry     beta= 0.20
     Davidson diagonalization with overlap
     ethr =  2.97E-09,  avg # of iterations =  9.2

     negative rho (up, down):  9.329E-04 0.000E+00

     total cpu time spent up to now is   256864.6 secs

     total energy              =  -27706.46685027 Ry
     estimated scf accuracy    <       0.00002317 Ry

     iteration # 10     ecut=    77.00 Ry     beta= 0.20
     Davidson diagonalization with overlap
     ethr =  1.74E-09,  avg # of iterations =  4.5

     negative rho (up, down):  9.332E-04 0.000E+00

     total cpu time spent up to now is   257095.9 secs

     total energy              =  -27706.46643674 Ry
     estimated scf accuracy    <       0.00002171 Ry

     iteration # 11     ecut=    77.00 Ry     beta= 0.20
     Davidson diagonalization with overlap
     ethr =  1.63E-09,  avg # of iterations = 13.0

     negative rho (up, down):  9.335E-04 0.000E+00

     total cpu time spent up to now is   257407.4 secs

     total energy              =  -27706.46638898 Ry
     estimated scf accuracy    <       0.00000847 Ry

     iteration # 12     ecut=    77.00 Ry     beta= 0.20
     Davidson diagonalization with overlap
     ethr =  6.37E-10,  avg # of iterations =  8.5

     negative rho (up, down):  9.337E-04 0.000E+00

     total cpu time spent up to now is   257703.1 secs

     total energy              =  -27706.46637538 Ry
     estimated scf accuracy    <       0.00000400 Ry

     iteration # 13     ecut=    77.00 Ry     beta= 0.20
     Davidson diagonalization with overlap
     ethr =  3.01E-10,  avg # of iterations = 12.2

     negative rho (up, down):  9.339E-04 0.000E+00

     total cpu time spent up to now is   258024.9 secs

     total energy              =  -27706.46637802 Ry
     estimated scf accuracy    <       0.00000145 Ry

     iteration # 14     ecut=    77.00 Ry     beta= 0.20
     Davidson diagonalization with overlap
     ethr =  1.09E-10,  avg # of iterations = 12.2

     negative rho (up, down):  9.341E-04 0.000E+00

     total cpu time spent up to now is   258389.4 secs

     total energy              =  -27706.46637549 Ry
     estimated scf accuracy    <       0.00000058 Ry

     iteration # 15     ecut=    77.00 Ry     beta= 0.20
     Davidson diagonalization with overlap
     ethr =  4.36E-11,  avg # of iterations =  9.0

     negative rho (up, down):  9.342E-04 0.000E+00

     total cpu time spent up to now is   258743.2 secs

     total energy              =  -27706.46637532 Ry
     estimated scf accuracy    <       0.00000025 Ry

     iteration # 16     ecut=    77.00 Ry     beta= 0.20
     Davidson diagonalization with overlap
     ethr =  1.92E-11,  avg # of iterations = 12.2

     negative rho (up, down):  9.343E-04 0.000E+00

     total cpu time spent up to now is   259102.8 secs

     total energy              =  -27706.46637554 Ry
     estimated scf accuracy    <       0.00000009 Ry

     iteration # 17     ecut=    77.00 Ry     beta= 0.20
     Davidson diagonalization with overlap
