
     Program PWSCF v.7.3 starts on 12Mar2024 at  5:56:45 

     This program is part of the open-source Quantum ESPRESSO suite
     for quantum simulation of materials; please cite
         "P. Giannozzi et al., J. Phys.:Condens. Matter 21 395502 (2009);
         "P. Giannozzi et al., J. Phys.:Condens. Matter 29 465901 (2017);
         "P. Giannozzi et al., J. Chem. Phys. 152 154105 (2020);
          URL http://www.quantum-espresso.org", 
     in publications or presentations arising from this work. More details at
     http://www.quantum-espresso.org/quote

     Parallel version (MPI & OpenMP), running on      36 processor cores
     Number of MPI processes:                36
     Threads/MPI process:                     1

     MPI processes distributed on     1 nodes
     559612 MiB available memory on the printing compute node when the environment starts
 
     Waiting for input...
     Reading input from standard input
Warning: card &CELL ignored
Warning: card / ignored

     Current dimensions of program PWSCF are:
     Max number of different atomic species (ntypx) = 10
     Max number of k-points (npk) =  40000
     Max angular momentum in pseudopotentials (lmaxx) =  4
     file Mo.pbe-spn-kjpaw_psl.1.0.0.UPF: wavefunction(s)  4S 4D renormalized
     file S.pbe-n-kjpaw_psl.1.0.0.UPF: wavefunction(s)  3S 3P renormalized
     file Pt.pbe-spfn-kjpaw_psl.1.0.0.UPF: wavefunction(s)  5P 4F renormalized
     file Pd.pbe-spn-kjpaw_psl.1.0.0.UPF: wavefunction(s)  4S 5S 4D renormalized
 
     R & G space division:  proc/nbgrp/npool/nimage =      36
     Subspace diagonalization in iterative solution of the eigenvalue problem:
     one sub-group per band group will be used
     scalapack distributed-memory algorithm (size of sub-group:  6*  6 procs)

 
     Parallelization info
     --------------------
     sticks:   dense  smooth     PW     G-vecs:    dense   smooth      PW
     Min         585     334     89               198743    85850   11735
     Max         586     335     90               198750    85861   11748
     Sum       21073   12049   3205              7154885  3090769  422587
 
     Using Slab Decomposition
 


     bravais-lattice index     =            0
     lattice parameter (alat)  =      23.8199  a.u.
     unit-cell volume          =   33861.0370 (a.u.)^3
     number of atoms/cell      =          194
     number of atomic types    =            4
     number of electrons       =      1714.00
     number of Kohn-Sham states=         1028
     kinetic-energy cutoff     =      77.0000  Ry
     charge density cutoff     =     539.0000  Ry
     scf convergence threshold =      1.0E-06
     mixing beta               =       0.2000
     number of iterations used =            8  plain     mixing
     energy convergence thresh.=      1.0E-04
     force convergence thresh. =      1.0E-03
     Exchange-correlation= SLA  PW   PBX  PBC
                           (   1   4   3   4   0   0   0)
     nstep                     =         1000


     Effective Screening Medium Method
     =================================
     Boundary Conditions: Vacuum-Slab-Vacuum
     total charge in unit cell        =   0.0000
     grid points for fit at edges     =        4 
 

     celldm(1)=  23.819920  celldm(2)=   0.000000  celldm(3)=   0.000000
     celldm(4)=   0.000000  celldm(5)=   0.000000  celldm(6)=   0.000000

     crystal axes: (cart. coord. in units of alat)
               a(1) = (   1.000000   0.000000   0.000000 )  
               a(2) = (  -0.499999   0.866026   0.000000 )  
               a(3) = (   0.000000   0.000000   2.893000 )  

     reciprocal axes: (cart. coord. in units 2 pi/alat)
               b(1) = (  1.000000  0.577349  0.000000 )  
               b(2) = (  0.000000  1.154700  0.000000 )  
               b(3) = (  0.000000  0.000000  0.345662 )  


     PseudoPot. # 1 for Mo read from file:
     ./pseudo/Mo.pbe-spn-kjpaw_psl.1.0.0.UPF
     MD5 check sum: 317bf72632116215fd98f72de1686f13
     Pseudo is Projector augmented-wave + core cor, Zval = 14.0
     Generated using 'atomic' code by A. Dal Corso  v.7.2
     Shape of augmentation charge: PSQ
     Using radial grid of 1229 points,  6 beta functions with: 
                l(1) =   0
                l(2) =   0
                l(3) =   1
                l(4) =   1
                l(5) =   2
                l(6) =   2
     Q(r) pseudized with 0 coefficients 


     PseudoPot. # 2 for S  read from file:
     ./pseudo/S.pbe-n-kjpaw_psl.1.0.0.UPF
     MD5 check sum: 8b7b5302570d38d5e87fed6a1065abda
     Pseudo is Projector augmented-wave + core cor, Zval =  6.0
     Generated using 'atomic' code by A. Dal Corso  v.7.2
     Shape of augmentation charge: PSQ
     Using radial grid of 1151 points,  6 beta functions with: 
                l(1) =   0
                l(2) =   0
                l(3) =   1
                l(4) =   1
                l(5) =   2
                l(6) =   2
     Q(r) pseudized with 0 coefficients 


     PseudoPot. # 3 for Pt read from file:
     ./pseudo/Pt.pbe-spfn-kjpaw_psl.1.0.0.UPF
     MD5 check sum: 620096ebf4e6ebacc94de60fd67efcb5
     Pseudo is Projector augmented-wave + core cor, Zval = 32.0
     Generated using 'atomic' code by A. Dal Corso  v.7.2
     Shape of augmentation charge: PSQ
     Using radial grid of 1277 points,  8 beta functions with: 
                l(1) =   0
                l(2) =   0
                l(3) =   1
                l(4) =   1
                l(5) =   2
                l(6) =   2
                l(7) =   3
                l(8) =   3
     Q(r) pseudized with 0 coefficients 


     PseudoPot. # 4 for Pd read from file:
     ./pseudo/Pd.pbe-spn-kjpaw_psl.1.0.0.UPF
     MD5 check sum: a60571a671f2502b8a6a4569d20a6edb
     Pseudo is Projector augmented-wave + core cor, Zval = 18.0
     Generated using 'atomic' code by A. Dal Corso  v.7.2
     Shape of augmentation charge: PSQ
     Using radial grid of 1235 points,  6 beta functions with: 
                l(1) =   0
                l(2) =   0
                l(3) =   1
                l(4) =   1
                l(5) =   2
                l(6) =   2
     Q(r) pseudized with 0 coefficients 


     atomic species   valence    mass     pseudopotential
     Mo               14.00    95.95000     Mo( 1.00)
     S                 6.00    32.06000     S ( 1.00)
     Pt               32.00   195.08400     Pt( 1.00)
     Pd               18.00   106.42000     Pd( 1.00)

     No symmetry found



   Cartesian axes

     site n.     atom                  positions (alat units)
         1        Mo     tau(   1) = (   0.0000010   0.1443372  -0.7272732  )
         2        Mo     tau(   2) = (   0.1249995   0.0721706  -0.2424038  )
         3        S      tau(   3) = (   0.0000015   0.1443386  -0.3667807  )
         4        S      tau(   4) = (   0.1250010   0.0721682  -0.6030489  )
         5        S      tau(   5) = (   0.1250010   0.0721683  -0.8514963  )
         6        S      tau(   6) = (   0.0000015   0.1443389  -0.1180260  )
         7        Mo     tau(   7) = (   0.0000014   0.1443616   0.2424356  )
         8        Mo     tau(   8) = (   0.1250042   0.0720311   0.7263989  )
         9        S      tau(   9) = (   0.0000639   0.1447004   0.6020022  )
        10        S      tau(  10) = (   0.1250030   0.0721650   0.3667578  )
        11        S      tau(  11) = (   0.1250031   0.0721991   0.1180453  )
        12        S      tau(  12) = (  -0.0005532   0.1426765   0.8513101  )
        13        Mo     tau(  13) = (  -0.1249989   0.3608437  -0.7272732  )
        14        Mo     tau(  14) = (   0.0000030   0.2886752  -0.2424042  )
        15        S      tau(  15) = (  -0.1249977   0.3608450  -0.3667802  )
        16        S      tau(  16) = (   0.0000012   0.2886747  -0.6030489  )
        17        S      tau(  17) = (   0.0000012   0.2886748  -0.8514963  )
        18        S      tau(  18) = (  -0.1249977   0.3608454  -0.1180274  )
        19        Mo     tau(  19) = (  -0.1249758   0.3608563   0.2424461  )
        20        Mo     tau(  20) = (  -0.0009250   0.2875651   0.7279418  )
        21        S      tau(  21) = (  -0.1248723   0.3609173   0.6030853  )
        22        S      tau(  22) = (   0.0000474   0.2887247   0.3668317  )
        23        S      tau(  23) = (   0.0000000   0.2886879   0.1180554  )
        24        S      tau(  24) = (  -0.1255989   0.3604976   0.8519229  )
        25        Mo     tau(  25) = (  -0.2499987   0.5773502  -0.7272732  )
        26        Mo     tau(  26) = (  -0.1249977   0.5051839  -0.2424055  )
        27        S      tau(  27) = (  -0.2499981   0.5773518  -0.3667809  )
        28        S      tau(  28) = (  -0.1249986   0.5051812  -0.6030489  )
        29        S      tau(  29) = (  -0.1249986   0.5051813  -0.8514963  )
        30        S      tau(  30) = (  -0.2499979   0.5773512  -0.1180266  )
        31        Mo     tau(  31) = (  -0.2499765   0.5773372   0.2424355  )
        32        Mo     tau(  32) = (  -0.1264232   0.5049348   0.7279418  )
        33        S      tau(  33) = (  -0.2496528   0.5772237   0.6020023  )
        34        S      tau(  34) = (  -0.1249318   0.5051954   0.3668318  )
        35        S      tau(  35) = (  -0.1249873   0.5051727   0.1180553  )
        36        S      tau(  36) = (  -0.2517142   0.5777014   0.8513102  )
        37        Mo     tau(  37) = (  -0.3749985   0.7938567  -0.7272732  )
        38        Mo     tau(  38) = (  -0.2500001   0.7216874  -0.2424031  )
        39        S      tau(  39) = (  -0.3749980   0.7938584  -0.3667800  )
        40        S      tau(  40) = (  -0.2499984   0.7216877  -0.6030489  )
        41        S      tau(  41) = (  -0.2499984   0.7216878  -0.8514963  )
        42        S      tau(  42) = (  -0.3749982   0.7938585  -0.1180264  )
        43        Mo     tau(  43) = (  -0.3749961   0.7938572   0.2423820  )
        44        Mo     tau(  44) = (  -0.2501160   0.7217599   0.7263989  )
        45        S      tau(  45) = (  -0.3749948   0.7938592   0.6019084  )
        46        S      tau(  46) = (  -0.2499995   0.7216903   0.3667578  )
        47        S      tau(  47) = (  -0.2499699   0.7216732   0.1180452  )
        48        S      tau(  48) = (  -0.3749951   0.7938590   0.8508262  )
        49        Mo     tau(  49) = (   0.2500010   0.1443372  -0.7272732  )
        50        Mo     tau(  50) = (   0.3750034   0.0721723  -0.2424032  )
        51        S      tau(  51) = (   0.2500017   0.1443391  -0.3667788  )
        52        S      tau(  52) = (   0.3750010   0.0721682  -0.6030489  )
        53        S      tau(  53) = (   0.3750010   0.0721683  -0.8514963  )
        54        S      tau(  54) = (   0.2500016   0.1443391  -0.1180271  )
        55        Mo     tau(  55) = (   0.2500050   0.1443618   0.2424356  )
        56        Mo     tau(  56) = (   0.3749291   0.0721273   0.7261578  )
        57        S      tau(  57) = (   0.2499446   0.1447002   0.6020022  )
        58        S      tau(  58) = (   0.3750312   0.0721852   0.3667808  )
        59        S      tau(  59) = (   0.3749943   0.0721639   0.1180502  )
        60        S      tau(  60) = (   0.2505615   0.1426764   0.8513103  )
        61        Mo     tau(  61) = (   0.1250012   0.3608437  -0.7272732  )
        62        Mo     tau(  62) = (   0.2500029   0.2886782  -0.2424031  )
        63        S      tau(  63) = (   0.1250024   0.3608455  -0.3667794  )
        64        S      tau(  64) = (   0.2500012   0.2886747  -0.6030489  )
        65        S      tau(  65) = (   0.2500012   0.2886748  -0.8514963  )
        66        S      tau(  66) = (   0.1250021   0.3608455  -0.1180270  )
        67        Mo     tau(  67) = (   0.1250036   0.3608788   0.2424134  )
        68        Mo     tau(  68) = (   0.2509342   0.2875650   0.7279417  )
        69        S      tau(  69) = (   0.1250047   0.3631022   0.6070003  )
        70        S      tau(  70) = (   0.2499595   0.2887248   0.3668321  )
        71        S      tau(  71) = (   0.2500069   0.2886879   0.1180551  )
        72        S      tau(  72) = (   0.1250048   0.3485809   0.8580653  )
        73        Mo     tau(  73) = (   0.0000014   0.5773502  -0.7272732  )
        74        Mo     tau(  74) = (   0.1250045   0.5051840  -0.2424036  )
        75        S      tau(  75) = (   0.0000030   0.5773520  -0.3667799  )
        76        S      tau(  76) = (   0.1250014   0.5051812  -0.6030489  )
        77        S      tau(  77) = (   0.1250014   0.5051813  -0.8514963  )
        78        S      tau(  78) = (   0.0000026   0.5773517  -0.1180274  )
        79        Mo     tau(  79) = (   0.0000336   0.5773337   0.2424134  )
        80        Mo     tau(  80) = (   0.1250049   0.5051837   0.7323431  )
        81        S      tau(  81) = (   0.0019589   0.5762246   0.6070004  )
        82        S      tau(  82) = (   0.1250038   0.5051820   0.3668453  )
        83        S      tau(  83) = (   0.1250038   0.5051819   0.1180162  )
        84        S      tau(  84) = (  -0.0106172   0.5834855   0.8580649  )
        85        Mo     tau(  85) = (  -0.1249984   0.7938567  -0.7272732  )
        86        Mo     tau(  86) = (   0.0000069   0.7216896  -0.2424039  )
        87        S      tau(  87) = (  -0.1249975   0.7938582  -0.3667782  )
        88        S      tau(  88) = (   0.0000016   0.7216877  -0.6030489  )
        89        S      tau(  89) = (   0.0000016   0.7216878  -0.8514963  )
        90        S      tau(  90) = (  -0.1249973   0.7938582  -0.1180279  )
        91        Mo     tau(  91) = (  -0.1249742   0.7938470   0.2424356  )
        92        Mo     tau(  92) = (  -0.0004933   0.7230516   0.7279416  )
        93        S      tau(  93) = (  -0.1247124   0.7936270   0.6020023  )
        94        S      tau(  94) = (   0.0000246   0.7216257   0.3668322  )
        95        S      tau(  95) = (   0.0000165   0.7216852   0.1180552  )
        96        S      tau(  96) = (  -0.1261568   0.7951731   0.8513104  )
        97        Mo     tau(  97) = (   0.5000010   0.1443372  -0.7272732  )
        98        Mo     tau(  98) = (   0.6250001   0.0721662  -0.2424040  )
        99        S      tau(  99) = (   0.5000017   0.1443386  -0.3667801  )
       100        S      tau( 100) = (   0.6250010   0.0721682  -0.6030489  )
       101        S      tau( 101) = (   0.6250010   0.0721683  -0.8514963  )
       102        S      tau( 102) = (   0.5000020   0.1443388  -0.1180261  )
       103        Mo     tau( 103) = (   0.5000076   0.1443402   0.2423934  )
       104        Mo     tau( 104) = (   0.6250040   0.0723531   0.7270557  )
       105        S      tau( 105) = (   0.5002419   0.1444767   0.6022126  )
       106        S      tau( 106) = (   0.6250031   0.0721699   0.3667634  )
       107        S      tau( 107) = (   0.6250031   0.0721381   0.1180360  )
       108        S      tau( 108) = (   0.4998195   0.1442328   0.8511552  )
       109        Mo     tau( 109) = (   0.3750012   0.3608437  -0.7272732  )
       110        Mo     tau( 110) = (   0.4999991   0.2886761  -0.2424038  )
       111        S      tau( 111) = (   0.3750012   0.3608452  -0.3667804  )
       112        S      tau( 112) = (   0.5000012   0.2886747  -0.6030489  )
       113        S      tau( 113) = (   0.5000012   0.2886748  -0.8514963  )
       114        S      tau( 114) = (   0.3750014   0.3608455  -0.1180261  )
       115        Mo     tau( 115) = (   0.3749823   0.3608562   0.2424462  )
       116        Mo     tau( 116) = (   0.5001624   0.2885857   0.7270558  )
       117        S      tau( 117) = (   0.3748813   0.3609171   0.6030850  )
       118        S      tau( 118) = (   0.5000041   0.2886750   0.3667632  )
       119        S      tau( 119) = (   0.4999767   0.2886908   0.1180361  )
       120        S      tau( 120) = (   0.3756080   0.3604978   0.8519227  )
       121        Mo     tau( 121) = (   0.2500014   0.5773502  -0.7272732  )
       122        Mo     tau( 122) = (   0.3749983   0.5051825  -0.2424043  )
       123        S      tau( 123) = (   0.2500017   0.5773519  -0.3667810  )
       124        S      tau( 124) = (   0.3750014   0.5051812  -0.6030489  )
       125        S      tau( 125) = (   0.3750014   0.5051813  -0.8514963  )
       126        S      tau( 126) = (   0.2500018   0.5773519  -0.1180256  )
       127        Mo     tau( 127) = (   0.2499737   0.5773335   0.2424135  )
       128        Mo     tau( 128) = (   0.3764328   0.5049349   0.7279416  )
       129        S      tau( 129) = (   0.2480514   0.5762247   0.6070002  )
       130        S      tau( 130) = (   0.3749389   0.5051953   0.3668317  )
       131        S      tau( 131) = (   0.3749944   0.5051727   0.1180554  )
       132        S      tau( 132) = (   0.2606253   0.5834843   0.8580650  )
       133        Mo     tau( 133) = (   0.1250016   0.7938567  -0.7272732  )
       134        Mo     tau( 134) = (   0.2499995   0.7216883  -0.2424036  )
       135        S      tau( 135) = (   0.1250024   0.7938578  -0.3667813  )
       136        S      tau( 136) = (   0.2500016   0.7216877  -0.6030489  )
       137        S      tau( 137) = (   0.2500016   0.7216878  -0.8514963  )
       138        S      tau( 138) = (   0.1250024   0.7938579  -0.1180253  )
       139        Mo     tau( 139) = (   0.1250038   0.7938330   0.2424463  )
       140        Mo     tau( 140) = (   0.2505035   0.7230514   0.7279415  )
       141        S      tau( 141) = (   0.1250048   0.7937168   0.6030849  )
       142        S      tau( 142) = (   0.2499835   0.7216255   0.3668318  )
       143        S      tau( 143) = (   0.2499914   0.7216850   0.1180556  )
       144        S      tau( 144) = (   0.1250053   0.7945558   0.8519227  )
       145        Mo     tau( 145) = (   0.7500010   0.1443372  -0.7272732  )
       146        Mo     tau( 146) = (   0.8750038   0.0721696  -0.2424038  )
       147        S      tau( 147) = (   0.7500016   0.1443382  -0.3667789  )
       148        S      tau( 148) = (   0.8750010   0.0721682  -0.6030489  )
       149        S      tau( 149) = (   0.8750010   0.0721683  -0.8514963  )
       150        S      tau( 150) = (   0.7500016   0.1443384  -0.1180279  )
       151        Mo     tau( 151) = (   0.7499988   0.1443404   0.2423934  )
       152        Mo     tau( 152) = (   0.8750792   0.0721276   0.7261574  )
       153        S      tau( 153) = (   0.7497661   0.1444769   0.6022124  )
       154        S      tau( 154) = (   0.8749753   0.0721851   0.3667807  )
       155        S      tau( 155) = (   0.8750121   0.0721637   0.1180502  )
       156        S      tau( 156) = (   0.7501887   0.1442327   0.8511550  )
       157        Mo     tau( 157) = (   0.6250012   0.3608437  -0.7272732  )
       158        Mo     tau( 158) = (   0.7500028   0.2886769  -0.2424041  )
       159        S      tau( 159) = (   0.6250015   0.3608451  -0.3667792  )
       160        S      tau( 160) = (   0.7500012   0.2886747  -0.6030489  )
       161        S      tau( 161) = (   0.7500012   0.2886748  -0.8514963  )
       162        S      tau( 162) = (   0.6250016   0.3608454  -0.1180280  )
       163        Mo     tau( 163) = (   0.6250035   0.3608392   0.2423934  )
       164        Mo     tau( 164) = (   0.7498463   0.2885859   0.7270559  )
       165        S      tau( 165) = (   0.6250044   0.3605709   0.6022125  )
       166        S      tau( 166) = (   0.7500026   0.2886750   0.3667635  )
       167        S      tau( 167) = (   0.7500299   0.2886908   0.1180357  )
       168        S      tau( 168) = (   0.6250043   0.3610591   0.8511551  )
       169        Mo     tau( 169) = (   0.5000014   0.5773502  -0.7272732  )
       170        Mo     tau( 170) = (   0.6250029   0.5051841  -0.2424047  )
       171        S      tau( 171) = (   0.5000014   0.5773518  -0.3667794  )
       172        S      tau( 172) = (   0.6250014   0.5051812  -0.6030489  )
       173        S      tau( 173) = (   0.6250014   0.5051813  -0.8514963  )
       174        S      tau( 174) = (   0.5000016   0.5773516  -0.1180277  )
       175        Mo     tau( 175) = (   0.4999838   0.5773372   0.2424356  )
       176        Mo     tau( 176) = (   0.6250048   0.5052701   0.7261575  )
       177        S      tau( 177) = (   0.4996630   0.5772238   0.6020019  )
       178        S      tau( 178) = (   0.6250037   0.5051496   0.3667806  )
       179        S      tau( 179) = (   0.6250036   0.5051921   0.1180503  )
       180        S      tau( 180) = (   0.5017240   0.5777016   0.8513099  )
       181        Mo     tau( 181) = (   0.3750016   0.7938567  -0.7272732  )
       182        Mo     tau( 182) = (   0.5000025   0.7216901  -0.2424039  )
       183        S      tau( 183) = (   0.3750019   0.7938578  -0.3667793  )
       184        S      tau( 184) = (   0.5000016   0.7216877  -0.6030489  )
       185        S      tau( 185) = (   0.5000016   0.7216878  -0.8514963  )
       186        S      tau( 186) = (   0.3750020   0.7938579  -0.1180272  )
       187        Mo     tau( 187) = (   0.3749825   0.7938468   0.2424356  )
       188        Mo     tau( 188) = (   0.5001261   0.7217601   0.7263985  )
       189        S      tau( 189) = (   0.3747228   0.7936274   0.6020018  )
       190        S      tau( 190) = (   0.5000073   0.7216903   0.3667579  )
       191        S      tau( 191) = (   0.4999777   0.7216732   0.1180450  )
       192        S      tau( 192) = (   0.3761670   0.7951734   0.8513099  )
       193        Pt     tau( 193) = (   0.1250041   0.5051825   0.9498857  )
       194        Pd     tau( 194) = (   0.2537626   0.4308622   1.0802098  )

     --------------------------------------------
     DFT-D3 Dispersion Correction (3-body terms):
     --------------------------------------------
       Reference C6 values for interpolation: 

         atom   Coordination number   C6
         S          0.000           268.01
         S          0.995           261.99
         S          1.990           251.62
         Mo         0.000          1691.79
         Mo         1.942          1004.01
         Mo        11.056           674.22
         Pd         0.000          1217.01
         Pd         1.863           573.90
         Pd         5.710           531.75
         Pt         0.000           782.29
         Pt         1.919           692.72
         Pt         6.667           673.75

       Values used:

         atom   Coordination number  R0_AB[au]  C6      C8
         Mo        10.208            3.547    674.22  77634.20
         Mo        10.221            3.547    674.22  77634.20
         S          3.858            3.128    251.62  12327.25
         S          3.859            3.128    251.62  12327.25
         S          3.758            3.128    251.62  12327.25
         S          3.859            3.128    251.62  12327.25
         Mo        10.220            3.547    674.22  77634.20
         Mo        10.236            3.547    674.22  77634.20
         S          3.844            3.128    251.62  12327.25
         S          3.861            3.128    251.62  12327.25
         S          3.859            3.128    251.62  12327.25
         S          3.828            3.128    251.62  12327.25
         Mo        10.208            3.547    674.22  77634.20
         Mo        10.221            3.547    674.21  77634.20
         S          3.858            3.128    251.62  12327.25
         S          3.859            3.128    251.62  12327.25
         S          3.758            3.128    251.62  12327.25
         S          3.859            3.128    251.62  12327.25
         Mo        10.221            3.547    674.22  77634.20
         Mo        10.192            3.547    674.22  77634.20
         S          3.857            3.128    251.62  12327.25
         S          3.855            3.128    251.62  12327.25
         S          3.859            3.128    251.62  12327.25
         S          3.758            3.128    251.62  12327.25
         Mo        10.208            3.547    674.22  77634.20
         Mo        10.221            3.547    674.22  77634.20
         S          3.858            3.128    251.62  12327.25
         S          3.859            3.128    251.62  12327.25
         S          3.758            3.128    251.62  12327.25
         S          3.859            3.128    251.62  12327.25
         Mo        10.220            3.547    674.22  77634.20
         Mo        10.192            3.547    674.22  77634.20
         S          3.844            3.128    251.62  12327.25
         S          3.855            3.128    251.62  12327.25
         S          3.859            3.128    251.62  12327.25
         S          3.828            3.128    251.62  12327.25
         Mo        10.208            3.547    674.22  77634.20
         Mo        10.221            3.547    674.22  77634.20
         S          3.858            3.128    251.62  12327.25
         S          3.859            3.128    251.62  12327.25
         S          3.758            3.128    251.62  12327.25
         S          3.859            3.128    251.62  12327.25
         Mo        10.219            3.547    674.22  77634.20
         Mo        10.236            3.547    674.22  77634.20
         S          3.852            3.128    251.62  12327.25
         S          3.861            3.128    251.62  12327.25
         S          3.859            3.128    251.62  12327.25
         S          3.792            3.128    251.62  12327.25
         Mo        10.208            3.547    674.22  77634.20
         Mo        10.221            3.547    674.22  77634.20
         S          3.858            3.128    251.62  12327.25
         S          3.859            3.128    251.62  12327.25
         S          3.758            3.128    251.62  12327.25
         S          3.859            3.128    251.62  12327.25
         Mo        10.220            3.547    674.22  77634.20
         Mo        10.250            3.547    674.22  77634.20
         S          3.844            3.128    251.62  12327.25
         S          3.860            3.128    251.62  12327.25
         S          3.859            3.128    251.62  12327.25
         S          3.830            3.128    251.62  12327.25
         Mo        10.208            3.547    674.22  77634.20
         Mo        10.221            3.547    674.21  77634.20
         S          3.858            3.128    251.62  12327.25
         S          3.859            3.128    251.62  12327.25
         S          3.758            3.128    251.62  12327.25
         S          3.859            3.128    251.62  12327.25
         Mo        10.222            3.547    674.22  77634.20
         Mo        10.195            3.547    674.22  77634.20
         S          3.865            3.128    251.62  12327.25
         S          3.855            3.128    251.62  12327.25
         S          3.859            3.128    251.62  12327.25
         S          4.716            3.128    251.62  12327.25
         Mo        10.208            3.547    674.22  77634.20
         Mo        10.221            3.547    674.22  77634.20
         S          3.858            3.128    251.62  12327.25
         S          3.859            3.128    251.62  12327.25
         S          3.758            3.128    251.62  12327.25
         S          3.859            3.128    251.62  12327.25
         Mo        10.222            3.547    674.22  77634.20
         Mo        10.912            3.547    674.21  77634.20
         S          3.865            3.128    251.62  12327.25
         S          3.851            3.128    251.62  12327.25
         S          3.859            3.128    251.62  12327.25
         S          4.661            3.128    251.62  12327.25
         Mo        10.208            3.547    674.22  77634.20
         Mo        10.221            3.547    674.22  77634.20
         S          3.858            3.128    251.62  12327.25
         S          3.859            3.128    251.62  12327.25
         S          3.758            3.128    251.62  12327.25
         S          3.859            3.128    251.62  12327.25
         Mo        10.220            3.547    674.22  77634.20
         Mo        10.192            3.547    674.22  77634.20
         S          3.844            3.128    251.62  12327.25
         S          3.855            3.128    251.62  12327.25
         S          3.859            3.128    251.62  12327.25
         S          3.828            3.128    251.62  12327.25
         Mo        10.208            3.547    674.22  77634.20
         Mo        10.221            3.547    674.22  77634.20
         S          3.858            3.128    251.62  12327.25
         S          3.859            3.128    251.62  12327.25
         S          3.758            3.128    251.62  12327.25
         S          3.859            3.128    251.62  12327.25
         Mo        10.220            3.547    674.22  77634.20
         Mo        10.236            3.547    674.22  77634.20
         S          3.860            3.128    251.62  12327.25
         S          3.860            3.128    251.62  12327.25
         S          3.859            3.128    251.62  12327.25
         S          3.769            3.128    251.62  12327.25
         Mo        10.208            3.547    674.22  77634.20
         Mo        10.221            3.547    674.22  77634.20
         S          3.858            3.128    251.62  12327.25
         S          3.859            3.128    251.62  12327.25
         S          3.758            3.128    251.62  12327.25
         S          3.859            3.128    251.62  12327.25
         Mo        10.221            3.547    674.22  77634.20
         Mo        10.236            3.547    674.22  77634.20
         S          3.857            3.128    251.62  12327.25
         S          3.860            3.128    251.62  12327.25
         S          3.859            3.128    251.62  12327.25
         S          3.818            3.128    251.62  12327.25
         Mo        10.208            3.547    674.22  77634.20
         Mo        10.221            3.547    674.22  77634.20
         S          3.858            3.128    251.62  12327.25
         S          3.859            3.128    251.62  12327.25
         S          3.758            3.128    251.62  12327.25
         S          3.859            3.128    251.62  12327.25
         Mo        10.222            3.547    674.22  77634.20
         Mo        10.195            3.547    674.22  77634.20
         S          3.865            3.128    251.62  12327.25
         S          3.855            3.128    251.62  12327.25
         S          3.859            3.128    251.62  12327.25
         S          4.716            3.128    251.62  12327.25
         Mo        10.208            3.547    674.22  77634.20
         Mo        10.221            3.547    674.22  77634.20
         S          3.858            3.128    251.62  12327.25
         S          3.859            3.128    251.62  12327.25
         S          3.758            3.128    251.62  12327.25
         S          3.859            3.128    251.62  12327.25
         Mo        10.221            3.547    674.22  77634.20
         Mo        10.192            3.547    674.22  77634.20
         S          3.857            3.128    251.62  12327.25
         S          3.855            3.128    251.62  12327.25
         S          3.859            3.128    251.62  12327.25
         S          3.758            3.128    251.62  12327.25
         Mo        10.208            3.547    674.22  77634.20
         Mo        10.221            3.547    674.22  77634.20
         S          3.858            3.128    251.62  12327.25
         S          3.859            3.128    251.62  12327.25
         S          3.758            3.128    251.62  12327.25
         S          3.859            3.128    251.62  12327.25
         Mo        10.220            3.547    674.22  77634.20
         Mo        10.250            3.547    674.22  77634.20
         S          3.860            3.128    251.62  12327.25
         S          3.860            3.128    251.62  12327.25
         S          3.859            3.128    251.62  12327.25
         S          3.768            3.128    251.62  12327.25
         Mo        10.208            3.547    674.21  77634.20
         Mo        10.220            3.547    674.22  77634.20
         S          3.858            3.128    251.62  12327.25
         S          3.859            3.128    251.62  12327.25
         S          3.758            3.128    251.62  12327.25
         S          3.859            3.128    251.62  12327.25
         Mo        10.220            3.547    674.22  77634.20
         Mo        10.236            3.547    674.22  77634.20
         S          3.860            3.128    251.62  12327.25
         S          3.860            3.128    251.62  12327.25
         S          3.859            3.128    251.62  12327.25
         S          3.769            3.128    251.62  12327.25
         Mo        10.208            3.547    674.22  77634.20
         Mo        10.221            3.547    674.22  77634.20
         S          3.858            3.128    251.62  12327.25
         S          3.859            3.128    251.62  12327.25
         S          3.758            3.128    251.62  12327.25
         S          3.859            3.128    251.62  12327.25
         Mo        10.220            3.547    674.22  77634.20
         Mo        10.250            3.547    674.22  77634.20
         S          3.844            3.128    251.62  12327.25
         S          3.860            3.128    251.62  12327.25
         S          3.859            3.128    251.62  12327.25
         S          3.830            3.128    251.62  12327.25
         Mo        10.208            3.547    674.22  77634.20
         Mo        10.221            3.547    674.22  77634.20
         S          3.858            3.128    251.62  12327.25
         S          3.859            3.128    251.62  12327.25
         S          3.758            3.128    251.62  12327.25
         S          3.859            3.128    251.62  12327.25
         Mo        10.220            3.547    674.22  77634.20
         Mo        10.236            3.547    674.22  77634.20
         S          3.844            3.128    251.62  12327.25
         S          3.861            3.128    251.62  12327.25
         S          3.859            3.128    251.62  12327.25
         S          3.828            3.128    251.62  12327.25
         Pt         4.970            3.168    673.75  70061.90
         Pd         1.143            3.168    594.46  54466.35

         Molecular C6 ( Ry / a.u.^6 ) =  13986425.76


     number of k points=     4  Gaussian smearing, width (Ry)=  0.0100
                       cart. coord. in units 2pi/alat
        k(    1) = (   0.0000000   0.0000000   0.0000000), wk =   0.5000000
        k(    2) = (   0.0000000  -0.5773499   0.0000000), wk =   0.5000000
        k(    3) = (  -0.5000000  -0.2886744   0.0000000), wk =   0.5000000
        k(    4) = (  -0.5000000  -0.8660242   0.0000000), wk =   0.5000000

     Dense  grid:  7154885 G-vectors     FFT dimensions: ( 180, 180, 512)

     Smooth grid:  3090769 G-vectors     FFT dimensions: ( 135, 135, 400)

     Estimated max dynamical RAM per process >       4.31 GB

     Estimated total dynamical RAM >     155.10 GB

     Initial potential from superposition of free atoms

     starting charge    1713.9389, renormalised to    1714.0000

     negative rho (up, down):  8.657E-04 0.000E+00
     Starting wfcs are 1179 randomized atomic wfcs
     Checking if some PAW data can be deallocated... 

     total cpu time spent up to now is      176.8 secs

     Self-consistent Calculation

     iteration #  1     ecut=    77.00 Ry     beta= 0.20
     Davidson diagonalization with overlap
     ethr =  1.00E-02,  avg # of iterations =  2.0

     Threshold (ethr) on eigenvalues was too large:
     Diagonalizing with lowered threshold

     Davidson diagonalization with overlap
     ethr =  1.68E-04,  avg # of iterations = 17.2

     negative rho (up, down):  2.448E-04 0.000E+00

     total cpu time spent up to now is     2168.5 secs

     total energy              =  -33980.21772195 Ry
     estimated scf accuracy    <       6.65720836 Ry

     iteration #  2     ecut=    77.00 Ry     beta= 0.20
     Davidson diagonalization with overlap
     ethr =  3.88E-04,  avg # of iterations =  4.5

     negative rho (up, down):  2.672E-05 0.000E+00

     total cpu time spent up to now is     2576.8 secs

     total energy              =  -33978.79945806 Ry
     estimated scf accuracy    <       3.46290392 Ry

     iteration #  3     ecut=    77.00 Ry     beta= 0.20
     Davidson diagonalization with overlap
     ethr =  2.02E-04,  avg # of iterations = 18.8

     negative rho (up, down):  3.320E-05 0.000E+00

     total cpu time spent up to now is     3111.3 secs

     total energy              =  -33979.63601903 Ry
     estimated scf accuracy    <      27.46967180 Ry

     iteration #  4     ecut=    77.00 Ry     beta= 0.20
     Davidson diagonalization with overlap
     ethr =  2.02E-04,  avg # of iterations = 10.5

     negative rho (up, down):  1.219E-04 0.000E+00

     total cpu time spent up to now is     3549.9 secs

     total energy              =  -33979.67108020 Ry
     estimated scf accuracy    <      22.09657950 Ry

     iteration #  5     ecut=    77.00 Ry     beta= 0.20
     Davidson diagonalization with overlap
     ethr =  2.02E-04,  avg # of iterations = 10.8

     negative rho (up, down):  2.088E-04 0.000E+00

     total cpu time spent up to now is     3989.7 secs

     total energy              =  -33978.14478376 Ry
     estimated scf accuracy    <     126.10500634 Ry

     iteration #  6     ecut=    77.00 Ry     beta= 0.20
     Davidson diagonalization with overlap
     ethr =  2.02E-04,  avg # of iterations =  6.8

     negative rho (up, down):  2.562E-04 0.000E+00

     total cpu time spent up to now is     4410.8 secs

     total energy              =  -33979.70676654 Ry
     estimated scf accuracy    <       2.39232533 Ry

     iteration #  7     ecut=    77.00 Ry     beta= 0.20
     Davidson diagonalization with overlap
     ethr =  1.40E-04,  avg # of iterations =  8.2

     negative rho (up, down):  4.821E-04 0.000E+00

     total cpu time spent up to now is     4833.1 secs

     total energy              =  -33979.77660218 Ry
     estimated scf accuracy    <      10.07153471 Ry

     iteration #  8     ecut=    77.00 Ry     beta= 0.20
     Davidson diagonalization with overlap
     ethr =  1.40E-04,  avg # of iterations =  5.0

     negative rho (up, down):  5.747E-04 0.000E+00

     total cpu time spent up to now is     5239.7 secs

     total energy              =  -33979.81541082 Ry
     estimated scf accuracy    <       2.61716109 Ry

     iteration #  9     ecut=    77.00 Ry     beta= 0.20
     Davidson diagonalization with overlap
     ethr =  1.40E-04,  avg # of iterations =  1.0

     negative rho (up, down):  9.253E-04 0.000E+00

     total cpu time spent up to now is     5603.1 secs

     total energy              =  -33979.82655186 Ry
     estimated scf accuracy    <      10.67738223 Ry

     iteration # 10     ecut=    77.00 Ry     beta= 0.20
     Davidson diagonalization with overlap
     ethr =  1.40E-04,  avg # of iterations =  1.0

     negative rho (up, down):  9.683E-04 0.000E+00

     total cpu time spent up to now is     5967.3 secs

     total energy              =  -33979.89864838 Ry
     estimated scf accuracy    <       0.75574259 Ry

     iteration # 11     ecut=    77.00 Ry     beta= 0.20
     Davidson diagonalization with overlap
     ethr =  4.41E-05,  avg # of iterations = 14.0

     negative rho (up, down):  9.570E-04 0.000E+00

     total cpu time spent up to now is     6559.1 secs

     total energy              =  -33980.03129379 Ry
     estimated scf accuracy    <       0.86031188 Ry

     iteration # 12     ecut=    77.00 Ry     beta= 0.20
     Davidson diagonalization with overlap
     ethr =  4.41E-05,  avg # of iterations =  5.0

     negative rho (up, down):  6.890E-04 0.000E+00

     total cpu time spent up to now is     6960.2 secs

     total energy              =  -33980.03524211 Ry
     estimated scf accuracy    <       0.45439175 Ry

     iteration # 13     ecut=    77.00 Ry     beta= 0.20
     Davidson diagonalization with overlap
     ethr =  2.65E-05,  avg # of iterations =  9.8

     negative rho (up, down):  6.363E-04 0.000E+00

     total cpu time spent up to now is     7410.9 secs

     total energy              =  -33980.06746319 Ry
     estimated scf accuracy    <       0.13849120 Ry

     iteration # 14     ecut=    77.00 Ry     beta= 0.20
     Davidson diagonalization with overlap
     c_bands:  3 eigenvalues not converged
     c_bands:  1 eigenvalues not converged
     ethr =  8.08E-06,  avg # of iterations = 18.5

     negative rho (up, down):  5.538E-04 0.000E+00

     total cpu time spent up to now is     8369.8 secs

     total energy              =  -33980.21893007 Ry
     estimated scf accuracy    <       0.13042445 Ry

     iteration # 15     ecut=    77.00 Ry     beta= 0.20
     Davidson diagonalization with overlap
     ethr =  7.61E-06,  avg # of iterations =  1.5

     negative rho (up, down):  6.003E-04 0.000E+00

     total cpu time spent up to now is     8751.6 secs

     total energy              =  -33980.22419822 Ry
     estimated scf accuracy    <       0.08977342 Ry

     iteration # 16     ecut=    77.00 Ry     beta= 0.20
     Davidson diagonalization with overlap
     ethr =  5.24E-06,  avg # of iterations =  4.5

     negative rho (up, down):  6.051E-04 0.000E+00

     total cpu time spent up to now is     9156.8 secs

     total energy              =  -33980.21916212 Ry
     estimated scf accuracy    <       0.29165695 Ry

     iteration # 17     ecut=    77.00 Ry     beta= 0.20
     Davidson diagonalization with overlap
     ethr =  5.24E-06,  avg # of iterations =  1.5

     negative rho (up, down):  6.024E-04 0.000E+00

     total cpu time spent up to now is     9534.7 secs

     total energy              =  -33980.22015002 Ry
     estimated scf accuracy    <       0.09082791 Ry

     iteration # 18     ecut=    77.00 Ry     beta= 0.20
     Davidson diagonalization with overlap
     ethr =  5.24E-06,  avg # of iterations =  1.0

     negative rho (up, down):  5.917E-04 0.000E+00

     total cpu time spent up to now is     9895.5 secs

     total energy              =  -33980.22175751 Ry
     estimated scf accuracy    <       0.08689992 Ry

     iteration # 19     ecut=    77.00 Ry     beta= 0.20
     Davidson diagonalization with overlap
     ethr =  5.07E-06,  avg # of iterations =  1.0

     negative rho (up, down):  5.887E-04 0.000E+00

     total cpu time spent up to now is    10256.2 secs

     total energy              =  -33980.22368422 Ry
     estimated scf accuracy    <       0.07373906 Ry

     iteration # 20     ecut=    77.00 Ry     beta= 0.20
     Davidson diagonalization with overlap
     ethr =  4.30E-06,  avg # of iterations =  1.0

     negative rho (up, down):  5.636E-04 0.000E+00

     total cpu time spent up to now is    10616.8 secs

     total energy              =  -33980.21898554 Ry
     estimated scf accuracy    <       0.07309652 Ry

     iteration # 21     ecut=    77.00 Ry     beta= 0.20
     Davidson diagonalization with overlap
     c_bands: 12 eigenvalues not converged
     c_bands: 10 eigenvalues not converged
     ethr =  4.26E-06,  avg # of iterations = 60.8

     negative rho (up, down):  5.933E-04 0.000E+00

     total cpu time spent up to now is    12066.7 secs

     total energy              =  -33980.22029770 Ry
     estimated scf accuracy    <       0.21273104 Ry

     iteration # 22     ecut=    77.00 Ry     beta= 0.20
     Davidson diagonalization with overlap
     c_bands:  5 eigenvalues not converged
     c_bands:  4 eigenvalues not converged
     ethr =  4.26E-06,  avg # of iterations = 11.0

     negative rho (up, down):  6.462E-04 0.000E+00

     total cpu time spent up to now is    12499.7 secs

     total energy              =  -33980.21890301 Ry
     estimated scf accuracy    <       0.04820346 Ry

     iteration # 23     ecut=    77.00 Ry     beta= 0.20
     Davidson diagonalization with overlap
     c_bands: 11 eigenvalues not converged
     c_bands:  9 eigenvalues not converged
     c_bands:  5 eigenvalues not converged
     c_bands:  6 eigenvalues not converged
     ethr =  2.81E-06,  avg # of iterations = 95.0

     negative rho (up, down):  6.974E-04 0.000E+00

     total cpu time spent up to now is    14583.0 secs

     total energy              =  -33980.21940026 Ry
     estimated scf accuracy    <       0.08338051 Ry

     iteration # 24     ecut=    77.00 Ry     beta= 0.20
     Davidson diagonalization with overlap
     c_bands:  3 eigenvalues not converged
     c_bands:  4 eigenvalues not converged
     c_bands:  4 eigenvalues not converged
     c_bands:  1 eigenvalues not converged
     ethr =  2.81E-06,  avg # of iterations = 20.0

     negative rho (up, down):  7.675E-04 0.000E+00

     total cpu time spent up to now is    15053.8 secs

     total energy              =  -33980.22203887 Ry
     estimated scf accuracy    <       0.01385631 Ry

     iteration # 25     ecut=    77.00 Ry     beta= 0.20
     Davidson diagonalization with overlap
     c_bands:  1 eigenvalues not converged
     c_bands:  1 eigenvalues not converged
     ethr =  8.08E-07,  avg # of iterations = 16.5

     negative rho (up, down):  8.092E-04 0.000E+00

     total cpu time spent up to now is    15547.7 secs

     total energy              =  -33980.22243886 Ry
     estimated scf accuracy    <       0.00712617 Ry

     iteration # 26     ecut=    77.00 Ry     beta= 0.20
     Davidson diagonalization with overlap
     ethr =  4.16E-07,  avg # of iterations =  9.8

     negative rho (up, down):  8.030E-04 0.000E+00

     total cpu time spent up to now is    16080.6 secs

     total energy              =  -33980.22462243 Ry
     estimated scf accuracy    <       0.00398031 Ry

     iteration # 27     ecut=    77.00 Ry     beta= 0.20
     Davidson diagonalization with overlap
     ethr =  2.32E-07,  avg # of iterations =  9.0

     negative rho (up, down):  8.174E-04 0.000E+00

     total cpu time spent up to now is    16582.2 secs

     total energy              =  -33980.22516442 Ry
     estimated scf accuracy    <       0.00322882 Ry

     iteration # 28     ecut=    77.00 Ry     beta= 0.20
     Davidson diagonalization with overlap
     ethr =  1.88E-07,  avg # of iterations =  9.5

     negative rho (up, down):  8.443E-04 0.000E+00

     total cpu time spent up to now is    17014.9 secs

     total energy              =  -33980.22502279 Ry
     estimated scf accuracy    <       0.00191005 Ry

     iteration # 29     ecut=    77.00 Ry     beta= 0.20
     Davidson diagonalization with overlap
     c_bands:  5 eigenvalues not converged
     c_bands:  1 eigenvalues not converged
     c_bands:  1 eigenvalues not converged
     c_bands:  2 eigenvalues not converged
     ethr =  1.11E-07,  avg # of iterations = 55.0

     negative rho (up, down):  8.584E-04 0.000E+00

     total cpu time spent up to now is    18390.7 secs

     total energy              =  -33980.22591885 Ry
     estimated scf accuracy    <       0.00073781 Ry

     iteration # 30     ecut=    77.00 Ry     beta= 0.20
     Davidson diagonalization with overlap
     ethr =  4.30E-08,  avg # of iterations = 12.0

     negative rho (up, down):  8.729E-04 0.000E+00

     total cpu time spent up to now is    18941.1 secs

     total energy              =  -33980.22605577 Ry
     estimated scf accuracy    <       0.00044217 Ry

     iteration # 31     ecut=    77.00 Ry     beta= 0.20
     Davidson diagonalization with overlap
     c_bands:  2 eigenvalues not converged
     ethr =  2.58E-08,  avg # of iterations = 24.0

     negative rho (up, down):  8.877E-04 0.000E+00

     total cpu time spent up to now is    19661.0 secs

     total energy              =  -33980.22609277 Ry
     estimated scf accuracy    <       0.00017983 Ry

     iteration # 32     ecut=    77.00 Ry     beta= 0.20
     Davidson diagonalization with overlap
     c_bands:  1 eigenvalues not converged
     ethr =  1.05E-08,  avg # of iterations = 22.0

     negative rho (up, down):  8.793E-04 0.000E+00

     total cpu time spent up to now is    20641.1 secs

     total energy              =  -33980.22625010 Ry
     estimated scf accuracy    <       0.00004868 Ry

     iteration # 33     ecut=    77.00 Ry     beta= 0.20
     Davidson diagonalization with overlap
     ethr =  2.84E-09,  avg # of iterations = 18.2

     negative rho (up, down):  8.734E-04 0.000E+00

     total cpu time spent up to now is    21483.7 secs

     total energy              =  -33980.22628813 Ry
     estimated scf accuracy    <       0.00004128 Ry

     iteration # 34     ecut=    77.00 Ry     beta= 0.20
     Davidson diagonalization with overlap
     ethr =  2.41E-09,  avg # of iterations =  4.0

     negative rho (up, down):  8.718E-04 0.000E+00

     total cpu time spent up to now is    21886.9 secs

     total energy              =  -33980.22629009 Ry
     estimated scf accuracy    <       0.00001083 Ry

     iteration # 35     ecut=    77.00 Ry     beta= 0.20
     Davidson diagonalization with overlap
     ethr =  6.32E-10,  avg # of iterations = 15.0

     negative rho (up, down):  8.733E-04 0.000E+00

     total cpu time spent up to now is    22694.7 secs

     total energy              =  -33980.22629786 Ry
     estimated scf accuracy    <       0.00000476 Ry

     iteration # 36     ecut=    77.00 Ry     beta= 0.20
     Davidson diagonalization with overlap
     c_bands:  1 eigenvalues not converged
     ethr =  2.77E-10,  avg # of iterations = 16.8

     negative rho (up, down):  8.751E-04 0.000E+00

     total cpu time spent up to now is    23482.7 secs

     total energy              =  -33980.22629963 Ry
     estimated scf accuracy    <       0.00000311 Ry

     iteration # 37     ecut=    77.00 Ry     beta= 0.20
     Davidson diagonalization with overlap
     ethr =  1.81E-10,  avg # of iterations =  5.2

     negative rho (up, down):  8.772E-04 0.000E+00

     total cpu time spent up to now is    23897.9 secs

     total energy              =  -33980.22629803 Ry
     estimated scf accuracy    <       0.00000142 Ry

     iteration # 38     ecut=    77.00 Ry     beta= 0.20
     Davidson diagonalization with overlap
     c_bands:  1 eigenvalues not converged
     c_bands:  3 eigenvalues not converged
     ethr =  8.26E-11,  avg # of iterations = 18.0

     negative rho (up, down):  8.757E-04 0.000E+00

     total cpu time spent up to now is    24801.1 secs

     End of self-consistent calculation

          k = 0.0000 0.0000 0.0000 (386245 PWs)   bands (ev):

  -103.1815 -87.1875 -71.5329 -71.5082 -71.5082 -71.4609 -71.4455 -71.4400
   -71.4345 -66.5711 -66.5618 -66.5612 -66.5603 -66.5598 -66.5511 -66.5509
   -66.5445 -66.5444 -66.5407 -66.5407 -66.5406 -66.5405 -66.5404 -66.5403
   -66.5399 -66.5399 -66.5399 -66.5398 -66.5398 -66.5398 -66.5385 -66.5385
   -66.5385 -66.5385 -66.5385 -66.5385 -66.5338 -66.5337 -66.5320 -66.5194
   -66.5193 -66.5193 -66.5193 -66.5192 -66.5191 -66.5190 -66.5190 -66.5188
   -66.5186 -66.5186 -66.5185 -66.5185 -66.5185 -66.5184 -66.5184 -66.5184
   -66.5184 -66.5171 -66.5171 -66.5171 -66.5171 -66.5171 -66.5171 -66.5171
   -66.5171 -66.5170 -66.5168 -66.5121 -66.5003 -66.4931 -66.4911 -66.4827
   -66.4792 -57.4731 -57.3621 -57.3359 -53.2309 -52.9307 -52.8488 -40.8895
   -40.8893 -40.8893 -40.8892 -40.8891 -40.8885 -40.8885 -40.8885 -40.8878
   -40.8878 -40.8878 -40.8865 -40.8186 -40.8183 -40.8140 -40.8140 -40.8140
   -40.8138 -40.8138 -40.8138 -40.8132 -40.8132 -40.8132 -40.8132 -40.8132
   -40.8132 -40.8125 -40.8125 -40.8124 -40.8124 -40.8124 -40.8124 -40.8113
   -40.8065 -40.7916 -40.7862 -40.7354 -40.7215 -40.7207 -40.7201 -40.7153
   -40.7029 -40.6946 -40.6945 -40.6933 -40.6912 -40.6905 -40.6878 -40.6876
   -40.6876 -40.6875 -40.6875 -40.6874 -40.6869 -40.6869 -40.6869 -40.6869
   -40.6868 -40.6868 -40.6860 -40.6860 -40.6860 -40.6860 -40.6860 -40.6860
   -40.6841 -40.6806 -40.6799 -40.6799 -40.6798 -40.6797 -40.6796 -40.6796
   -40.6791 -40.6791 -40.6791 -40.6790 -40.6790 -40.6790 -40.6783 -40.6783
   -40.6783 -40.6783 -40.6783 -40.6783 -40.6768 -40.6749 -40.6649 -40.6585
   -40.6566 -40.6556 -40.6547 -40.6527 -40.6526 -40.6526 -40.6524 -40.6524
   -40.6524 -40.6519 -40.6519 -40.6519 -40.6518 -40.6518 -40.6518 -40.6509
   -40.6509 -40.6509 -40.6509 -40.6509 -40.6509 -40.6491 -40.6483 -40.6441
   -40.6388 -40.6380 -40.6380 -40.6379 -40.6379 -40.6378 -40.6378 -40.6377
   -40.6376 -40.6376 -40.6372 -40.6372 -40.6371 -40.6371 -40.6371 -40.6370
   -40.6370 -40.6370 -40.6370 -40.6368 -40.6363 -40.6363 -40.6363 -40.6363
   -40.6363 -40.6363 -40.6362 -40.6362 -40.6362 -40.6327 -40.6274 -40.6262
   -40.6252 -40.6223 -40.6153 -40.5742 -40.5742 -40.5741 -40.5735 -40.5735
   -40.5735 -40.5725 -40.5725 -40.5725 -40.5716 -40.5710 -40.5684 -40.5272
   -40.5272 -40.5272 -40.5270 -40.5269 -40.5269 -40.5264 -40.5264 -40.5264
   -40.5264 -40.5264 -40.5264 -40.5253 -40.5253 -40.5253 -40.5253 -40.5253
   -40.5253 -40.5234 -40.5183 -40.5147 -40.5129 -40.5117 -40.5036 -40.4795
   -40.4794 -40.4788 -40.4788 -40.4777 -40.4777 -40.4568 -40.4495 -20.0715
   -20.0145 -19.9183 -19.8207 -19.2845 -19.2533 -19.2302 -19.1878 -19.1866
   -19.1859 -19.1699 -19.1678 -19.1646 -19.1293 -19.1264 -19.1253 -19.0800
   -19.0778 -19.0747 -19.0450 -19.0412 -19.0409 -18.9785 -18.9773 -18.9760
   -18.9649 -18.9632 -18.9631 -18.8403 -18.7261 -18.5787 -18.5593 -18.5313
   -18.4745 -18.4215 -18.4118 -18.4090 -18.4086 -18.3724 -18.3693 -18.3520
   -18.3080 -18.3038 -18.3028 -18.2472 -18.2451 -18.2215 -18.1951 -18.1920
   -18.1910 -18.1550 -18.1537 -18.1214 -18.1139 -18.1127 -18.1123 -18.1063
   -18.1046 -18.0633 -18.0603 -18.0600 -18.0594 -18.0562 -18.0562 -18.0377
   -18.0307 -18.0296 -18.0292 -18.0212 -18.0206 -18.0169 -18.0132 -18.0130
   -17.9992 -17.9918 -17.9910 -17.9898 -17.9861 -17.9849 -17.9838 -17.9676
   -17.9670 -17.9626 -17.9486 -17.9482 -17.9399 -17.9383 -17.9367 -17.9362
   -17.9236 -17.9232 -17.9218 -17.8877 -17.8850 -17.8687 -17.8621 -17.8606
   -17.8570 -17.8548 -17.8542 -17.8535 -17.8320 -17.8313 -17.8258 -17.8139
   -17.8137 -17.8084 -17.8043 -17.8035 -17.8021 -17.7965 -17.7965 -17.7946
   -17.7780 -17.7780 -17.7772 -17.7662 -17.7661 -17.7632 -17.7599 -17.7598
   -17.7589 -17.7341 -17.7341 -17.7331 -17.7322 -17.7321 -17.7318 -12.0169
   -11.9076 -11.7818 -11.7771 -11.7390 -11.7108 -11.7072 -11.6886 -11.6159
   -11.5965 -11.5943 -11.4985 -11.4891 -11.4884 -11.4055 -11.2803 -11.2662
   -11.2641 -11.1771 -11.1761 -11.1748 -11.1667 -11.1665 -11.1644 -11.0776
   -11.0728 -11.0717 -11.0711 -11.0706 -11.0683 -11.0410 -11.0222 -11.0192
   -11.0153 -11.0072 -11.0021 -11.0015 -10.9963 -10.9945 -10.9926 -10.9874
   -10.9817 -10.9653 -10.9503 -10.9392 -10.9309 -10.9111 -10.9099 -10.8825
   -10.8784 -10.8761 -10.8560 -10.8421 -10.8408 -10.8317 -10.8219 -10.8214
   -10.7958 -10.7887 -10.7876 -10.7876 -10.7858 -10.7751 -10.7735 -10.7680
   -10.7653 -10.7651 -10.7556 -10.7514 -10.7452 -10.7445 -10.7438 -10.7438
   -10.7423 -10.7387 -10.7381 -10.7184 -10.7181 -10.7116 -10.7115 -10.7082
   -10.7043 -10.6903 -10.6899 -10.6894 -10.6748 -10.6748 -10.6715 -10.6709
   -10.6702 -10.6698 -10.5982 -10.5972 -10.5923 -10.5450 -10.5237 -10.5227
   -10.5162 -10.5157 -10.5138 -10.4269 -10.4238 -10.1494 -10.1031 -10.1003
    -9.9685  -9.9156  -9.8962  -9.8947  -9.7783  -9.7551  -9.7544  -9.7398
    -9.7367  -9.7360  -9.7236  -9.7089  -9.7086  -9.7078  -9.7069  -9.7067
    -9.6988  -9.6965  -9.6958  -9.6855  -9.6853  -9.6849  -9.6743  -9.6704
    -9.6684  -9.6193  -9.5784  -9.5783  -9.5714  -9.5693  -9.5682  -9.5675
    -9.5626  -9.5618  -9.5555  -9.5551  -9.5549  -9.5548  -9.5498  -9.5484
    -9.5442  -9.5441  -9.5332  -9.4795  -9.4792  -9.4783  -9.4778  -9.4778
    -9.4777  -9.4719  -9.4703  -9.4649  -9.4616  -9.4547  -9.4547  -9.4324
    -9.4322  -9.4020  -9.3912  -9.3858  -9.3831  -9.3091  -9.3046  -9.3008
    -9.2867  -9.2829  -9.2722  -9.2701  -9.2582  -9.2545  -9.2489  -9.2477
    -9.2425  -9.2068  -9.2051  -9.1820  -9.1685  -9.1682  -9.1503  -9.1255
    -9.1247  -9.1216  -9.1174  -9.1172  -9.1123  -9.1023  -9.0847  -9.0774
    -9.0727  -9.0606  -9.0594  -9.0383  -9.0338  -8.9908  -8.9584  -8.9200
    -8.9197  -8.9188  -8.8997  -8.8978  -8.8925  -8.8827  -8.8824  -8.8745
    -8.8727  -8.8653  -8.8537  -8.8535  -8.8512  -8.8480  -8.8356  -8.8340
    -8.8146  -8.7990  -8.7977  -8.7579  -8.7579  -8.7578  -8.7575  -8.7574
    -8.7568  -8.6909  -8.6898  -8.6835  -8.6822  -8.6769  -8.6593  -8.6305
    -8.6086  -8.6047  -8.6014  -8.6005  -8.5833  -8.5741  -8.5339  -8.5313
    -8.5287  -8.5285  -8.5250  -8.5202  -8.4562  -8.4209  -8.3979  -8.3032
    -8.3032  -8.2991  -8.2990  -8.2929  -8.2928  -8.2899  -8.2891  -8.2416
    -8.2385  -8.2347  -8.2166  -8.2127  -8.2126  -8.2107  -8.2102  -8.2100
    -8.1974  -8.1864  -8.1862  -8.1836  -8.1830  -8.1826  -8.1730  -8.1579
    -8.1579  -8.1568  -8.1566  -8.1563  -8.1533  -8.0609  -8.0370  -7.9418
    -7.8075  -7.8053  -7.8002  -7.7484  -7.7462  -7.7303  -7.6705  -7.6632
    -7.6577  -7.6438  -7.6420  -7.5831  -7.5819  -7.5802  -7.5744  -7.5648
    -7.5616  -7.5547  -7.5513  -7.5511  -7.5057  -7.5049  -7.4941  -7.4853
    -7.4778  -7.4767  -7.4748  -7.4742  -7.4711  -7.4709  -7.4689  -7.4674
    -7.4614  -7.4522  -7.4454  -7.4448  -7.4444  -7.4440  -7.4385  -7.4279
    -7.4203  -7.4203  -7.4194  -7.4191  -7.4177  -7.4118  -7.3983  -7.3977
    -7.3785  -7.3645  -7.3619  -7.3547  -7.3536  -7.3490  -7.3436  -7.3435
    -7.3403  -7.3352  -7.3148  -7.2935  -7.2820  -7.2736  -7.2709  -7.2375
    -7.2345  -7.2325  -7.2323  -7.2252  -7.2238  -7.2236  -7.2177  -7.2165
    -7.1881  -7.1874  -7.1730  -7.1694  -7.1677  -7.1510  -7.1508  -7.1172
    -7.1083  -7.0664  -7.0372  -7.0296  -7.0114  -7.0006  -6.9512  -6.8840
    -6.8328  -6.7970  -6.7882  -6.7854  -6.7614  -6.7427  -6.7351  -6.7265
    -6.7217  -6.6950  -6.6839  -6.6823  -6.6511  -6.6323  -6.6115  -6.5947
    -6.5684  -6.5557  -6.5517  -6.5516  -6.5495  -6.5489  -6.5477  -6.5396
    -6.5177  -6.4959  -6.4843  -6.4809  -6.4780  -6.4752  -6.4599  -6.4511
    -6.4493  -6.4478  -6.4457  -6.4448  -6.4442  -6.4437  -6.4425  -6.4343
    -6.4340  -6.4340  -6.4338  -6.4336  -6.4334  -6.4206  -6.3984  -6.3952
    -6.3788  -6.3578  -6.3533  -6.3462  -6.3396  -6.3348  -6.3060  -6.2824
    -6.2762  -6.2736  -6.2708  -6.2707  -6.2639  -6.2575  -6.2480  -6.2456
    -6.2351  -6.2350  -6.2233  -6.2216  -6.2161  -6.2132  -6.2005  -6.1972
    -6.1907  -6.1883  -6.1871  -6.1856  -6.1815  -6.1731  -6.1571  -6.0624
    -5.8355  -5.6550  -5.4340  -5.4196  -5.3814  -5.2522  -5.2088  -5.0991
    -5.0126  -4.5671  -3.7933  -3.7891  -3.7869  -3.7824  -3.7793  -3.7685
    -3.7622  -3.7620  -3.7600  -3.7593  -3.7590  -3.7474  -3.6425  -3.6356
    -3.6269  -3.6245  -3.6229  -3.6178  -3.6154  -3.6152  -3.6133  -3.6131
    -3.6079  -3.5405  -3.4536  -3.4510  -3.4497  -3.4453  -3.4392  -3.4255
    -3.4211  -3.4133  -3.4105  -3.4103  -3.4090  -3.4069  -3.3965  -3.3949
    -3.3911  -3.3900  -3.3841  -3.3804  -3.3793  -3.3793  -3.3769  -3.3662
    -3.3661  -3.3656  -3.3547  -3.3546  -3.3526  -3.3504  -3.3487  -3.3487
    -3.3395  -3.3392  -3.3391  -3.3340  -3.3309  -3.3075  -3.2983  -3.2868
    -3.2853  -3.2826  -3.2815  -3.2789  -3.2769  -3.2763  -3.2698  -3.2606
    -3.2519  -3.2394  -3.2245  -3.2205  -3.2200  -3.2196  -3.2103  -3.2078
    -3.1624  -3.1581  -3.1446  -3.1331  -3.1318  -3.0677  -3.0126  -3.0109
    -2.9983  -2.9971  -2.9959  -2.9954  -2.9814  -2.9800  -2.9778  -2.9485
    -2.9383  -2.9163  -2.9123  -2.9121  -2.9105  -2.9100  -2.9090  -2.9039
    -2.9027  -2.9025  -2.8994  -2.8993  -2.8906  -2.8905  -2.8901  -2.8831
    -2.8809  -2.8722  -2.8712  -2.8708  -2.8701  -2.8681  -2.8679  -2.8667
    -2.8663  -2.8580  -2.8552  -2.8473  -2.8235  -2.8182  -2.8070  -2.8014
    -2.8010  -2.7971  -2.7951  -2.7735  -2.7432  -2.7432  -2.7432  -2.7431
    -2.7431  -2.7431  -2.7422  -2.7399  -2.7390  -2.7280  -2.7219  -2.7165
    -2.6959  -2.6818  -2.6722  -2.6700  -2.6690  -2.6546  -2.6528  -2.6261
    -2.6076  -2.5927  -2.5761  -2.5728  -2.5453  -2.5438  -2.5393  -2.5369
    -2.5277  -2.5176  -2.4957  -2.4731  -2.4711  -2.4673  -2.4520  -2.4382
    -2.3573  -2.3565  -2.3498  -2.3440

          k = 0.0000-0.5773 0.0000 (386352 PWs)   bands (ev):

  -103.1815 -87.1875 -71.5329 -71.5082 -71.5082 -71.4609 -71.4455 -71.4400
   -71.4345 -66.5683 -66.5650 -66.5557 -66.5556 -66.5550 -66.5549 -66.5536
   -66.5536 -66.5519 -66.5486 -66.5460 -66.5450 -66.5449 -66.5443 -66.5443
   -66.5429 -66.5429 -66.5405 -66.5358 -66.5332 -66.5326 -66.5300 -66.5299
   -66.5298 -66.5298 -66.5292 -66.5292 -66.5292 -66.5292 -66.5278 -66.5278
   -66.5278 -66.5278 -66.5255 -66.5253 -66.5248 -66.5247 -66.5234 -66.5233
   -66.5193 -66.5192 -66.5192 -66.5189 -66.5185 -66.5185 -66.5184 -66.5184
   -66.5171 -66.5171 -66.5171 -66.5171 -66.5166 -66.5147 -66.5147 -66.5140
   -66.5140 -66.5126 -66.5126 -66.5116 -66.5008 -66.4931 -66.4911 -66.4828
   -66.4791 -57.4731 -57.3621 -57.3359 -53.2309 -52.9307 -52.8488 -40.8713
   -40.8621 -40.8577 -40.8577 -40.8576 -40.8574 -40.8570 -40.8569 -40.8569
   -40.8568 -40.8562 -40.8562 -40.8562 -40.8561 -40.8546 -40.8382 -40.8360
   -40.8308 -40.8307 -40.8301 -40.8301 -40.8300 -40.8293 -40.8293 -40.8187
   -40.8187 -40.8180 -40.8180 -40.8173 -40.8173 -40.8137 -40.7960 -40.7681
   -40.7680 -40.7680 -40.7680 -40.7673 -40.7673 -40.7673 -40.7673 -40.7665
   -40.7665 -40.7665 -40.7665 -40.7641 -40.7583 -40.7560 -40.7385 -40.7256
   -40.7235 -40.7130 -40.7093 -40.7093 -40.7086 -40.7085 -40.7079 -40.7078
   -40.6998 -40.6997 -40.6991 -40.6991 -40.6981 -40.6981 -40.6969 -40.6884
   -40.6884 -40.6877 -40.6877 -40.6876 -40.6870 -40.6870 -40.6856 -40.6842
   -40.6773 -40.6693 -40.6639 -40.6602 -40.6589 -40.6589 -40.6587 -40.6587
   -40.6581 -40.6581 -40.6581 -40.6581 -40.6573 -40.6573 -40.6573 -40.6573
   -40.6554 -40.6526 -40.6501 -40.6500 -40.6494 -40.6493 -40.6486 -40.6486
   -40.6453 -40.6396 -40.6383 -40.6382 -40.6379 -40.6378 -40.6378 -40.6376
   -40.6376 -40.6376 -40.6371 -40.6371 -40.6370 -40.6370 -40.6366 -40.6366
   -40.6363 -40.6363 -40.6362 -40.6362 -40.6342 -40.6295 -40.6291 -40.6291
   -40.6284 -40.6284 -40.6276 -40.6276 -40.6276 -40.6255 -40.6145 -40.6097
   -40.6075 -40.6074 -40.6072 -40.6071 -40.6067 -40.6067 -40.6066 -40.6066
   -40.6064 -40.6057 -40.6057 -40.6056 -40.6056 -40.6046 -40.5951 -40.5728
   -40.5726 -40.5726 -40.5725 -40.5725 -40.5719 -40.5719 -40.5719 -40.5719
   -40.5709 -40.5709 -40.5709 -40.5709 -40.5634 -40.5605 -40.5603 -40.5601
   -40.5598 -40.5597 -40.5587 -40.5587 -40.5582 -40.5450 -40.5413 -40.5410
   -40.5405 -40.5404 -40.5399 -40.5394 -40.5394 -40.5357 -40.5267 -40.5242
   -40.5241 -40.5234 -40.5234 -40.5224 -40.5224 -40.5112 -40.4936 -40.4933
   -40.4928 -40.4927 -40.4917 -40.4917 -40.4909 -40.4847 -40.4557 -19.8551
   -19.8248 -19.7917 -19.7638 -19.6931 -19.6722 -19.5900 -19.5827 -19.3982
   -19.3963 -19.3472 -19.3451 -19.2579 -19.2562 -19.1622 -19.1615 -18.8551
   -18.8077 -18.7684 -18.7003 -18.6784 -18.6668 -18.6586 -18.6574 -18.6557
   -18.6170 -18.6138 -18.5965 -18.5859 -18.5714 -18.5571 -18.5459 -18.5190
   -18.5125 -18.5015 -18.4870 -18.4828 -18.4763 -18.4662 -18.4511 -18.4282
   -18.4153 -18.4128 -18.4066 -18.4002 -18.3733 -18.3471 -18.3435 -18.3347
   -18.3111 -18.3056 -18.2852 -18.2674 -18.2493 -18.2313 -18.2054 -18.1885
   -18.1776 -18.1676 -18.1611 -18.1280 -18.1272 -18.0937 -18.0780 -18.0631
   -18.0506 -18.0476 -18.0423 -18.0393 -18.0388 -18.0338 -18.0292 -18.0128
   -18.0117 -18.0068 -18.0037 -18.0022 -17.9928 -17.9878 -17.9837 -17.9817
   -17.9782 -17.9719 -17.9706 -17.9453 -17.9423 -17.9376 -17.9348 -17.9332
   -17.9323 -17.9277 -17.9275 -17.9217 -17.9139 -17.8822 -17.8758 -17.8707
   -17.8683 -17.8594 -17.8591 -17.8277 -17.8231 -17.8150 -17.8144 -17.7843
   -17.7835 -17.7779 -17.7777 -17.7653 -17.7573 -17.7554 -17.7550 -17.7541
   -17.7541 -17.7527 -17.7488 -17.7404 -17.7380 -17.7219 -17.7191 -17.6979
   -17.6956 -17.6791 -17.6762 -17.6640 -17.6625 -17.6554 -17.6552 -11.8916
   -11.6586 -11.6504 -11.5858 -11.5630 -11.4563 -11.4543 -11.4471 -11.4336
   -11.4316 -11.4185 -11.4156 -11.4012 -11.3822 -11.3722 -11.3362 -11.3355
   -11.3235 -11.2952 -11.2844 -11.2713 -11.2590 -11.2584 -11.2483 -11.2271
   -11.2102 -11.2056 -11.1995 -11.1952 -11.1943 -11.1881 -11.1826 -11.1697
   -11.1422 -11.1405 -11.1269 -11.1214 -11.1065 -11.1052 -11.1031 -11.1028
   -11.0885 -11.0824 -11.0806 -11.0550 -11.0483 -11.0184 -11.0057 -11.0000
   -10.9899 -10.9754 -10.9238 -10.9063 -10.8850 -10.8728 -10.8693 -10.8496
   -10.8451 -10.8350 -10.8265 -10.8239 -10.7960 -10.7714 -10.7681 -10.7654
   -10.7621 -10.7503 -10.7483 -10.7479 -10.7467 -10.7459 -10.7408 -10.7328
   -10.7309 -10.7290 -10.7285 -10.7271 -10.7269 -10.7204 -10.7196 -10.7169
   -10.7042 -10.6798 -10.6795 -10.6786 -10.6769 -10.5955 -10.5816 -10.4802
   -10.4728 -10.4659 -10.4589 -10.4256 -10.4033 -10.3345 -10.3089 -10.2023
   -10.1838 -10.1212 -10.0905 -10.0743 -10.0700 -10.0521 -10.0495 -10.0260
   -10.0195 -10.0057  -9.9947  -9.9895  -9.9751  -9.9725  -9.9646  -9.9619
    -9.9541  -9.9384  -9.9284  -9.8944  -9.8724  -9.8611  -9.8579  -9.8517
    -9.8464  -9.8414  -9.8339  -9.8278  -9.8030  -9.8009  -9.7897  -9.7798
    -9.7417  -9.7298  -9.7290  -9.7122  -9.7025  -9.6993  -9.6798  -9.6680
    -9.6589  -9.6427  -9.6234  -9.6195  -9.6017  -9.5890  -9.5817  -9.5558
    -9.5517  -9.5476  -9.5188  -9.5086  -9.4841  -9.4821  -9.4795  -9.4722
    -9.4706  -9.4610  -9.4472  -9.4256  -9.4249  -9.4207  -9.4079  -9.4057
    -9.3985  -9.3932  -9.3903  -9.3705  -9.3654  -9.3644  -9.3585  -9.3164
    -9.2896  -9.2666  -9.2527  -9.2241  -9.1879  -9.1871  -9.1512  -9.1499
    -9.1387  -9.1294  -9.1163  -9.1126  -9.0942  -9.0838  -9.0755  -9.0631
    -9.0535  -9.0375  -9.0277  -9.0149  -8.9901  -8.9878  -8.9718  -8.9698
    -8.9638  -8.9614  -8.9560  -8.9246  -8.9203  -8.9110  -8.8931  -8.8856
    -8.8778  -8.8773  -8.8624  -8.8540  -8.8444  -8.8256  -8.8248  -8.8230
    -8.8218  -8.8163  -8.8134  -8.8067  -8.8064  -8.8046  -8.8006  -8.7950
    -8.7935  -8.7886  -8.7767  -8.7760  -8.7753  -8.7724  -8.7611  -8.7464
    -8.7413  -8.7283  -8.7257  -8.7248  -8.7187  -8.7185  -8.7171  -8.6990
    -8.6941  -8.6821  -8.6698  -8.6673  -8.6621  -8.6605  -8.6375  -8.6305
    -8.5875  -8.5823  -8.5688  -8.5162  -8.5095  -8.4417  -8.4369  -8.4205
    -8.3822  -8.3724  -8.3599  -8.3014  -8.2881  -8.2420  -8.2020  -8.1702
    -8.0967  -8.0635  -8.0633  -8.0549  -8.0547  -8.0435  -8.0432  -8.0388
    -8.0226  -7.9991  -7.9865  -7.9733  -7.9069  -7.9048  -7.8665  -7.8329
    -7.7862  -7.7825  -7.7774  -7.7747  -7.7568  -7.7561  -7.7546  -7.7500
    -7.7446  -7.7395  -7.7380  -7.7354  -7.7320  -7.7289  -7.7265  -7.7260
    -7.7219  -7.7172  -7.7158  -7.7119  -7.7090  -7.7053  -7.7050  -7.7009
    -7.7000  -7.6973  -7.6944  -7.6937  -7.6926  -7.6800  -7.6746  -7.6713
    -7.6668  -7.6632  -7.6570  -7.6563  -7.6475  -7.6331  -7.6319  -7.6311
    -7.6306  -7.6047  -7.6022  -7.6005  -7.6001  -7.5995  -7.5918  -7.5763
    -7.5685  -7.5665  -7.5447  -7.5438  -7.5376  -7.5359  -7.5332  -7.5289
    -7.5215  -7.5196  -7.5190  -7.4999  -7.4994  -7.4896  -7.4881  -7.4789
    -7.4771  -7.4754  -7.3982  -7.3933  -7.3910  -7.3859  -7.3722  -7.3503
    -7.3251  -7.2697  -7.2037  -7.1501  -7.1312  -7.1080  -7.1030  -7.1011
    -7.0963  -7.0697  -7.0578  -7.0504  -7.0375  -7.0360  -7.0238  -6.9998
    -6.9893  -6.9774  -6.9572  -6.9562  -6.9459  -6.9351  -6.9192  -6.9140
    -6.9013  -6.8725  -6.8623  -6.8481  -6.8362  -6.8236  -6.8135  -6.8088
    -6.7988  -6.7894  -6.7873  -6.7617  -6.7544  -6.7318  -6.7162  -6.7022
    -6.6868  -6.6298  -6.6263  -6.6129  -6.5870  -6.5775  -6.5555  -6.5508
    -6.5457  -6.5448  -6.5408  -6.5399  -6.5329  -6.5296  -6.5240  -6.5230
    -6.5207  -6.5174  -6.5147  -6.5145  -6.5142  -6.5133  -6.4779  -6.4522
    -6.4210  -6.4069  -6.3652  -6.3431  -6.3065  -6.2850  -6.2642  -6.2629
    -6.2609  -6.2476  -6.2291  -6.2221  -6.2165  -6.2152  -6.2131  -6.2118
    -6.2083  -6.2070  -6.1934  -6.1860  -6.1715  -6.1675  -6.1640  -6.1439
    -6.1372  -6.1362  -6.1342  -6.1327  -6.0651  -5.9411  -5.9339  -5.9059
    -5.8881  -5.8527  -5.8309  -5.8071  -5.7916  -5.7788  -5.7780  -5.7626
    -5.6253  -5.6063  -5.5318  -5.5256  -5.4338  -5.3881  -5.3223  -5.2050
    -5.0144  -4.5717  -4.0293  -4.0260  -4.0198  -4.0067  -3.8750  -3.8667
    -3.8560  -3.8508  -3.8405  -3.8077  -3.7770  -3.7764  -3.7618  -3.7599
    -3.7457  -3.7440  -3.7336  -3.7331  -3.7242  -3.7008  -3.6281  -3.6200
    -3.6155  -3.5823  -3.5433  -3.5391  -3.5357  -3.5351  -3.5328  -3.5134
    -3.4894  -3.4876  -3.4672  -3.4625  -3.4577  -3.4526  -3.4509  -3.4478
    -3.4218  -3.4183  -3.4178  -3.4120  -3.4092  -3.4064  -3.4042  -3.3965
    -3.3839  -3.3825  -3.3656  -3.3602  -3.3566  -3.3543  -3.3466  -3.3363
    -3.2932  -3.2883  -3.2833  -3.2818  -3.2785  -3.2767  -3.2757  -3.2736
    -3.2545  -3.2372  -3.2310  -3.2287  -3.2237  -3.2179  -3.2160  -3.2119
    -3.2111  -3.2085  -3.1870  -3.1829  -3.1804  -3.1724  -3.1708  -3.1659
    -3.1615  -3.1482  -3.1460  -3.1426  -3.1345  -3.1260  -3.1183  -3.1112
    -3.1102  -3.1085  -3.1002  -3.0958  -3.0958  -3.0913  -3.0882  -3.0674
    -3.0347  -3.0239  -3.0119  -3.0069  -3.0029  -2.9992  -2.9923  -2.9744
    -2.9614  -2.9584  -2.9582  -2.9565  -2.9546  -2.9534  -2.9510  -2.9456
    -2.9436  -2.9379  -2.9353  -2.9255  -2.9236  -2.9195  -2.9128  -2.9117
    -2.9091  -2.9058  -2.8998  -2.8975  -2.8907  -2.8819  -2.8814  -2.8780
    -2.8767  -2.8713  -2.8642  -2.8608  -2.8577  -2.8363  -2.8352  -2.8236
    -2.8201  -2.8155  -2.8112  -2.8065  -2.7930  -2.7474  -2.7297  -2.7211
    -2.7190  -2.7147  -2.6576  -2.6458  -2.6380  -2.6219  -2.5501  -2.5416
    -2.5257  -2.5113  -2.5076  -2.4921  -2.4794  -2.4638  -2.4619  -2.4604
    -2.4521  -2.4372  -2.4259  -2.3765  -2.3517  -2.3399  -2.3349  -2.3313
    -2.3036  -2.3002  -2.2831  -2.2813

          k =-0.5000-0.2887 0.0000 (386352 PWs)   bands (ev):

  -103.1815 -87.1875 -71.5329 -71.5082 -71.5082 -71.4609 -71.4455 -71.4400
   -71.4345 -66.5683 -66.5650 -66.5557 -66.5555 -66.5550 -66.5549 -66.5536
   -66.5536 -66.5519 -66.5486 -66.5460 -66.5450 -66.5449 -66.5443 -66.5443
   -66.5429 -66.5429 -66.5405 -66.5358 -66.5332 -66.5326 -66.5300 -66.5299
   -66.5298 -66.5298 -66.5292 -66.5292 -66.5292 -66.5292 -66.5278 -66.5278
   -66.5278 -66.5278 -66.5255 -66.5253 -66.5248 -66.5247 -66.5234 -66.5233
   -66.5193 -66.5192 -66.5192 -66.5189 -66.5185 -66.5185 -66.5185 -66.5184
   -66.5171 -66.5171 -66.5171 -66.5170 -66.5166 -66.5147 -66.5147 -66.5140
   -66.5140 -66.5126 -66.5126 -66.5116 -66.5008 -66.4931 -66.4911 -66.4828
   -66.4791 -57.4731 -57.3621 -57.3359 -53.2309 -52.9307 -52.8488 -40.8713
   -40.8621 -40.8577 -40.8577 -40.8576 -40.8573 -40.8569 -40.8569 -40.8569
   -40.8568 -40.8562 -40.8562 -40.8562 -40.8561 -40.8546 -40.8382 -40.8360
   -40.8308 -40.8307 -40.8301 -40.8301 -40.8300 -40.8293 -40.8293 -40.8187
   -40.8187 -40.8180 -40.8180 -40.8173 -40.8173 -40.8137 -40.7960 -40.7681
   -40.7680 -40.7680 -40.7680 -40.7674 -40.7673 -40.7673 -40.7673 -40.7665
   -40.7665 -40.7665 -40.7665 -40.7641 -40.7583 -40.7560 -40.7385 -40.7256
   -40.7235 -40.7130 -40.7093 -40.7093 -40.7086 -40.7085 -40.7079 -40.7079
   -40.6998 -40.6997 -40.6991 -40.6991 -40.6981 -40.6981 -40.6969 -40.6884
   -40.6884 -40.6877 -40.6877 -40.6876 -40.6870 -40.6870 -40.6856 -40.6842
   -40.6773 -40.6693 -40.6638 -40.6602 -40.6589 -40.6589 -40.6587 -40.6587
   -40.6581 -40.6581 -40.6581 -40.6581 -40.6573 -40.6573 -40.6573 -40.6573
   -40.6554 -40.6526 -40.6501 -40.6500 -40.6494 -40.6493 -40.6486 -40.6486
   -40.6453 -40.6396 -40.6383 -40.6382 -40.6379 -40.6379 -40.6378 -40.6376
   -40.6376 -40.6376 -40.6371 -40.6371 -40.6370 -40.6370 -40.6366 -40.6366
   -40.6363 -40.6363 -40.6363 -40.6362 -40.6342 -40.6295 -40.6291 -40.6291
   -40.6284 -40.6284 -40.6276 -40.6276 -40.6276 -40.6255 -40.6145 -40.6098
   -40.6075 -40.6075 -40.6072 -40.6071 -40.6067 -40.6066 -40.6066 -40.6066
   -40.6064 -40.6057 -40.6056 -40.6056 -40.6056 -40.6046 -40.5951 -40.5728
   -40.5726 -40.5726 -40.5725 -40.5725 -40.5719 -40.5719 -40.5719 -40.5719
   -40.5709 -40.5709 -40.5709 -40.5709 -40.5634 -40.5605 -40.5603 -40.5601
   -40.5598 -40.5597 -40.5587 -40.5587 -40.5582 -40.5450 -40.5413 -40.5409
   -40.5405 -40.5404 -40.5399 -40.5394 -40.5394 -40.5357 -40.5268 -40.5242
   -40.5241 -40.5235 -40.5234 -40.5224 -40.5224 -40.5113 -40.4936 -40.4933
   -40.4928 -40.4927 -40.4917 -40.4917 -40.4909 -40.4847 -40.4557 -19.8551
   -19.8249 -19.7917 -19.7638 -19.6931 -19.6722 -19.5900 -19.5828 -19.3982
   -19.3963 -19.3472 -19.3451 -19.2579 -19.2562 -19.1622 -19.1615 -18.8551
   -18.8077 -18.7684 -18.7003 -18.6784 -18.6668 -18.6586 -18.6574 -18.6556
   -18.6170 -18.6138 -18.5965 -18.5859 -18.5714 -18.5571 -18.5459 -18.5189
   -18.5125 -18.5015 -18.4870 -18.4828 -18.4764 -18.4662 -18.4511 -18.4282
   -18.4153 -18.4128 -18.4066 -18.4002 -18.3733 -18.3471 -18.3435 -18.3347
   -18.3111 -18.3056 -18.2852 -18.2674 -18.2493 -18.2313 -18.2054 -18.1885
   -18.1776 -18.1676 -18.1611 -18.1279 -18.1272 -18.0937 -18.0780 -18.0631
   -18.0506 -18.0476 -18.0423 -18.0393 -18.0388 -18.0338 -18.0292 -18.0128
   -18.0117 -18.0068 -18.0037 -18.0022 -17.9928 -17.9878 -17.9837 -17.9817
   -17.9782 -17.9719 -17.9706 -17.9453 -17.9423 -17.9376 -17.9348 -17.9332
   -17.9323 -17.9277 -17.9275 -17.9217 -17.9139 -17.8822 -17.8758 -17.8707
   -17.8683 -17.8594 -17.8591 -17.8276 -17.8231 -17.8150 -17.8144 -17.7843
   -17.7835 -17.7779 -17.7777 -17.7653 -17.7573 -17.7554 -17.7550 -17.7541
   -17.7541 -17.7527 -17.7488 -17.7404 -17.7380 -17.7219 -17.7191 -17.6979
   -17.6956 -17.6791 -17.6762 -17.6640 -17.6625 -17.6553 -17.6552 -11.8916
   -11.6586 -11.6504 -11.5858 -11.5630 -11.4563 -11.4543 -11.4471 -11.4336
   -11.4316 -11.4185 -11.4156 -11.4012 -11.3822 -11.3722 -11.3362 -11.3355
   -11.3235 -11.2952 -11.2844 -11.2713 -11.2589 -11.2584 -11.2483 -11.2271
   -11.2102 -11.2056 -11.1995 -11.1952 -11.1943 -11.1881 -11.1826 -11.1696
   -11.1422 -11.1405 -11.1269 -11.1214 -11.1065 -11.1052 -11.1031 -11.1028
   -11.0885 -11.0824 -11.0806 -11.0550 -11.0483 -11.0184 -11.0057 -11.0000
   -10.9899 -10.9754 -10.9237 -10.9063 -10.8850 -10.8728 -10.8693 -10.8496
   -10.8451 -10.8350 -10.8265 -10.8238 -10.7960 -10.7714 -10.7682 -10.7654
   -10.7621 -10.7503 -10.7484 -10.7479 -10.7467 -10.7459 -10.7408 -10.7328
   -10.7309 -10.7291 -10.7285 -10.7271 -10.7269 -10.7204 -10.7196 -10.7169
   -10.7042 -10.6798 -10.6795 -10.6786 -10.6769 -10.5955 -10.5815 -10.4802
   -10.4728 -10.4659 -10.4589 -10.4256 -10.4033 -10.3345 -10.3089 -10.2023
   -10.1838 -10.1212 -10.0905 -10.0743 -10.0700 -10.0521 -10.0495 -10.0260
   -10.0195 -10.0057  -9.9947  -9.9895  -9.9751  -9.9725  -9.9646  -9.9619
    -9.9541  -9.9384  -9.9284  -9.8944  -9.8724  -9.8611  -9.8579  -9.8517
    -9.8464  -9.8414  -9.8339  -9.8278  -9.8030  -9.8009  -9.7897  -9.7798
    -9.7417  -9.7298  -9.7290  -9.7122  -9.7025  -9.6993  -9.6798  -9.6680
    -9.6589  -9.6427  -9.6234  -9.6195  -9.6016  -9.5890  -9.5817  -9.5558
    -9.5517  -9.5476  -9.5188  -9.5086  -9.4841  -9.4821  -9.4795  -9.4722
    -9.4706  -9.4610  -9.4472  -9.4256  -9.4249  -9.4207  -9.4079  -9.4057
    -9.3985  -9.3932  -9.3903  -9.3704  -9.3654  -9.3644  -9.3586  -9.3164
    -9.2896  -9.2666  -9.2527  -9.2240  -9.1879  -9.1871  -9.1512  -9.1499
    -9.1387  -9.1294  -9.1163  -9.1126  -9.0942  -9.0838  -9.0755  -9.0631
    -9.0535  -9.0375  -9.0277  -9.0149  -8.9901  -8.9878  -8.9718  -8.9698
    -8.9638  -8.9614  -8.9560  -8.9246  -8.9203  -8.9110  -8.8932  -8.8856
    -8.8778  -8.8773  -8.8624  -8.8540  -8.8444  -8.8256  -8.8248  -8.8230
    -8.8218  -8.8163  -8.8134  -8.8067  -8.8064  -8.8046  -8.8006  -8.7950
    -8.7935  -8.7886  -8.7767  -8.7760  -8.7753  -8.7724  -8.7611  -8.7464
    -8.7413  -8.7282  -8.7257  -8.7248  -8.7187  -8.7185  -8.7170  -8.6990
    -8.6941  -8.6821  -8.6698  -8.6673  -8.6620  -8.6605  -8.6374  -8.6305
    -8.5875  -8.5823  -8.5688  -8.5162  -8.5095  -8.4417  -8.4370  -8.4205
    -8.3822  -8.3724  -8.3599  -8.3014  -8.2881  -8.2420  -8.2020  -8.1702
    -8.0967  -8.0635  -8.0633  -8.0549  -8.0547  -8.0435  -8.0432  -8.0388
    -8.0226  -7.9991  -7.9864  -7.9733  -7.9069  -7.9047  -7.8665  -7.8329
    -7.7862  -7.7825  -7.7773  -7.7747  -7.7568  -7.7561  -7.7546  -7.7500
    -7.7446  -7.7395  -7.7380  -7.7354  -7.7320  -7.7289  -7.7265  -7.7260
    -7.7219  -7.7172  -7.7158  -7.7119  -7.7090  -7.7053  -7.7050  -7.7009
    -7.6999  -7.6973  -7.6943  -7.6937  -7.6926  -7.6800  -7.6747  -7.6713
    -7.6668  -7.6632  -7.6570  -7.6563  -7.6475  -7.6330  -7.6318  -7.6311
    -7.6306  -7.6047  -7.6022  -7.6005  -7.6001  -7.5995  -7.5918  -7.5764
    -7.5685  -7.5665  -7.5447  -7.5438  -7.5376  -7.5359  -7.5332  -7.5289
    -7.5215  -7.5196  -7.5190  -7.4999  -7.4994  -7.4896  -7.4881  -7.4789
    -7.4771  -7.4754  -7.3982  -7.3932  -7.3910  -7.3860  -7.3722  -7.3503
    -7.3251  -7.2697  -7.2037  -7.1501  -7.1312  -7.1080  -7.1030  -7.1011
    -7.0963  -7.0697  -7.0578  -7.0504  -7.0375  -7.0360  -7.0238  -6.9998
    -6.9893  -6.9774  -6.9572  -6.9562  -6.9459  -6.9351  -6.9192  -6.9140
    -6.9013  -6.8725  -6.8623  -6.8481  -6.8362  -6.8236  -6.8135  -6.8088
    -6.7988  -6.7894  -6.7873  -6.7617  -6.7544  -6.7318  -6.7162  -6.7022
    -6.6868  -6.6298  -6.6263  -6.6129  -6.5870  -6.5775  -6.5555  -6.5508
    -6.5457  -6.5449  -6.5408  -6.5399  -6.5329  -6.5296  -6.5240  -6.5230
    -6.5207  -6.5174  -6.5147  -6.5145  -6.5142  -6.5133  -6.4779  -6.4522
    -6.4210  -6.4069  -6.3652  -6.3431  -6.3065  -6.2850  -6.2642  -6.2629
    -6.2609  -6.2475  -6.2291  -6.2221  -6.2165  -6.2152  -6.2131  -6.2118
    -6.2083  -6.2070  -6.1934  -6.1860  -6.1715  -6.1676  -6.1640  -6.1439
    -6.1372  -6.1363  -6.1343  -6.1327  -6.0651  -5.9411  -5.9339  -5.9059
    -5.8881  -5.8527  -5.8309  -5.8071  -5.7916  -5.7788  -5.7780  -5.7626
    -5.6253  -5.6063  -5.5318  -5.5256  -5.4338  -5.3881  -5.3223  -5.2050
    -5.0144  -4.5717  -4.0293  -4.0259  -4.0198  -4.0067  -3.8750  -3.8666
    -3.8560  -3.8507  -3.8405  -3.8077  -3.7770  -3.7764  -3.7618  -3.7599
    -3.7457  -3.7440  -3.7335  -3.7330  -3.7242  -3.7007  -3.6280  -3.6199
    -3.6155  -3.5823  -3.5432  -3.5391  -3.5356  -3.5351  -3.5327  -3.5134
    -3.4894  -3.4876  -3.4671  -3.4625  -3.4576  -3.4525  -3.4508  -3.4477
    -3.4218  -3.4183  -3.4178  -3.4120  -3.4092  -3.4064  -3.4042  -3.3964
    -3.3839  -3.3824  -3.3656  -3.3602  -3.3566  -3.3543  -3.3466  -3.3363
    -3.2931  -3.2883  -3.2833  -3.2817  -3.2785  -3.2766  -3.2757  -3.2735
    -3.2544  -3.2372  -3.2309  -3.2286  -3.2237  -3.2178  -3.2159  -3.2118
    -3.2111  -3.2084  -3.1869  -3.1828  -3.1804  -3.1723  -3.1707  -3.1659
    -3.1615  -3.1481  -3.1459  -3.1426  -3.1345  -3.1259  -3.1183  -3.1111
    -3.1102  -3.1085  -3.1001  -3.0958  -3.0958  -3.0912  -3.0881  -3.0674
    -3.0346  -3.0238  -3.0120  -3.0069  -3.0030  -2.9993  -2.9923  -2.9745
    -2.9614  -2.9583  -2.9582  -2.9564  -2.9545  -2.9532  -2.9510  -2.9456
    -2.9428  -2.9379  -2.9358  -2.9256  -2.9236  -2.9193  -2.9132  -2.9113
    -2.9089  -2.9054  -2.8994  -2.8975  -2.8909  -2.8818  -2.8814  -2.8779
    -2.8766  -2.8713  -2.8642  -2.8608  -2.8577  -2.8362  -2.8351  -2.8232
    -2.8205  -2.8161  -2.8112  -2.8060  -2.7928  -2.7473  -2.7297  -2.7216
    -2.7199  -2.7142  -2.6577  -2.6488  -2.6427  -2.6293  -2.5512  -2.5440
[...]

     Total force =     0.009612     Total SCF correction =     0.000631
     Energy error            =      2.2E-04 Ry
     Gradient error          =      3.2E-03 Ry/Bohr

     number of scf cycles    =  29
     number of bfgs steps    =  27

     energy             old  =  -33980.2789414227 Ry
     energy             new  =  -33980.2791642073 Ry

     CASE: energy            _new < energy            _old

     new trust radius        =       0.0247257944 bohr
     new conv_thr            =       0.0000000223 Ry


ATOMIC_POSITIONS (angstrom)
Mo               0.0000119917        1.8193638619       -9.1672481230    0   0   0
Mo               1.5756136568        0.9097075315       -3.0554901653    0   0   0
S                0.0000188998        1.8193822938       -4.6232556019    0   0   0
S                1.5756321638        0.9096773839       -7.6014065489    0   0   0
S                1.5756326175        0.9096785128      -10.7330757790    0   0   0
S                0.0000189190        1.8193860094       -1.4877129945    0   0   0
Mo              -0.0009111844        1.8199881544        3.0587411312
Mo               1.5617295969        0.9124190806        9.1667128016
S               -0.0150467651        1.8270273393        7.5956868602
S                1.5747253151        0.9100604976        4.6259344525
S                1.5751003387        0.9101946894        1.4908694423
S               -0.0207191588        1.8075933789       10.7383486376
Mo              -1.5756053507        4.5484193819       -9.1672481230    0   0   0
Mo               0.0000378379        3.6387394919       -3.0554952701    0   0   0
S               -1.5755913433        4.5484363582       -4.6232494962    0   0   0
S                0.0000148214        3.6387329039       -7.6014065489    0   0   0
S                0.0000152751        3.6387340328      -10.7330757790    0   0   0
S               -1.5755906502        4.5484413613       -1.4877305502    0   0   0
Mo              -1.5763731935        4.5490535880        3.0588383892
Mo              -0.0370527221        3.6306717880        9.1768123191
S               -1.6015905913        4.5630314890        7.6165267345
S               -0.0006834927        3.6397605470        4.6266949208
S               -0.0007992028        3.6391889054        1.4908060846
S               -1.5930801345        4.5492313389       10.7560140797
Mo              -3.1512226931        7.2774749019       -9.1672481230    0   0   0
Mo              -1.5755910988        6.3678216792       -3.0555115988    0   0   0
S               -3.1512162438        7.2774954350       -4.6232578178    0   0   0
S               -1.5756025210        6.3677884239       -7.6014065489    0   0   0
S               -1.5756020673        6.3677895528      -10.7330757790    0   0   0
S               -3.1512127704        7.2774877076       -1.4877200710    0   0   0
Mo              -3.1515148403        7.2777219147        3.0586979966
Mo              -1.5985543499        6.3726192468        9.2027424428
S               -3.1557512981        7.2800076826        7.6142195081
S               -1.5755991993        6.3683954421        4.6270959437
S               -1.5760079160        6.3681465088        1.4908196700
S               -3.1813349745        7.2900198380       10.7550319602
Mo              -4.7268400355       10.0065304219       -9.1672481230    0   0   0
Mo              -3.1512405618        9.0968403586       -3.0554816746    0   0   0
S               -4.7268341792       10.0065523623       -4.6232463762    0   0   0
S               -3.1512198634        9.0968439439       -7.6014065489    0   0   0
S               -3.1512194097        9.0968450728      -10.7330757790    0   0   0
S               -4.7268370797       10.0065537885       -1.4877176751    0   0   0
Mo              -4.7273418715       10.0068484034        3.0583535161
Mo              -3.1629249791        9.1036507758        9.1777687030
S               -4.7319062517       10.0095025685        7.6000118635
S               -3.1516260581        9.0971068308        4.6263264250
S               -3.1515586310        9.0970676457        1.4907272317
S               -4.7407144796       10.0145863047       10.7404650084
Mo               3.1512517547        1.8193638619       -9.1672481230    0   0   0
Mo               4.7269020221        0.9097289540       -3.0554823951    0   0   0
S                3.1512612351        1.8193882564       -4.6232320683    0   0   0
S                4.7268719268        0.9096773839       -7.6014065489    0   0   0
S                4.7268723805        0.9096785128      -10.7330757790    0   0   0
S                3.1512592485        1.8193890201       -1.4877261251    0   0   0
Mo               3.1506898091        1.8199128294        3.0588573141
Mo               4.7102367247        0.9161996027        9.1783026510
S                3.1394518444        1.8113621541        7.5931898444
S                4.7269213167        0.9101615258        4.6260786283
S                4.7261381841        0.9099165613        1.4906803814
S                3.1346187481        1.8180102881       10.7381233579
Mo               1.5756344123        4.5484193819       -9.1672481230    0   0   0
Mo               3.1512756394        3.6387769522       -3.0554814834    0   0   0
S                1.5756504879        4.5484423799       -4.6232390542    0   0   0
S                3.1512545844        3.6387329039       -7.6014065489    0   0   0
S                3.1512550381        3.6387340328      -10.7330757790    0   0   0
S                1.5756466253        4.5484431864       -1.4877251801    0   0   0
Mo               1.5748683936        4.5491023951        3.0584773163
Mo               3.1418273339        3.6275131071        9.1592142919
S                1.5492668290        4.5856228762        7.6462302860
S                3.1502426065        3.6397397474        4.6269776434
S                3.1505630317        3.6390014058        1.4907277644
S                1.5539613252        4.3966028841       10.7929123242
Mo               0.0000170699        7.2774749019       -9.1672481230    0   0   0
Mo               1.5756764447        6.3678236689       -3.0554877708    0   0   0
S                0.0000381981        7.2774979204       -4.6232454413    0   0   0
S                1.5756372420        6.3677884239       -7.6014065489    0   0   0
S                1.5756376957        6.3677895528      -10.7330757790    0   0   0
S                0.0000328088        7.2774946042       -1.4877307940    0   0   0
Mo              -0.0003365346        7.2777081119        3.0585447375
Mo               1.5642164955        6.3744285518        9.2333239553
S                0.0039301209        7.2752629957        7.6679532102
S                1.5749651869        6.3682058145        4.6267284389
S                1.5750622546        6.3681506987        1.4903675929
S               -0.1085484674        7.3402005886       10.8521815293
Mo              -1.5756002725       10.0065304219       -9.1672481230    0   0   0
Mo               0.0000873425        9.0968676911       -3.0554912329    0   0   0
S               -1.5755883952       10.0065504530       -4.6232240150    0   0   0
S                0.0000198996        9.0968439439       -7.6014065489    0   0   0
S                0.0000203533        9.0968450728      -10.7330757790    0   0   0
S               -1.5755859047       10.0065492576       -1.4877362381    0   0   0
Mo              -1.5759351524       10.0067027563        3.0586982367
Mo              -0.0155966081        9.1143754502        9.2027455135
S               -1.5800123491       10.0092546727        7.6142195813
S               -0.0004796594        9.0965796868        4.6270975604
S               -0.0004672999        9.0970607366        1.4908214225
S               -1.6014788499       10.0264048179       10.7550334226
Mo               6.3024915177        1.8193638619       -9.1672481230    0   0   0
Mo               7.8781001445        0.9096521684       -3.0554919963    0   0   0
S                6.3025008696        1.8193826232       -4.6232480596    0   0   0
S                7.8781116898        0.9096773839       -7.6014065489    0   0   0
S                7.8781121435        0.9096785128      -10.7330757790    0   0   0
S                6.3025042007        1.8193849068       -1.4877147524    0   0   0
Mo               6.3018557039        1.8199948904        3.0580106879
Mo               7.8591479401        0.9225902563        9.1879238698
S                6.2880361862        1.8339006867        7.6181443813
S                7.8769562119        0.9104278086        4.6263192428
S                7.8775402865        0.9099397913        1.4905244329
S                6.2801613307        1.8286056211       10.7573738356
Mo               4.7268741753        4.5484193819       -9.1672481230    0   0   0
Mo               6.3024679138        3.6387501714       -3.0554895197    0   0   0
S                4.7268748770        4.5484386753       -4.6232519432    0   0   0
S                6.3024943474        3.6387329039       -7.6014065489    0   0   0
S                6.3024948011        3.6387340328      -10.7330757790    0   0   0
S                4.7268770533        4.5484432419       -1.4877137856    0   0   0
Mo               4.7259987277        4.5489530732        3.0585725297
Mo               6.2807510046        3.6513333784        9.1981546863
S                4.7186287587        4.5532214940        7.6101913675
S                6.3015681058        3.6392981319        4.6259633246
S                6.3015606430        3.6393010184        1.4900910630
S                4.6631582465        4.5852534377       10.7544413163
Mo               3.1512568329        7.2774749019       -9.1672481230    0   0   0
Mo               4.7268384135        6.3678043337       -3.0554959052    0   0   0
S                3.1512606125        7.2774972547       -4.6232589675    0   0   0
S                4.7268770050        6.3677884239       -7.6014065489    0   0   0
S                4.7268774587        6.3677895528      -10.7330757790    0   0   0
S                3.1512629079        7.2774963749       -1.4877081835    0   0   0
Mo               3.1503075262        7.2778401167        3.0584780928
Mo               4.7319191363        6.3816311963        9.1592019452
S                3.1058908932        7.2817768648        7.6462314635
S                4.7255246959        6.3682044857        4.6269788773
S                4.7263251307        6.3682978545        1.4907296252
S                3.2719450621        7.3722129483       10.7929171298
Mo               1.5756394905       10.0065304219       -9.1672481230    0   0   0
Mo               3.1512330605        9.0968514907       -3.0554878870    0   0   0
S                1.5756499830       10.0065443759       -4.6232632674    0   0   0
S                3.1512596626        9.0968439439       -7.6014065489    0   0   0
S                3.1512601163        9.0968450728      -10.7330757790    0   0   0
S                1.5756503041       10.0065459699       -1.4877044377    0   0   0
Mo               1.5747316289       10.0069200695        3.0588398849
Mo               3.1397464175        9.1330436285        9.1768186539
S                1.5500364619       10.0217954484        7.6165292269
S                3.1500482394        9.0969782376        4.6266976341
S                3.1504842608        9.0973636712        1.4908079599
S                1.5662400566       10.0213280704       10.7560181470
Mo               9.4537312807        1.8193638619       -9.1672481230    0   0   0
Mo              11.0293863460        0.9096952246       -3.0554894007    0   0   0
S                9.4537395970        1.8193770750       -4.6232328036    0   0   0
S               11.0293514528        0.9096773839       -7.6014065489    0   0   0
S               11.0293519066        0.9096785128      -10.7330757790    0   0   0
S                9.4537393632        1.8193794783       -1.4877366147    0   0   0
Mo               9.4527712893        1.8199467234        3.0584575418
Mo              11.0143354808        0.9183911505        9.1639261816
S                9.4263961996        1.8351908006        7.6119581611
S               11.0279539152        0.9105124676        4.6265675234
S               11.0286810919        0.9100920805        1.4908730551
S                9.4435241782        1.8253028915       10.7473162040
Mo               7.8781139383        4.5484193819       -9.1672481230    0   0   0
Mo               9.4537539161        3.6387607911       -3.0554933032    0   0   0
S                7.8781175448        4.5484378232       -4.6232366318    0   0   0
S                9.4537341104        3.6387329039       -7.6014065489    0   0   0
S                9.4537345641        3.6387340328      -10.7330757790    0   0   0
S                7.8781194018        4.5484411585       -1.4877377057    0   0   0
Mo               7.8772745457        4.5486968135        3.0580087117
Mo               9.4331076073        3.6487696828        9.1879216016
S                7.8583366099        4.5537355817        7.6181399965
S                9.4525316467        3.6394027348        4.6263169448
S                9.4532454632        3.6391389684        1.4905196216
S                7.8589822455        4.5632081032       10.7573728540
Mo               6.3024965959        7.2774749019       -9.1672481230    0   0   0
Mo               7.8781361655        6.3678242352       -3.0555014130    0   0   0
S                6.3024973331        7.2774953556       -4.6232392528    0   0   0
S                7.8781167680        6.3677884239       -7.6014065489    0   0   0
S                7.8781172217        6.3677895528      -10.7330757790    0   0   0
S                6.3024989866        7.2774929744       -1.4877349119    0   0   0
Mo               6.3017654305        7.2777291447        3.0588585705
Mo               7.8641890953        6.3790029867        9.1783001296
S                6.3035626356        7.2917638167        7.5931862699
S                7.8777480793        6.3675451772        4.6260783542
S                7.8775675956        6.3683475795        1.4906785208
S                6.2953886399        7.2926215494       10.7381173200
Mo               4.7268792535       10.0065304219       -9.1672481230    0   0   0
Mo               6.3025111524        9.0968738021       -3.0554915260    0   0   0
S                4.7268840634       10.0065452125       -4.6232380477    0   0   0
S                6.3024994256        9.0968439439       -7.6014065489    0   0   0
S                6.3024998793        9.0968450728      -10.7330757790    0   0   0
S                4.7268847312       10.0065459141       -1.4877283294    0   0   0
Mo               4.7259035207       10.0070587555        3.0587424482
Mo               6.2932162662        9.1075807320        9.1667120266
S                4.7127499464       10.0158039696        7.5956891834
S                6.3017412656        9.0974807652        4.6259355221
S                6.3018124991        9.0970877344        1.4908681876
S                4.7267517142       10.0304370061       10.7383517261
Pt               1.6470289624        6.3266172123       12.0096716697
Pd               3.9159813371        5.0170029076       12.8333170742



     Writing config-only to output data dir ./outdir/pwscf.save/ :
     XML data file
     NEW-OLD atomic charge density approx. for the potential

     negative rho (up, down):  9.143E-04 0.000E+00

     total cpu time spent up to now is   251857.6 secs

     Self-consistent Calculation

     iteration #  1     ecut=    77.00 Ry     beta= 0.20
     Davidson diagonalization with overlap
     ethr =  1.00E-06,  avg # of iterations = 14.8

     Threshold (ethr) on eigenvalues was too large:
     Diagonalizing with lowered threshold

     Davidson diagonalization with overlap
     ethr =  5.50E-08,  avg # of iterations = 13.5

     negative rho (up, down):  9.131E-04 0.000E+00

     total cpu time spent up to now is   253360.2 secs

     total energy              =  -33980.28004854 Ry
     estimated scf accuracy    <       0.00078899 Ry

     iteration #  2     ecut=    77.00 Ry     beta= 0.20
     Davidson diagonalization with overlap
     ethr =  4.60E-08,  avg # of iterations = 14.0

     negative rho (up, down):  9.122E-04 0.000E+00

     total cpu time spent up to now is   253863.7 secs

     total energy              =  -33980.27998193 Ry
     estimated scf accuracy    <       0.00052170 Ry

     iteration #  3     ecut=    77.00 Ry     beta= 0.20
     Davidson diagonalization with overlap
     ethr =  3.04E-08,  avg # of iterations =  4.2

     negative rho (up, down):  9.115E-04 0.000E+00

     total cpu time spent up to now is   254264.6 secs

     total energy              =  -33980.27966300 Ry
     estimated scf accuracy    <       0.00007752 Ry

     iteration #  4     ecut=    77.00 Ry     beta= 0.20
     Davidson diagonalization with overlap
     ethr =  4.52E-09,  avg # of iterations = 17.8

     negative rho (up, down):  9.110E-04 0.000E+00

     total cpu time spent up to now is   255070.9 secs

     total energy              =  -33980.27959992 Ry
     estimated scf accuracy    <       0.00002903 Ry

     iteration #  5     ecut=    77.00 Ry     beta= 0.20
     Davidson diagonalization with overlap
     ethr =  1.69E-09,  avg # of iterations = 12.8

     negative rho (up, down):  9.106E-04 0.000E+00

     total cpu time spent up to now is   255567.2 secs

     total energy              =  -33980.27951366 Ry
     estimated scf accuracy    <       0.00002100 Ry

     iteration #  6     ecut=    77.00 Ry     beta= 0.20
     Davidson diagonalization with overlap
     ethr =  1.23E-09,  avg # of iterations =  6.0

     negative rho (up, down):  9.103E-04 0.000E+00

     total cpu time spent up to now is   255988.6 secs

     total energy              =  -33980.27939703 Ry
     estimated scf accuracy    <       0.00001908 Ry

     iteration #  7     ecut=    77.00 Ry     beta= 0.20
     Davidson diagonalization with overlap
     ethr =  1.11E-09,  avg # of iterations =  8.0

     negative rho (up, down):  9.102E-04 0.000E+00

     total cpu time spent up to now is   256453.7 secs

     total energy              =  -33980.27936192 Ry
     estimated scf accuracy    <       0.00000952 Ry

     iteration #  8     ecut=    77.00 Ry     beta= 0.20
     Davidson diagonalization with overlap
     ethr =  5.55E-10,  avg # of iterations =  9.5

     negative rho (up, down):  9.101E-04 0.000E+00

     total cpu time spent up to now is   256996.2 secs

     total energy              =  -33980.27935207 Ry
     estimated scf accuracy    <       0.00000368 Ry

     iteration #  9     ecut=    77.00 Ry     beta= 0.20
     Davidson diagonalization with overlap
     ethr =  2.15E-10,  avg # of iterations =  9.2

     negative rho (up, down):  9.102E-04 0.000E+00

     total cpu time spent up to now is   257552.7 secs

     total energy              =  -33980.27933958 Ry
     estimated scf accuracy    <       0.00000208 Ry

     iteration # 10     ecut=    77.00 Ry     beta= 0.20
     Davidson diagonalization with overlap
     ethr =  1.21E-10,  avg # of iterations = 10.8

     negative rho (up, down):  9.102E-04 0.000E+00

     total cpu time spent up to now is   258068.3 secs

     total energy              =  -33980.27933736 Ry
     estimated scf accuracy    <       0.00000106 Ry

     iteration # 11     ecut=    77.00 Ry     beta= 0.20
     Davidson diagonalization with overlap
     ethr =  6.20E-11,  avg # of iterations = 11.8

     negative rho (up, down):  9.101E-04 0.000E+00

     total cpu time spent up to now is   258603.0 secs

     total energy              =  -33980.27933789 Ry
     estimated scf accuracy    <       0.00000022 Ry

     iteration # 12     ecut=    77.00 Ry     beta= 0.20
     Davidson diagonalization with overlap
