
     Program PWSCF v.7.3 starts on 16Mar2024 at  3:20:55 

     This program is part of the open-source Quantum ESPRESSO suite
     for quantum simulation of materials; please cite
         "P. Giannozzi et al., J. Phys.:Condens. Matter 21 395502 (2009);
         "P. Giannozzi et al., J. Phys.:Condens. Matter 29 465901 (2017);
         "P. Giannozzi et al., J. Chem. Phys. 152 154105 (2020);
          URL http://www.quantum-espresso.org", 
     in publications or presentations arising from this work. More details at
     http://www.quantum-espresso.org/quote

     Parallel version (MPI & OpenMP), running on      36 processor cores
     Number of MPI processes:                36
     Threads/MPI process:                     1

     MPI processes distributed on     1 nodes
     553919 MiB available memory on the printing compute node when the environment starts
 
     Waiting for input...
     Reading input from standard input
Warning: card &CELL ignored
Warning: card / ignored

     Current dimensions of program PWSCF are:
     Max number of different atomic species (ntypx) = 10
     Max number of k-points (npk) =  40000
     Max angular momentum in pseudopotentials (lmaxx) =  4
     file Mo.pbe-spn-kjpaw_psl.1.0.0.UPF: wavefunction(s)  4S 4D renormalized
     file S.pbe-n-kjpaw_psl.1.0.0.UPF: wavefunction(s)  3S 3P renormalized
     file Pd.pbe-spn-kjpaw_psl.1.0.0.UPF: wavefunction(s)  4S 5S 4D renormalized
     file Pt.pbe-spfn-kjpaw_psl.1.0.0.UPF: wavefunction(s)  5P 4F renormalized
 
     R & G space division:  proc/nbgrp/npool/nimage =      36
     Subspace diagonalization in iterative solution of the eigenvalue problem:
     one sub-group per band group will be used
     scalapack distributed-memory algorithm (size of sub-group:  6*  6 procs)

 
     Parallelization info
     --------------------
     sticks:   dense  smooth     PW     G-vecs:    dense   smooth      PW
     Min         585     334     89               198743    85850   11735
     Max         586     335     90               198750    85861   11748
     Sum       21073   12049   3205              7154885  3090769  422587
 
     Using Slab Decomposition
 


     bravais-lattice index     =            0
     lattice parameter (alat)  =      23.8199  a.u.
     unit-cell volume          =   33861.0370 (a.u.)^3
     number of atoms/cell      =          194
     number of atomic types    =            4
     number of electrons       =      1714.00
     number of Kohn-Sham states=         1028
     kinetic-energy cutoff     =      77.0000  Ry
     charge density cutoff     =     539.0000  Ry
     scf convergence threshold =      1.0E-06
     mixing beta               =       0.2000
     number of iterations used =            8  plain     mixing
     energy convergence thresh.=      1.0E-04
     force convergence thresh. =      1.0E-03
     Exchange-correlation= SLA  PW   PBX  PBC
                           (   1   4   3   4   0   0   0)
     nstep                     =         1000


     Effective Screening Medium Method
     =================================
     Boundary Conditions: Vacuum-Slab-Vacuum
     total charge in unit cell        =   0.0000
     grid points for fit at edges     =        4 
 

     celldm(1)=  23.819920  celldm(2)=   0.000000  celldm(3)=   0.000000
     celldm(4)=   0.000000  celldm(5)=   0.000000  celldm(6)=   0.000000

     crystal axes: (cart. coord. in units of alat)
               a(1) = (   1.000000   0.000000   0.000000 )  
               a(2) = (  -0.499999   0.866026   0.000000 )  
               a(3) = (   0.000000   0.000000   2.893000 )  

     reciprocal axes: (cart. coord. in units 2 pi/alat)
               b(1) = (  1.000000  0.577349  0.000000 )  
               b(2) = (  0.000000  1.154700  0.000000 )  
               b(3) = (  0.000000  0.000000  0.345662 )  


     PseudoPot. # 1 for Mo read from file:
     ./pseudo/Mo.pbe-spn-kjpaw_psl.1.0.0.UPF
     MD5 check sum: 317bf72632116215fd98f72de1686f13
     Pseudo is Projector augmented-wave + core cor, Zval = 14.0
     Generated using 'atomic' code by A. Dal Corso  v.7.2
     Shape of augmentation charge: PSQ
     Using radial grid of 1229 points,  6 beta functions with: 
                l(1) =   0
                l(2) =   0
                l(3) =   1
                l(4) =   1
                l(5) =   2
                l(6) =   2
     Q(r) pseudized with 0 coefficients 


     PseudoPot. # 2 for S  read from file:
     ./pseudo/S.pbe-n-kjpaw_psl.1.0.0.UPF
     MD5 check sum: 8b7b5302570d38d5e87fed6a1065abda
     Pseudo is Projector augmented-wave + core cor, Zval =  6.0
     Generated using 'atomic' code by A. Dal Corso  v.7.2
     Shape of augmentation charge: PSQ
     Using radial grid of 1151 points,  6 beta functions with: 
                l(1) =   0
                l(2) =   0
                l(3) =   1
                l(4) =   1
                l(5) =   2
                l(6) =   2
     Q(r) pseudized with 0 coefficients 


     PseudoPot. # 3 for Pd read from file:
     ./pseudo/Pd.pbe-spn-kjpaw_psl.1.0.0.UPF
     MD5 check sum: a60571a671f2502b8a6a4569d20a6edb
     Pseudo is Projector augmented-wave + core cor, Zval = 18.0
     Generated using 'atomic' code by A. Dal Corso  v.7.2
     Shape of augmentation charge: PSQ
     Using radial grid of 1235 points,  6 beta functions with: 
                l(1) =   0
                l(2) =   0
                l(3) =   1
                l(4) =   1
                l(5) =   2
                l(6) =   2
     Q(r) pseudized with 0 coefficients 


     PseudoPot. # 4 for Pt read from file:
     ./pseudo/Pt.pbe-spfn-kjpaw_psl.1.0.0.UPF
     MD5 check sum: 620096ebf4e6ebacc94de60fd67efcb5
     Pseudo is Projector augmented-wave + core cor, Zval = 32.0
     Generated using 'atomic' code by A. Dal Corso  v.7.2
     Shape of augmentation charge: PSQ
     Using radial grid of 1277 points,  8 beta functions with: 
                l(1) =   0
                l(2) =   0
                l(3) =   1
                l(4) =   1
                l(5) =   2
                l(6) =   2
                l(7) =   3
                l(8) =   3
     Q(r) pseudized with 0 coefficients 


     atomic species   valence    mass     pseudopotential
     Mo               14.00    95.95000     Mo( 1.00)
     S                 6.00    32.06000     S ( 1.00)
     Pd               18.00   106.42000     Pd( 1.00)
     Pt               32.00   195.08400     Pt( 1.00)

     No symmetry found



   Cartesian axes

     site n.     atom                  positions (alat units)
         1        Mo     tau(   1) = (   0.0000010   0.1443372  -0.7272732  )
         2        Mo     tau(   2) = (   0.1249995   0.0721706  -0.2424038  )
         3        S      tau(   3) = (   0.0000015   0.1443386  -0.3667807  )
         4        S      tau(   4) = (   0.1250010   0.0721682  -0.6030489  )
         5        S      tau(   5) = (   0.1250010   0.0721683  -0.8514963  )
         6        S      tau(   6) = (   0.0000015   0.1443389  -0.1180260  )
         7        Mo     tau(   7) = (   0.0000007   0.1443589   0.2424205  )
         8        Mo     tau(   8) = (   0.1250041   0.0720322   0.7266168  )
         9        S      tau(   9) = (   0.0000742   0.1444871   0.6020949  )
        10        S      tau(  10) = (   0.1250024   0.0721701   0.3667478  )
        11        S      tau(  11) = (   0.1250035   0.0721876   0.1180348  )
        12        S      tau(  12) = (  -0.0004118   0.1430864   0.8514340  )
        13        Mo     tau(  13) = (  -0.1249989   0.3608437  -0.7272732  )
        14        Mo     tau(  14) = (   0.0000030   0.2886752  -0.2424042  )
        15        S      tau(  15) = (  -0.1249977   0.3608450  -0.3667802  )
        16        S      tau(  16) = (   0.0000012   0.2886747  -0.6030489  )
        17        S      tau(  17) = (   0.0000012   0.2886748  -0.8514963  )
        18        S      tau(  18) = (  -0.1249977   0.3608454  -0.1180274  )
        19        Mo     tau(  19) = (  -0.1249729   0.3608584   0.2424608  )
        20        Mo     tau(  20) = (  -0.0007193   0.2876626   0.7275440  )
        21        S      tau(  21) = (  -0.1251115   0.3607789   0.6027257  )
        22        S      tau(  22) = (   0.0000621   0.2887099   0.3668377  )
        23        S      tau(  23) = (  -0.0000096   0.2886902   0.1180527  )
        24        S      tau(  24) = (  -0.1254673   0.3605734   0.8517408  )
        25        Mo     tau(  25) = (  -0.2499987   0.5773502  -0.7272732  )
        26        Mo     tau(  26) = (  -0.1249977   0.5051839  -0.2424055  )
        27        S      tau(  27) = (  -0.2499981   0.5773518  -0.3667809  )
        28        S      tau(  28) = (  -0.1249986   0.5051812  -0.6030489  )
        29        S      tau(  29) = (  -0.1249986   0.5051813  -0.8514963  )
        30        S      tau(  30) = (  -0.2499979   0.5773512  -0.1180266  )
        31        Mo     tau(  31) = (  -0.2499795   0.5773389   0.2424205  )
        32        Mo     tau(  32) = (  -0.1262356   0.5050639   0.7275441  )
        33        S      tau(  33) = (  -0.2498323   0.5773390   0.6020948  )
        34        S      tau(  34) = (  -0.1249376   0.5052159   0.3668377  )
        35        S      tau(  35) = (  -0.1249905   0.5051638   0.1180531  )
        36        S      tau(  36) = (  -0.2512883   0.5776183   0.8514340  )
        37        Mo     tau(  37) = (  -0.3749985   0.7938567  -0.7272732  )
        38        Mo     tau(  38) = (  -0.2500001   0.7216874  -0.2424031  )
        39        S      tau(  39) = (  -0.3749980   0.7938584  -0.3667800  )
        40        S      tau(  40) = (  -0.2499984   0.7216877  -0.6030489  )
        41        S      tau(  41) = (  -0.2499984   0.7216878  -0.8514963  )
        42        S      tau(  42) = (  -0.3749982   0.7938585  -0.1180264  )
        43        Mo     tau(  43) = (  -0.3749962   0.7938568   0.2423838  )
        44        Mo     tau(  44) = (  -0.2501148   0.7217588   0.7266170  )
        45        S      tau(  45) = (  -0.3749945   0.7938590   0.6021274  )
        46        S      tau(  46) = (  -0.2499958   0.7216877   0.3667488  )
        47        S      tau(  47) = (  -0.2499810   0.7216794   0.1180323  )
        48        S      tau(  48) = (  -0.3749953   0.7938585   0.8511588  )
        49        Mo     tau(  49) = (   0.2500010   0.1443372  -0.7272732  )
        50        Mo     tau(  50) = (   0.3750034   0.0721723  -0.2424032  )
        51        S      tau(  51) = (   0.2500017   0.1443391  -0.3667788  )
        52        S      tau(  52) = (   0.3750010   0.0721682  -0.6030489  )
        53        S      tau(  53) = (   0.3750010   0.0721683  -0.8514963  )
        54        S      tau(  54) = (   0.2500016   0.1443391  -0.1180271  )
        55        Mo     tau(  55) = (   0.2500054   0.1443594   0.2424211  )
        56        Mo     tau(  56) = (   0.3749279   0.0721263   0.7263991  )
        57        S      tau(  57) = (   0.2499344   0.1444864   0.6020948  )
        58        S      tau(  58) = (   0.3750316   0.0721860   0.3667597  )
        59        S      tau(  59) = (   0.3749924   0.0721644   0.1180346  )
        60        S      tau(  60) = (   0.2504199   0.1430865   0.8514340  )
        61        Mo     tau(  61) = (   0.1250012   0.3608437  -0.7272732  )
        62        Mo     tau(  62) = (   0.2500029   0.2886782  -0.2424031  )
        63        S      tau(  63) = (   0.1250024   0.3608455  -0.3667794  )
        64        S      tau(  64) = (   0.2500012   0.2886747  -0.6030489  )
        65        S      tau(  65) = (   0.2500012   0.2886748  -0.8514963  )
        66        S      tau(  66) = (   0.1250021   0.3608455  -0.1180270  )
        67        Mo     tau(  67) = (   0.1250038   0.3608653   0.2423963  )
        68        Mo     tau(  68) = (   0.2507284   0.2876625   0.7275438  )
        69        S      tau(  69) = (   0.1250046   0.3627170   0.6061948  )
        70        S      tau(  70) = (   0.2499461   0.2887116   0.3668373  )
        71        S      tau(  71) = (   0.2500171   0.2886900   0.1180543  )
        72        S      tau(  72) = (   0.1250046   0.3519103   0.8557806  )
        73        Mo     tau(  73) = (   0.0000014   0.5773502  -0.7272732  )
        74        Mo     tau(  74) = (   0.1250045   0.5051840  -0.2424036  )
        75        S      tau(  75) = (   0.0000030   0.5773520  -0.3667799  )
        76        S      tau(  76) = (   0.1250014   0.5051812  -0.6030489  )
        77        S      tau(  77) = (   0.1250014   0.5051813  -0.8514963  )
        78        S      tau(  78) = (   0.0000026   0.5773517  -0.1180274  )
        79        Mo     tau(  79) = (   0.0000222   0.5773400   0.2423964  )
        80        Mo     tau(  80) = (   0.1250047   0.5051836   0.7321380  )
        81        S      tau(  81) = (   0.0016251   0.5764170   0.6061946  )
        82        S      tau(  82) = (   0.1250047   0.5051815   0.3667777  )
        83        S      tau(  83) = (   0.1250048   0.5051819   0.1179962  )
        84        S      tau(  84) = (  -0.0077335   0.5818202   0.8557807  )
        85        Mo     tau(  85) = (  -0.1249984   0.7938567  -0.7272732  )
        86        Mo     tau(  86) = (   0.0000069   0.7216896  -0.2424039  )
        87        S      tau(  87) = (  -0.1249975   0.7938582  -0.3667782  )
        88        S      tau(  88) = (   0.0000016   0.7216877  -0.6030489  )
        89        S      tau(  89) = (   0.0000016   0.7216878  -0.8514963  )
        90        S      tau(  90) = (  -0.1249973   0.7938582  -0.1180279  )
        91        Mo     tau(  91) = (  -0.1249774   0.7938494   0.2424207  )
        92        Mo     tau(  92) = (  -0.0005116   0.7228241   0.7275438  )
        93        S      tau(  93) = (  -0.1249026   0.7937246   0.6020948  )
        94        S      tau(  94) = (   0.0000043   0.7216209   0.3668361  )
        95        S      tau(  95) = (   0.0000226   0.7216928   0.1180549  )
        96        S      tau(  96) = (  -0.1258721   0.7948451   0.8514341  )
        97        Mo     tau(  97) = (   0.5000010   0.1443372  -0.7272732  )
        98        Mo     tau(  98) = (   0.6250001   0.0721662  -0.2424040  )
        99        S      tau(  99) = (   0.5000017   0.1443386  -0.3667801  )
       100        S      tau( 100) = (   0.6250010   0.0721682  -0.6030489  )
       101        S      tau( 101) = (   0.6250010   0.0721683  -0.8514963  )
       102        S      tau( 102) = (   0.5000020   0.1443388  -0.1180261  )
       103        Mo     tau( 103) = (   0.5000075   0.1443411   0.2423793  )
       104        Mo     tau( 104) = (   0.6250042   0.0723339   0.7270464  )
       105        S      tau( 105) = (   0.5002366   0.1444733   0.6023595  )
       106        S      tau( 106) = (   0.6250029   0.0721787   0.3667562  )
       107        S      tau( 107) = (   0.6250040   0.0721260   0.1180315  )
       108        S      tau( 108) = (   0.4998752   0.1442648   0.8512770  )
       109        Mo     tau( 109) = (   0.3750012   0.3608437  -0.7272732  )
       110        Mo     tau( 110) = (   0.4999991   0.2886761  -0.2424038  )
       111        S      tau( 111) = (   0.3750012   0.3608452  -0.3667804  )
       112        S      tau( 112) = (   0.5000012   0.2886747  -0.6030489  )
       113        S      tau( 113) = (   0.5000012   0.2886748  -0.8514963  )
       114        S      tau( 114) = (   0.3750014   0.3608455  -0.1180261  )
       115        Mo     tau( 115) = (   0.3749795   0.3608597   0.2424601  )
       116        Mo     tau( 116) = (   0.5001461   0.2885951   0.7270464  )
       117        S      tau( 117) = (   0.3751205   0.3607791   0.6027254  )
       118        S      tau( 118) = (   0.5000105   0.2886721   0.3667569  )
       119        S      tau( 119) = (   0.4999655   0.2886989   0.1180297  )
       120        S      tau( 120) = (   0.3754765   0.3605739   0.8517402  )
       121        Mo     tau( 121) = (   0.2500014   0.5773502  -0.7272732  )
       122        Mo     tau( 122) = (   0.3749983   0.5051825  -0.2424043  )
       123        S      tau( 123) = (   0.2500017   0.5773519  -0.3667810  )
       124        S      tau( 124) = (   0.3750014   0.5051812  -0.6030489  )
       125        S      tau( 125) = (   0.3750014   0.5051813  -0.8514963  )
       126        S      tau( 126) = (   0.2500018   0.5773519  -0.1180256  )
       127        Mo     tau( 127) = (   0.2499863   0.5773402   0.2423965  )
       128        Mo     tau( 128) = (   0.3762454   0.5050642   0.7275433  )
       129        S      tau( 129) = (   0.2483844   0.5764169   0.6061944  )
       130        S      tau( 130) = (   0.3749442   0.5052158   0.3668400  )
       131        S      tau( 131) = (   0.3749972   0.5051650   0.1180510  )
       132        S      tau( 132) = (   0.2577438   0.5818204   0.8557797  )
       133        Mo     tau( 133) = (   0.1250016   0.7938567  -0.7272732  )
       134        Mo     tau( 134) = (   0.2499995   0.7216883  -0.2424036  )
       135        S      tau( 135) = (   0.1250024   0.7938578  -0.3667813  )
       136        S      tau( 136) = (   0.2500016   0.7216877  -0.6030489  )
       137        S      tau( 137) = (   0.2500016   0.7216878  -0.8514963  )
       138        S      tau( 138) = (   0.1250024   0.7938579  -0.1180253  )
       139        Mo     tau( 139) = (   0.1250047   0.7938294   0.2424606  )
       140        Mo     tau( 140) = (   0.2505220   0.7228241   0.7275433  )
       141        S      tau( 141) = (   0.1250053   0.7939926   0.6027252  )
       142        S      tau( 142) = (   0.2500048   0.7216200   0.3668387  )
       143        S      tau( 143) = (   0.2499864   0.7216915   0.1180524  )
       144        S      tau( 144) = (   0.1250054   0.7944033   0.8517402  )
       145        Mo     tau( 145) = (   0.7500010   0.1443372  -0.7272732  )
       146        Mo     tau( 146) = (   0.8750038   0.0721696  -0.2424038  )
       147        S      tau( 147) = (   0.7500016   0.1443382  -0.3667789  )
       148        S      tau( 148) = (   0.8750010   0.0721682  -0.6030489  )
       149        S      tau( 149) = (   0.8750010   0.0721683  -0.8514963  )
       150        S      tau( 150) = (   0.7500016   0.1443384  -0.1180279  )
       151        Mo     tau( 151) = (   0.7499986   0.1443409   0.2423802  )
       152        Mo     tau( 152) = (   0.8750804   0.0721266   0.7263988  )
       153        S      tau( 153) = (   0.7497713   0.1444738   0.6023592  )
       154        S      tau( 154) = (   0.8749758   0.0721848   0.3667595  )
       155        S      tau( 155) = (   0.8750127   0.0721632   0.1180342  )
       156        S      tau( 156) = (   0.7501331   0.1442647   0.8512770  )
       157        Mo     tau( 157) = (   0.6250012   0.3608437  -0.7272732  )
       158        Mo     tau( 158) = (   0.7500028   0.2886769  -0.2424041  )
       159        S      tau( 159) = (   0.6250015   0.3608451  -0.3667792  )
       160        S      tau( 160) = (   0.7500012   0.2886747  -0.6030489  )
       161        S      tau( 161) = (   0.7500012   0.2886748  -0.8514963  )
       162        S      tau( 162) = (   0.6250016   0.3608454  -0.1180280  )
       163        Mo     tau( 163) = (   0.6250032   0.3608391   0.2423797  )
       164        Mo     tau( 164) = (   0.7498627   0.2885951   0.7270467  )
       165        S      tau( 165) = (   0.6250046   0.3605769   0.6023590  )
       166        S      tau( 166) = (   0.7499943   0.2886711   0.3667569  )
       167        S      tau( 167) = (   0.7500399   0.2886970   0.1180318  )
       168        S      tau( 168) = (   0.6250043   0.3609947   0.8512770  )
       169        Mo     tau( 169) = (   0.5000014   0.5773502  -0.7272732  )
       170        Mo     tau( 170) = (   0.6250029   0.5051841  -0.2424047  )
       171        S      tau( 171) = (   0.5000014   0.5773518  -0.3667794  )
       172        S      tau( 172) = (   0.6250014   0.5051812  -0.6030489  )
       173        S      tau( 173) = (   0.6250014   0.5051813  -0.8514963  )
       174        S      tau( 174) = (   0.5000016   0.5773516  -0.1180277  )
       175        Mo     tau( 175) = (   0.4999855   0.5773383   0.2424207  )
       176        Mo     tau( 176) = (   0.6250049   0.5052713   0.7263986  )
       177        S      tau( 177) = (   0.4998428   0.5773389   0.6020941  )
       178        S      tau( 178) = (   0.6250030   0.5051500   0.3667588  )
       179        S      tau( 179) = (   0.6250025   0.5051935   0.1180351  )
       180        S      tau( 180) = (   0.5012979   0.5776190   0.8514332  )
       181        Mo     tau( 181) = (   0.3750016   0.7938567  -0.7272732  )
       182        Mo     tau( 182) = (   0.5000025   0.7216901  -0.2424039  )
       183        S      tau( 183) = (   0.3750019   0.7938578  -0.3667793  )
       184        S      tau( 184) = (   0.5000016   0.7216877  -0.6030489  )
       185        S      tau( 185) = (   0.5000016   0.7216878  -0.8514963  )
       186        S      tau( 186) = (   0.3750020   0.7938579  -0.1180272  )
       187        Mo     tau( 187) = (   0.3749848   0.7938487   0.2424206  )
       188        Mo     tau( 188) = (   0.5001249   0.7217591   0.7266160  )
       189        S      tau( 189) = (   0.3749125   0.7937251   0.6020942  )
       190        S      tau( 190) = (   0.5000021   0.7216868   0.3667472  )
       191        S      tau( 191) = (   0.4999874   0.7216780   0.1180346  )
       192        S      tau( 192) = (   0.3758826   0.7948451   0.8514332  )
       193        Pd     tau( 193) = (   0.1250063   0.5051842   0.9601361  )
       194        Pt     tau( 194) = (  -0.1262202   0.5050393   0.9704117  )

     --------------------------------------------
     DFT-D3 Dispersion Correction (3-body terms):
     --------------------------------------------
       Reference C6 values for interpolation: 

         atom   Coordination number   C6
         S          0.000           268.01
         S          0.995           261.99
         S          1.990           251.62
         Mo         0.000          1691.79
         Mo         1.942          1004.01
         Mo        11.056           674.22
         Pd         0.000          1217.01
         Pd         1.863           573.90
         Pd         5.710           531.75
         Pt         0.000           782.29
         Pt         1.919           692.72
         Pt         6.667           673.75

       Values used:

         atom   Coordination number  R0_AB[au]  C6      C8
         Mo        10.208            3.547    674.22  77634.20
         Mo        10.221            3.547    674.22  77634.20
         S          3.858            3.128    251.62  12327.25
         S          3.859            3.128    251.62  12327.25
         S          3.758            3.128    251.62  12327.25
         S          3.859            3.128    251.62  12327.25
         Mo        10.220            3.547    674.22  77634.20
         Mo        10.234            3.547    674.22  77634.20
         S          3.847            3.128    251.62  12327.25
         S          3.861            3.128    251.62  12327.25
         S          3.859            3.128    251.62  12327.25
         S          3.806            3.128    251.62  12327.25
         Mo        10.208            3.547    674.22  77634.20
         Mo        10.221            3.547    674.22  77634.20
         S          3.858            3.128    251.62  12327.25
         S          3.859            3.128    251.62  12327.25
         S          3.758            3.128    251.62  12327.25
         S          3.859            3.128    251.62  12327.25
         Mo        10.221            3.547    674.22  77634.20
         Mo        10.201            3.547    674.22  77634.20
         S          3.856            3.128    251.62  12327.25
         S          3.856            3.128    251.62  12327.25
         S          3.859            3.128    251.62  12327.25
         S          4.723            3.128    251.62  12327.25
         Mo        10.208            3.547    674.22  77634.20
         Mo        10.221            3.547    674.22  77634.20
         S          3.858            3.128    251.62  12327.25
         S          3.859            3.128    251.62  12327.25
         S          3.758            3.128    251.62  12327.25
         S          3.859            3.128    251.62  12327.25
         Mo        10.220            3.547    674.22  77634.20
         Mo        10.801            3.547    674.22  77634.20
         S          3.848            3.128    251.62  12327.25
         S          3.856            3.128    251.62  12327.25
         S          3.859            3.128    251.62  12327.25
         S          4.770            3.128    251.62  12327.25
         Mo        10.208            3.547    674.22  77634.20
         Mo        10.221            3.547    674.22  77634.20
         S          3.858            3.128    251.62  12327.25
         S          3.859            3.128    251.62  12327.25
         S          3.758            3.128    251.62  12327.25
         S          3.859            3.128    251.62  12327.25
         Mo        10.219            3.547    674.22  77634.20
         Mo        10.244            3.547    674.22  77634.20
         S          3.856            3.128    251.62  12327.25
         S          3.861            3.128    251.62  12327.25
         S          3.859            3.128    251.62  12327.25
         S          3.782            3.128    251.62  12327.25
         Mo        10.208            3.547    674.22  77634.20
         Mo        10.221            3.547    674.22  77634.20
         S          3.858            3.128    251.62  12327.25
         S          3.859            3.128    251.62  12327.25
         S          3.758            3.128    251.62  12327.25
         S          3.859            3.128    251.62  12327.25
         Mo        10.220            3.547    674.22  77634.20
         Mo        10.244            3.547    674.22  77634.20
         S          3.847            3.128    251.62  12327.25
         S          3.860            3.128    251.62  12327.25
         S          3.859            3.128    251.62  12327.25
         S          3.805            3.128    251.62  12327.25
         Mo        10.208            3.547    674.22  77634.20
         Mo        10.221            3.547    674.22  77634.20
         S          3.858            3.128    251.62  12327.25
         S          3.859            3.128    251.62  12327.25
         S          3.758            3.128    251.62  12327.25
         S          3.859            3.128    251.62  12327.25
         Mo        10.222            3.547    674.22  77634.20
         Mo        10.191            3.547    674.22  77634.20
         S          3.865            3.128    251.62  12327.25
         S          3.856            3.128    251.62  12327.25
         S          3.859            3.128    251.62  12327.25
         S          4.663            3.128    251.62  12327.25
         Mo        10.208            3.547    674.22  77634.20
         Mo        10.221            3.547    674.22  77634.20
         S          3.858            3.128    251.62  12327.25
         S          3.859            3.128    251.62  12327.25
         S          3.758            3.128    251.62  12327.25
         S          3.859            3.128    251.62  12327.25
         Mo        10.222            3.547    674.22  77634.20
         Mo        10.832            3.547    674.22  77634.20
         S          3.866            3.128    251.62  12327.25
         S          3.853            3.128    251.62  12327.25
         S          3.859            3.128    251.62  12327.25
         S          5.633            3.128    251.62  12327.25
         Mo        10.208            3.547    674.22  77634.20
         Mo        10.221            3.547    674.22  77634.20
         S          3.858            3.128    251.62  12327.25
         S          3.859            3.128    251.62  12327.25
         S          3.758            3.128    251.62  12327.25
         S          3.859            3.128    251.62  12327.25
         Mo        10.220            3.547    674.22  77634.20
         Mo        10.201            3.547    674.22  77634.20
         S          3.847            3.128    251.62  12327.25
         S          3.856            3.128    251.62  12327.25
         S          3.859            3.128    251.62  12327.25
         S          3.816            3.128    251.62  12327.25
         Mo        10.208            3.547    674.22  77634.20
         Mo        10.221            3.547    674.22  77634.20
         S          3.858            3.128    251.62  12327.25
         S          3.859            3.128    251.62  12327.25
         S          3.758            3.128    251.62  12327.25
         S          3.859            3.128    251.62  12327.25
         Mo        10.220            3.547    674.22  77634.20
         Mo        10.230            3.547    674.22  77634.20
         S          3.862            3.128    251.62  12327.25
         S          3.860            3.128    251.62  12327.25
         S          3.859            3.128    251.62  12327.25
         S          3.765            3.128    251.62  12327.25
         Mo        10.208            3.547    674.22  77634.20
         Mo        10.221            3.547    674.22  77634.20
         S          3.858            3.128    251.62  12327.25
         S          3.859            3.128    251.62  12327.25
         S          3.758            3.128    251.62  12327.25
         S          3.859            3.128    251.62  12327.25
         Mo        10.221            3.547    674.22  77634.20
         Mo        10.230            3.547    674.22  77634.20
         S          3.855            3.128    251.62  12327.25
         S          3.860            3.128    251.62  12327.25
         S          3.859            3.128    251.62  12327.25
         S          3.756            3.128    251.62  12327.25
         Mo        10.208            3.547    674.22  77634.20
         Mo        10.221            3.547    674.22  77634.20
         S          3.858            3.128    251.62  12327.25
         S          3.859            3.128    251.62  12327.25
         S          3.758            3.128    251.62  12327.25
         S          3.859            3.128    251.62  12327.25
         Mo        10.222            3.547    674.22  77634.20
         Mo        10.191            3.547    674.22  77634.20
         S          3.865            3.128    251.62  12327.25
         S          3.856            3.128    251.62  12327.25
         S          3.859            3.128    251.62  12327.25
         S          4.653            3.128    251.62  12327.25
         Mo        10.208            3.547    674.22  77634.20
         Mo        10.221            3.547    674.22  77634.20
         S          3.858            3.128    251.62  12327.25
         S          3.859            3.128    251.62  12327.25
         S          3.758            3.128    251.62  12327.25
         S          3.859            3.128    251.62  12327.25
         Mo        10.221            3.547    674.22  77634.20
         Mo        10.191            3.547    674.22  77634.20
         S          3.855            3.128    251.62  12327.25
         S          3.856            3.128    251.62  12327.25
         S          3.859            3.128    251.62  12327.25
         S          3.757            3.128    251.62  12327.25
         Mo        10.208            3.547    674.22  77634.20
         Mo        10.221            3.547    674.22  77634.20
         S          3.858            3.128    251.62  12327.25
         S          3.859            3.128    251.62  12327.25
         S          3.758            3.128    251.62  12327.25
         S          3.859            3.128    251.62  12327.25
         Mo        10.220            3.547    674.22  77634.20
         Mo        10.244            3.547    674.22  77634.20
         S          3.862            3.128    251.62  12327.25
         S          3.860            3.128    251.62  12327.25
         S          3.859            3.128    251.62  12327.25
         S          3.766            3.128    251.62  12327.25
         Mo        10.208            3.547    674.22  77634.20
         Mo        10.220            3.547    674.22  77634.20
         S          3.858            3.128    251.62  12327.25
         S          3.859            3.128    251.62  12327.25
         S          3.758            3.128    251.62  12327.25
         S          3.859            3.128    251.62  12327.25
         Mo        10.220            3.547    674.22  77634.20
         Mo        10.240            3.547    674.22  77634.20
         S          3.862            3.128    251.62  12327.25
         S          3.860            3.128    251.62  12327.25
         S          3.859            3.128    251.62  12327.25
         S          3.778            3.128    251.62  12327.25
         Mo        10.208            3.547    674.22  77634.20
         Mo        10.221            3.547    674.21  77634.20
         S          3.858            3.128    251.62  12327.25
         S          3.859            3.128    251.62  12327.25
         S          3.758            3.128    251.62  12327.25
         S          3.859            3.128    251.62  12327.25
         Mo        10.220            3.547    674.22  77634.20
         Mo        10.254            3.547    674.22  77634.20
         S          3.847            3.128    251.62  12327.25
         S          3.860            3.128    251.62  12327.25
         S          3.859            3.128    251.62  12327.25
         S          3.806            3.128    251.62  12327.25
         Mo        10.208            3.547    674.22  77634.20
         Mo        10.221            3.547    674.22  77634.20
         S          3.858            3.128    251.62  12327.25
         S          3.859            3.128    251.62  12327.25
         S          3.758            3.128    251.62  12327.25
         S          3.859            3.128    251.62  12327.25
         Mo        10.220            3.547    674.22  77634.20
         Mo        10.234            3.547    674.22  77634.20
         S          3.847            3.128    251.62  12327.25
         S          3.861            3.128    251.62  12327.25
         S          3.859            3.128    251.62  12327.25
         S          3.805            3.128    251.62  12327.25
         Pd         3.999            3.168    531.81  48725.96
         Pt         3.873            3.168    692.72  72035.25

         Molecular C6 ( Ry / a.u.^6 ) =  13979851.84


     number of k points=     4  Gaussian smearing, width (Ry)=  0.0100
                       cart. coord. in units 2pi/alat
        k(    1) = (   0.0000000   0.0000000   0.0000000), wk =   0.5000000
        k(    2) = (   0.0000000  -0.5773499   0.0000000), wk =   0.5000000
        k(    3) = (  -0.5000000  -0.2886744   0.0000000), wk =   0.5000000
        k(    4) = (  -0.5000000  -0.8660242   0.0000000), wk =   0.5000000

     Dense  grid:  7154885 G-vectors     FFT dimensions: ( 180, 180, 512)

     Smooth grid:  3090769 G-vectors     FFT dimensions: ( 135, 135, 400)

     Estimated max dynamical RAM per process >       4.31 GB

     Estimated total dynamical RAM >     155.10 GB

     Initial potential from superposition of free atoms

     starting charge    1713.9389, renormalised to    1714.0000

     negative rho (up, down):  8.906E-04 0.000E+00
     Starting wfcs are 1179 randomized atomic wfcs
     Checking if some PAW data can be deallocated... 

     total cpu time spent up to now is      175.7 secs

     Self-consistent Calculation

     iteration #  1     ecut=    77.00 Ry     beta= 0.20
     Davidson diagonalization with overlap
     ethr =  1.00E-02,  avg # of iterations =  2.0

     Threshold (ethr) on eigenvalues was too large:
     Diagonalizing with lowered threshold

     Davidson diagonalization with overlap
     ethr =  1.62E-04,  avg # of iterations = 16.0

     negative rho (up, down):  2.399E-04 0.000E+00

     total cpu time spent up to now is     2186.9 secs

     total energy              =  -33980.24774824 Ry
     estimated scf accuracy    <       6.51939177 Ry

     iteration #  2     ecut=    77.00 Ry     beta= 0.20
     Davidson diagonalization with overlap
     ethr =  3.80E-04,  avg # of iterations =  1.8

     negative rho (up, down):  2.503E-05 0.000E+00

     total cpu time spent up to now is     2575.2 secs

     total energy              =  -33978.90332126 Ry
     estimated scf accuracy    <       3.41065845 Ry

     iteration #  3     ecut=    77.00 Ry     beta= 0.20
     Davidson diagonalization with overlap
     ethr =  1.99E-04,  avg # of iterations = 15.0

     negative rho (up, down):  1.642E-05 0.000E+00

     total cpu time spent up to now is     3111.4 secs

     total energy              =  -33979.30664859 Ry
     estimated scf accuracy    <       0.87831002 Ry

     iteration #  4     ecut=    77.00 Ry     beta= 0.20
     Davidson diagonalization with overlap
     c_bands:  1 eigenvalues not converged
     c_bands:  1 eigenvalues not converged
     ethr =  5.12E-05,  avg # of iterations = 18.5

     negative rho (up, down):  1.856E-05 0.000E+00

     total cpu time spent up to now is     4256.6 secs

     total energy              =  -33980.07703022 Ry
     estimated scf accuracy    <       0.35472198 Ry

     iteration #  5     ecut=    77.00 Ry     beta= 0.20
     Davidson diagonalization with overlap
     ethr =  2.07E-05,  avg # of iterations = 14.2

     negative rho (up, down):  4.992E-05 0.000E+00

     total cpu time spent up to now is     4983.7 secs

     total energy              =  -33980.19830061 Ry
     estimated scf accuracy    <       0.20582722 Ry

     iteration #  6     ecut=    77.00 Ry     beta= 0.20
     Davidson diagonalization with overlap
     ethr =  1.20E-05,  avg # of iterations = 12.0

     negative rho (up, down):  1.977E-04 0.000E+00

     total cpu time spent up to now is     5456.7 secs

     total energy              =  -33980.18627336 Ry
     estimated scf accuracy    <       0.12153264 Ry

     iteration #  7     ecut=    77.00 Ry     beta= 0.20
     Davidson diagonalization with overlap
     c_bands:  2 eigenvalues not converged
     ethr =  7.09E-06,  avg # of iterations = 16.2

     negative rho (up, down):  6.400E-04 0.000E+00

     total cpu time spent up to now is     6187.5 secs

     total energy              =  -33980.24941641 Ry
     estimated scf accuracy    <       0.05991399 Ry

     iteration #  8     ecut=    77.00 Ry     beta= 0.20
     Davidson diagonalization with overlap
     c_bands:  3 eigenvalues not converged
     c_bands:  5 eigenvalues not converged
     c_bands:  5 eigenvalues not converged
     ethr =  3.50E-06,  avg # of iterations = 45.2

     negative rho (up, down):  4.770E-04 0.000E+00

     total cpu time spent up to now is     7616.5 secs

     total energy              =  -33980.25687105 Ry
     estimated scf accuracy    <       0.04936159 Ry

     iteration #  9     ecut=    77.00 Ry     beta= 0.20
     Davidson diagonalization with overlap
     c_bands:  1 eigenvalues not converged
     c_bands:  3 eigenvalues not converged
     c_bands:  3 eigenvalues not converged
     ethr =  2.88E-06,  avg # of iterations = 46.5

     negative rho (up, down):  4.552E-04 0.000E+00

     total cpu time spent up to now is     8687.5 secs

     total energy              =  -33980.26392683 Ry
     estimated scf accuracy    <       0.00396728 Ry

     iteration # 10     ecut=    77.00 Ry     beta= 0.20
     Davidson diagonalization with overlap
     c_bands:  5 eigenvalues not converged
     c_bands:  2 eigenvalues not converged
     c_bands:  5 eigenvalues not converged
     c_bands:  3 eigenvalues not converged
     ethr =  2.31E-07,  avg # of iterations = 35.0

     negative rho (up, down):  5.114E-04 0.000E+00

     total cpu time spent up to now is    10737.5 secs

     total energy              =  -33980.27651955 Ry
     estimated scf accuracy    <       0.00941503 Ry

     iteration # 11     ecut=    77.00 Ry     beta= 0.20
     Davidson diagonalization with overlap
     c_bands:  2 eigenvalues not converged
     ethr =  2.31E-07,  avg # of iterations =  7.8

     negative rho (up, down):  7.945E-04 0.000E+00

     total cpu time spent up to now is    11162.5 secs

     total energy              =  -33980.27358836 Ry
     estimated scf accuracy    <       0.00437661 Ry

     iteration # 12     ecut=    77.00 Ry     beta= 0.20
     Davidson diagonalization with overlap
     ethr =  2.31E-07,  avg # of iterations = 11.0

     negative rho (up, down):  7.929E-04 0.000E+00

     total cpu time spent up to now is    12080.5 secs

     total energy              =  -33980.27693711 Ry
     estimated scf accuracy    <       0.00818265 Ry

     iteration # 13     ecut=    77.00 Ry     beta= 0.20
     Davidson diagonalization with overlap
     ethr =  2.31E-07,  avg # of iterations =  1.5

     negative rho (up, down):  7.946E-04 0.000E+00

     total cpu time spent up to now is    12459.4 secs

     total energy              =  -33980.27546333 Ry
     estimated scf accuracy    <       0.00328926 Ry

     iteration # 14     ecut=    77.00 Ry     beta= 0.20
     Davidson diagonalization with overlap
     ethr =  1.92E-07,  avg # of iterations =  7.0

     negative rho (up, down):  8.046E-04 0.000E+00

     total cpu time spent up to now is    12916.2 secs

     total energy              =  -33980.27569714 Ry
     estimated scf accuracy    <       0.00045208 Ry

     iteration # 15     ecut=    77.00 Ry     beta= 0.20
     Davidson diagonalization with overlap
     ethr =  2.64E-08,  avg # of iterations = 16.8

     negative rho (up, down):  8.155E-04 0.000E+00

     total cpu time spent up to now is    14283.7 secs

     total energy              =  -33980.27694256 Ry
     estimated scf accuracy    <       0.00112761 Ry

     iteration # 16     ecut=    77.00 Ry     beta= 0.20
     Davidson diagonalization with overlap
     ethr =  2.64E-08,  avg # of iterations =  1.8

     negative rho (up, down):  8.635E-04 0.000E+00

     total cpu time spent up to now is    14672.9 secs

     total energy              =  -33980.27652985 Ry
     estimated scf accuracy    <       0.00056857 Ry

     iteration # 17     ecut=    77.00 Ry     beta= 0.20
     Davidson diagonalization with overlap
     ethr =  2.64E-08,  avg # of iterations = 13.2

     negative rho (up, down):  8.852E-04 0.000E+00

     total cpu time spent up to now is    15490.2 secs

     total energy              =  -33980.27695614 Ry
     estimated scf accuracy    <       0.00016636 Ry

     iteration # 18     ecut=    77.00 Ry     beta= 0.20
     Davidson diagonalization with overlap
     ethr =  9.71E-09,  avg # of iterations =  7.5

     negative rho (up, down):  8.791E-04 0.000E+00

     total cpu time spent up to now is    16007.4 secs

     total energy              =  -33980.27686363 Ry
     estimated scf accuracy    <       0.00020276 Ry

     iteration # 19     ecut=    77.00 Ry     beta= 0.20
     Davidson diagonalization with overlap
     ethr =  9.71E-09,  avg # of iterations =  6.5

     negative rho (up, down):  8.825E-04 0.000E+00

     total cpu time spent up to now is    16426.7 secs

     total energy              =  -33980.27686512 Ry
     estimated scf accuracy    <       0.00002086 Ry

     iteration # 20     ecut=    77.00 Ry     beta= 0.20
     Davidson diagonalization with overlap
     c_bands:  4 eigenvalues not converged
     c_bands:  1 eigenvalues not converged
     ethr =  1.22E-09,  avg # of iterations = 20.8

     negative rho (up, down):  8.878E-04 0.000E+00

     total cpu time spent up to now is    18044.5 secs

     total energy              =  -33980.27690549 Ry
     estimated scf accuracy    <       0.00000784 Ry

     iteration # 21     ecut=    77.00 Ry     beta= 0.20
     Davidson diagonalization with overlap
     ethr =  4.57E-10,  avg # of iterations = 13.0

     negative rho (up, down):  8.890E-04 0.000E+00

     total cpu time spent up to now is    18753.4 secs

     total energy              =  -33980.27690897 Ry
     estimated scf accuracy    <       0.00000177 Ry

     iteration # 22     ecut=    77.00 Ry     beta= 0.20
     Davidson diagonalization with overlap
     c_bands:  1 eigenvalues not converged
     ethr =  1.04E-10,  avg # of iterations = 17.8

     negative rho (up, down):  8.900E-04 0.000E+00

     total cpu time spent up to now is    19952.6 secs

     total energy              =  -33980.27690916 Ry
     estimated scf accuracy    <       0.00000276 Ry

     iteration # 23     ecut=    77.00 Ry     beta= 0.20
     Davidson diagonalization with overlap
     ethr =  1.04E-10,  avg # of iterations = 16.5

     negative rho (up, down):  8.913E-04 0.000E+00

     total cpu time spent up to now is    20806.4 secs

     total energy              =  -33980.27690953 Ry
     estimated scf accuracy    <       0.00000112 Ry

     iteration # 24     ecut=    77.00 Ry     beta= 0.20
     Davidson diagonalization with overlap
     ethr =  6.54E-11,  avg # of iterations =  2.0

     negative rho (up, down):  8.920E-04 0.000E+00

     total cpu time spent up to now is    21205.4 secs

     End of self-consistent calculation

          k = 0.0000 0.0000 0.0000 (386245 PWs)   bands (ev):

  -102.4661 -88.8833 -70.7970 -70.7959 -70.7721 -70.7674 -70.7531 -70.7421
   -70.7290 -66.6564 -66.6564 -66.6552 -66.6509 -66.6369 -66.6353 -66.6352
   -66.6351 -66.6351 -66.6351 -66.6351 -66.6351 -66.6351 -66.6351 -66.6350
   -66.6350 -66.6348 -66.6338 -66.6338 -66.6338 -66.6338 -66.6338 -66.6338
   -66.6326 -66.6295 -66.6228 -66.6177 -66.6156 -66.6140 -66.6139 -66.6138
   -66.6137 -66.6137 -66.6137 -66.6137 -66.6137 -66.6137 -66.6137 -66.6137
   -66.6137 -66.6137 -66.6137 -66.6136 -66.6136 -66.6135 -66.6133 -66.6124
   -66.6124 -66.6124 -66.6124 -66.6124 -66.6124 -66.6124 -66.6124 -66.6124
   -66.6100 -66.6029 -66.5999 -66.5976 -66.5956 -66.5931 -66.5843 -66.5687
   -66.5575 -56.7620 -56.6847 -56.6446 -54.7070 -54.6979 -54.6241 -40.9838
   -40.9838 -40.9837 -40.9837 -40.9837 -40.9837 -40.9832 -40.9831 -40.9831
   -40.9710 -40.9688 -40.9625 -40.9086 -40.9085 -40.9085 -40.9084 -40.9084
   -40.9084 -40.9084 -40.9084 -40.9084 -40.9084 -40.9083 -40.9082 -40.9078
   -40.9078 -40.9078 -40.9078 -40.9078 -40.9078 -40.8991 -40.8956 -40.8905
   -40.8847 -40.8801 -40.8785 -40.8194 -40.8160 -40.8160 -40.8154 -40.7966
   -40.7823 -40.7822 -40.7821 -40.7821 -40.7821 -40.7821 -40.7821 -40.7821
   -40.7821 -40.7820 -40.7820 -40.7819 -40.7813 -40.7813 -40.7813 -40.7813
   -40.7813 -40.7813 -40.7784 -40.7753 -40.7749 -40.7746 -40.7744 -40.7744
   -40.7743 -40.7743 -40.7743 -40.7743 -40.7743 -40.7743 -40.7742 -40.7742
   -40.7740 -40.7737 -40.7737 -40.7737 -40.7737 -40.7737 -40.7737 -40.7736
   -40.7713 -40.7684 -40.7659 -40.7628 -40.7597 -40.7561 -40.7478 -40.7472
   -40.7471 -40.7471 -40.7471 -40.7471 -40.7471 -40.7470 -40.7470 -40.7470
   -40.7470 -40.7470 -40.7469 -40.7462 -40.7462 -40.7462 -40.7462 -40.7462
   -40.7462 -40.7420 -40.7406 -40.7379 -40.7374 -40.7327 -40.7326 -40.7325
   -40.7324 -40.7324 -40.7324 -40.7324 -40.7323 -40.7323 -40.7323 -40.7323
   -40.7323 -40.7323 -40.7323 -40.7323 -40.7322 -40.7322 -40.7321 -40.7319
   -40.7317 -40.7317 -40.7317 -40.7317 -40.7317 -40.7317 -40.7316 -40.7316
   -40.7316 -40.7301 -40.7278 -40.7275 -40.7269 -40.7227 -40.7185 -40.7164
   -40.7156 -40.7137 -40.7086 -40.6688 -40.6687 -40.6687 -40.6687 -40.6687
   -40.6686 -40.6678 -40.6678 -40.6678 -40.6534 -40.6494 -40.6469 -40.6218
   -40.6217 -40.6217 -40.6216 -40.6216 -40.6216 -40.6216 -40.6216 -40.6216
   -40.6216 -40.6215 -40.6214 -40.6207 -40.6207 -40.6207 -40.6207 -40.6206
   -40.6206 -40.6069 -40.6015 -40.5999 -40.5966 -40.5948 -40.5896 -40.5740
   -40.5740 -40.5740 -40.5740 -40.5730 -40.5730 -40.5496 -40.5426 -20.2127
   -20.1295 -20.0278 -19.9211 -19.6024 -19.3586 -19.3217 -19.2849 -19.2821
   -19.2792 -19.2697 -19.2635 -19.2587 -19.2325 -19.2252 -19.2156 -19.1831
   -19.1730 -19.1687 -19.1506 -19.1432 -19.1299 -19.0780 -19.0723 -19.0707
   -19.0646 -19.0618 -19.0552 -18.9369 -18.8319 -18.7611 -18.6578 -18.5991
   -18.5856 -18.5414 -18.5350 -18.5091 -18.5006 -18.4806 -18.4647 -18.4507
   -18.4431 -18.4260 -18.3928 -18.3679 -18.3599 -18.3204 -18.3156 -18.3092
   -18.2821 -18.2723 -18.2695 -18.2231 -18.2170 -18.2149 -18.2058 -18.2047
   -18.2035 -18.1704 -18.1569 -18.1542 -18.1533 -18.1519 -18.1512 -18.1495
   -18.1336 -18.1234 -18.1200 -18.1168 -18.1137 -18.1133 -18.1090 -18.1086
   -18.1068 -18.0968 -18.0821 -18.0813 -18.0805 -18.0774 -18.0740 -18.0651
   -18.0602 -18.0592 -18.0472 -18.0410 -18.0359 -18.0356 -18.0304 -18.0283
   -18.0185 -18.0154 -18.0147 -17.9889 -17.9775 -17.9741 -17.9629 -17.9507
   -17.9492 -17.9478 -17.9460 -17.9445 -17.9273 -17.9242 -17.9206 -17.9100
   -17.9058 -17.9011 -17.8998 -17.8959 -17.8932 -17.8891 -17.8874 -17.8865
   -17.8730 -17.8726 -17.8716 -17.8605 -17.8589 -17.8558 -17.8543 -17.8521
   -17.8495 -17.8288 -17.8287 -17.8275 -17.8270 -17.8261 -17.8248 -12.2188
   -12.0329 -11.9774 -11.9096 -11.8454 -11.8290 -11.8168 -11.8026 -11.7167
   -11.7056 -11.6965 -11.6080 -11.5899 -11.5848 -11.5606 -11.4115 -11.3766
   -11.3621 -11.2864 -11.2718 -11.2700 -11.2677 -11.2627 -11.2524 -11.2050
   -11.1816 -11.1682 -11.1657 -11.1614 -11.1606 -11.1558 -11.1445 -11.1310
   -11.1225 -11.1045 -11.1037 -11.0974 -11.0904 -11.0899 -11.0864 -11.0773
   -11.0735 -11.0663 -11.0566 -11.0513 -11.0252 -11.0102 -10.9949 -10.9900
   -10.9805 -10.9722 -10.9657 -10.9490 -10.9303 -10.9263 -10.9235 -10.9159
   -10.9146 -10.9063 -10.8882 -10.8820 -10.8810 -10.8772 -10.8748 -10.8645
   -10.8629 -10.8616 -10.8596 -10.8586 -10.8506 -10.8403 -10.8386 -10.8358
   -10.8357 -10.8336 -10.8309 -10.8116 -10.8105 -10.8089 -10.8068 -10.8042
   -10.8008 -10.7962 -10.7851 -10.7818 -10.7698 -10.7697 -10.7688 -10.7675
   -10.7647 -10.7628 -10.7016 -10.6945 -10.6896 -10.6526 -10.6351 -10.6269
   -10.6151 -10.6103 -10.6076 -10.5599 -10.4393 -10.3665 -10.2084 -10.1986
   -10.1649 -10.1205  -9.9980  -9.9818  -9.9599  -9.9260  -9.8608  -9.8499
    -9.8402  -9.8370  -9.8358  -9.8259  -9.8120  -9.8049  -9.8030  -9.8022
    -9.7984  -9.7945  -9.7929  -9.7890  -9.7837  -9.7801  -9.7771  -9.7708
    -9.7667  -9.7569  -9.7389  -9.7276  -9.6882  -9.6626  -9.6611  -9.6594
    -9.6579  -9.6563  -9.6504  -9.6501  -9.6495  -9.6490  -9.6484  -9.6469
    -9.6413  -9.6329  -9.6245  -9.6100  -9.5825  -9.5738  -9.5736  -9.5734
    -9.5731  -9.5728  -9.5719  -9.5686  -9.5582  -9.5479  -9.5463  -9.5338
    -9.5326  -9.5089  -9.5012  -9.4828  -9.4768  -9.4232  -9.3985  -9.3928
    -9.3856  -9.3820  -9.3791  -9.3725  -9.3624  -9.3606  -9.3553  -9.3423
    -9.3350  -9.3214  -9.2843  -9.2769  -9.2725  -9.2607  -9.2562  -9.2387
    -9.2308  -9.2164  -9.2145  -9.2127  -9.2114  -9.2097  -9.2051  -9.1782
    -9.1643  -9.1607  -9.1401  -9.1312  -9.1196  -9.0994  -9.0739  -9.0321
    -9.0141  -9.0135  -9.0112  -8.9892  -8.9861  -8.9807  -8.9789  -8.9749
    -8.9656  -8.9568  -8.9492  -8.9486  -8.9469  -8.9402  -8.9260  -8.9235
    -8.9143  -8.9093  -8.8906  -8.8533  -8.8532  -8.8528  -8.8527  -8.8525
    -8.8521  -8.7894  -8.7825  -8.7818  -8.7739  -8.7678  -8.7591  -8.7075
    -8.7013  -8.6979  -8.6933  -8.6868  -8.6813  -8.6761  -8.6285  -8.6254
    -8.6241  -8.6235  -8.6213  -8.6197  -8.5820  -8.5598  -8.4453  -8.4200
    -8.3984  -8.3984  -8.3937  -8.3935  -8.3875  -8.3871  -8.3850  -8.3768
    -8.3643  -8.3209  -8.3130  -8.3083  -8.3078  -8.3075  -8.3074  -8.3032
    -8.2964  -8.2830  -8.2815  -8.2807  -8.2805  -8.2765  -8.2722  -8.2552
    -8.2533  -8.2527  -8.2526  -8.2511  -8.2499  -8.2324  -8.1972  -8.1467
    -8.0234  -7.9587  -7.8921  -7.8904  -7.8887  -7.8157  -7.8083  -7.7995
    -7.7767  -7.7427  -7.7244  -7.7161  -7.6793  -7.6734  -7.6725  -7.6573
    -7.6554  -7.6518  -7.6451  -7.6331  -7.6320  -7.6114  -7.6063  -7.6000
    -7.5906  -7.5763  -7.5727  -7.5708  -7.5663  -7.5659  -7.5651  -7.5648
    -7.5613  -7.5549  -7.5403  -7.5400  -7.5382  -7.5382  -7.5365  -7.5315
    -7.5223  -7.5166  -7.5143  -7.5140  -7.5137  -7.5130  -7.5115  -7.5059
    -7.4945  -7.4809  -7.4612  -7.4547  -7.4474  -7.4444  -7.4428  -7.4387
    -7.4363  -7.4305  -7.3882  -7.3819  -7.3773  -7.3615  -7.3466  -7.3417
    -7.3409  -7.3354  -7.3274  -7.3241  -7.3194  -7.3181  -7.3160  -7.2989
    -7.2823  -7.2817  -7.2713  -7.2637  -7.2624  -7.2455  -7.2452  -7.2044
    -7.1933  -7.1666  -7.1476  -7.1385  -7.1222  -7.0996  -7.0636  -7.0196
    -6.9941  -6.9618  -6.9153  -6.8965  -6.8916  -6.8755  -6.8582  -6.8226
    -6.8117  -6.8107  -6.8073  -6.7714  -6.7526  -6.7322  -6.7295  -6.7234
    -6.7029  -6.6888  -6.6702  -6.6616  -6.6546  -6.6535  -6.6435  -6.6393
    -6.6189  -6.6088  -6.6007  -6.5962  -6.5863  -6.5717  -6.5649  -6.5527
    -6.5495  -6.5464  -6.5450  -6.5421  -6.5390  -6.5383  -6.5376  -6.5355
    -6.5295  -6.5292  -6.5292  -6.5290  -6.5288  -6.5283  -6.5133  -6.5076
    -6.4888  -6.4747  -6.4683  -6.4513  -6.4415  -6.4409  -6.4366  -6.4244
    -6.3849  -6.3731  -6.3706  -6.3659  -6.3642  -6.3618  -6.3578  -6.3520
    -6.3450  -6.3326  -6.3258  -6.3212  -6.3195  -6.3167  -6.3108  -6.2998
    -6.2879  -6.2849  -6.2844  -6.2833  -6.2816  -6.2780  -6.2630  -6.2079
    -6.0790  -5.9340  -5.8478  -5.6764  -5.5670  -5.4490  -5.4054  -5.3353
    -5.1823  -4.3772  -3.9342  -3.8850  -3.8800  -3.8772  -3.8766  -3.8628
    -3.8595  -3.8573  -3.8570  -3.8528  -3.8516  -3.8357  -3.7910  -3.7355
    -3.7282  -3.7162  -3.7153  -3.7140  -3.7093  -3.7055  -3.7030  -3.7024
    -3.6996  -3.6146  -3.5735  -3.5438  -3.5386  -3.5316  -3.5229  -3.5227
    -3.5109  -3.5090  -3.5054  -3.5034  -3.5028  -3.5000  -3.4960  -3.4862
    -3.4808  -3.4770  -3.4763  -3.4740  -3.4736  -3.4735  -3.4623  -3.4590
    -3.4585  -3.4547  -3.4483  -3.4424  -3.4421  -3.4411  -3.4370  -3.4355
    -3.4323  -3.4309  -3.4285  -3.4197  -3.4174  -3.3864  -3.3798  -3.3781
    -3.3769  -3.3744  -3.3731  -3.3700  -3.3671  -3.3630  -3.3584  -3.3476
    -3.3379  -3.3279  -3.3168  -3.3152  -3.3111  -3.3068  -3.2976  -3.2937
    -3.2471  -3.2439  -3.2324  -3.2296  -3.2270  -3.1171  -3.0977  -3.0958
    -3.0917  -3.0907  -3.0888  -3.0830  -3.0763  -3.0739  -3.0717  -3.0403
    -3.0205  -3.0148  -3.0069  -3.0042  -3.0029  -3.0010  -3.0006  -2.9976
    -2.9944  -2.9942  -2.9937  -2.9913  -2.9861  -2.9857  -2.9804  -2.9764
    -2.9702  -2.9668  -2.9659  -2.9617  -2.9596  -2.9577  -2.9572  -2.9571
    -2.9569  -2.9538  -2.9516  -2.9271  -2.9163  -2.9107  -2.9013  -2.8946
    -2.8875  -2.8772  -2.8700  -2.8570  -2.8360  -2.8348  -2.8346  -2.8342
    -2.8338  -2.8336  -2.8335  -2.8331  -2.8328  -2.8181  -2.8166  -2.8127
    -2.7863  -2.7787  -2.7671  -2.7636  -2.7592  -2.7515  -2.7467  -2.7016
    -2.6958  -2.6699  -2.6671  -2.6590  -2.6553  -2.6527  -2.6496  -2.6457
    -2.6441  -2.6274  -2.5960  -2.5849  -2.5742  -2.5720  -2.5653  -2.4623
    -2.4492  -2.4428  -2.4387  -2.4368

          k = 0.0000-0.5773 0.0000 (386352 PWs)   bands (ev):

  -102.4661 -88.8833 -70.7970 -70.7959 -70.7721 -70.7674 -70.7531 -70.7421
   -70.7290 -66.6502 -66.6502 -66.6502 -66.6501 -66.6497 -66.6489 -66.6489
   -66.6395 -66.6395 -66.6395 -66.6395 -66.6384 -66.6383 -66.6383 -66.6345
   -66.6288 -66.6246 -66.6245 -66.6244 -66.6244 -66.6244 -66.6244 -66.6242
   -66.6242 -66.6231 -66.6231 -66.6231 -66.6231 -66.6226 -66.6200 -66.6200
   -66.6200 -66.6199 -66.6187 -66.6187 -66.6165 -66.6152 -66.6139 -66.6138
   -66.6137 -66.6137 -66.6137 -66.6137 -66.6136 -66.6134 -66.6124 -66.6124
   -66.6124 -66.6124 -66.6093 -66.6093 -66.6093 -66.6092 -66.6091 -66.6080
   -66.6080 -66.6030 -66.5997 -66.5984 -66.5949 -66.5945 -66.5840 -66.5687
   -66.5575 -56.7620 -56.6847 -56.6446 -54.7070 -54.6979 -54.6241 -40.9547
   -40.9523 -40.9521 -40.9521 -40.9521 -40.9521 -40.9521 -40.9521 -40.9519
   -40.9515 -40.9515 -40.9515 -40.9515 -40.9377 -40.9272 -40.9254 -40.9253
   -40.9253 -40.9252 -40.9247 -40.9247 -40.9206 -40.9133 -40.9132 -40.9132
   -40.9132 -40.9126 -40.9126 -40.9121 -40.9072 -40.8951 -40.8854 -40.8626
   -40.8626 -40.8626 -40.8626 -40.8626 -40.8625 -40.8625 -40.8625 -40.8619
   -40.8619 -40.8619 -40.8619 -40.8471 -40.8440 -40.8403 -40.8341 -40.8108
   -40.8064 -40.8039 -40.8038 -40.8038 -40.8037 -40.8032 -40.8032 -40.7943
   -40.7943 -40.7943 -40.7943 -40.7935 -40.7935 -40.7869 -40.7830 -40.7830
   -40.7829 -40.7829 -40.7823 -40.7823 -40.7802 -40.7730 -40.7693 -40.7672
   -40.7572 -40.7535 -40.7535 -40.7533 -40.7533 -40.7533 -40.7533 -40.7532
   -40.7532 -40.7527 -40.7527 -40.7527 -40.7527 -40.7524 -40.7460 -40.7447
   -40.7446 -40.7446 -40.7445 -40.7440 -40.7440 -40.7431 -40.7383 -40.7336
   -40.7328 -40.7328 -40.7328 -40.7328 -40.7325 -40.7324 -40.7324 -40.7323
   -40.7323 -40.7323 -40.7323 -40.7320 -40.7320 -40.7319 -40.7318 -40.7316
   -40.7316 -40.7316 -40.7316 -40.7269 -40.7236 -40.7236 -40.7236 -40.7236
   -40.7230 -40.7229 -40.7229 -40.7160 -40.7137 -40.7093 -40.7073 -40.7021
   -40.7019 -40.7019 -40.7018 -40.7018 -40.7018 -40.7018 -40.7017 -40.7010
   -40.7010 -40.7010 -40.7010 -40.6950 -40.6866 -40.6806 -40.6715 -40.6672
   -40.6671 -40.6671 -40.6671 -40.6671 -40.6671 -40.6671 -40.6671 -40.6662
   -40.6662 -40.6662 -40.6662 -40.6550 -40.6550 -40.6550 -40.6549 -40.6541
   -40.6540 -40.6524 -40.6453 -40.6449 -40.6415 -40.6395 -40.6357 -40.6357
   -40.6356 -40.6356 -40.6347 -40.6347 -40.6214 -40.6187 -40.6187 -40.6187
   -40.6186 -40.6177 -40.6177 -40.6171 -40.6136 -40.5949 -40.5880 -40.5880
   -40.5880 -40.5879 -40.5875 -40.5870 -40.5870 -40.5725 -40.5484 -20.0824
   -19.9170 -19.8996 -19.8537 -19.8011 -19.7631 -19.6910 -19.6763 -19.5375
   -19.4988 -19.4596 -19.4463 -19.3680 -19.3551 -19.2644 -19.2579 -19.0927
   -18.8940 -18.8463 -18.8132 -18.7939 -18.7711 -18.7557 -18.7512 -18.7506
   -18.7398 -18.7225 -18.6914 -18.6857 -18.6773 -18.6723 -18.6538 -18.6148
   -18.6090 -18.6000 -18.5851 -18.5802 -18.5787 -18.5724 -18.5497 -18.5250
   -18.5168 -18.5097 -18.5065 -18.4979 -18.4650 -18.4430 -18.4418 -18.4324
   -18.4282 -18.4048 -18.3852 -18.3637 -18.3523 -18.3494 -18.3393 -18.2911
   -18.2769 -18.2650 -18.2601 -18.2422 -18.2246 -18.2066 -18.1933 -18.1760
   -18.1526 -18.1447 -18.1389 -18.1325 -18.1324 -18.1302 -18.1284 -18.1062
   -18.1031 -18.1030 -18.1010 -18.0969 -18.0952 -18.0905 -18.0779 -18.0753
   -18.0688 -18.0607 -18.0605 -18.0431 -18.0385 -18.0334 -18.0311 -18.0305
   -18.0265 -18.0195 -18.0177 -18.0159 -18.0052 -17.9840 -17.9695 -17.9671
   -17.9635 -17.9505 -17.9484 -17.9249 -17.9188 -17.9054 -17.9041 -17.8839
   -17.8799 -17.8698 -17.8688 -17.8652 -17.8552 -17.8509 -17.8499 -17.8484
   -17.8482 -17.8475 -17.8458 -17.8351 -17.8334 -17.8145 -17.8134 -17.7903
   -17.7900 -17.7709 -17.7700 -17.7572 -17.7564 -17.7503 -17.7502 -12.1606
   -11.8817 -11.7536 -11.7429 -11.6865 -11.5955 -11.5478 -11.5460 -11.5313
   -11.5279 -11.5156 -11.5093 -11.4971 -11.4764 -11.4698 -11.4492 -11.4277
   -11.4219 -11.4207 -11.3797 -11.3705 -11.3671 -11.3607 -11.3477 -11.3216
   -11.3207 -11.3105 -11.3027 -11.2938 -11.2889 -11.2885 -11.2856 -11.2777
   -11.2409 -11.2357 -11.2268 -11.2180 -11.2108 -11.2024 -11.1987 -11.1972
   -11.1832 -11.1795 -11.1761 -11.1704 -11.1514 -11.1266 -11.1071 -11.0961
   -11.0928 -11.0739 -11.0299 -11.0095 -10.9971 -10.9708 -10.9623 -10.9596
   -10.9549 -10.9285 -10.9210 -10.9036 -10.8969 -10.8757 -10.8675 -10.8658
   -10.8586 -10.8551 -10.8435 -10.8422 -10.8419 -10.8413 -10.8357 -10.8310
   -10.8277 -10.8255 -10.8233 -10.8213 -10.8206 -10.8157 -10.8137 -10.8118
   -10.7981 -10.7759 -10.7742 -10.7739 -10.7722 -10.7517 -10.6374 -10.5730
   -10.5680 -10.5609 -10.5506 -10.5112 -10.5042 -10.4805 -10.4145 -10.3878
   -10.2803 -10.2784 -10.2254 -10.2024 -10.1860 -10.1736 -10.1513 -10.1444
   -10.1308 -10.1255 -10.1015 -10.0861 -10.0814 -10.0673 -10.0650 -10.0584
   -10.0542 -10.0478 -10.0424 -10.0342 -10.0058  -9.9755  -9.9707  -9.9512
    -9.9439  -9.9434  -9.9314  -9.9268  -9.9240  -9.9038  -9.8922  -9.8763
    -9.8566  -9.8465  -9.8318  -9.8243  -9.8055  -9.8001  -9.7931  -9.7766
    -9.7497  -9.7494  -9.7354  -9.7257  -9.7045  -9.6934  -9.6837  -9.6572
    -9.6546  -9.6442  -9.6341  -9.6108  -9.5930  -9.5778  -9.5769  -9.5748
    -9.5682  -9.5614  -9.5500  -9.5229  -9.5198  -9.5115  -9.5087  -9.5048
    -9.4929  -9.4898  -9.4874  -9.4705  -9.4637  -9.4585  -9.4540  -9.4012
    -9.3925  -9.3514  -9.3376  -9.3221  -9.3003  -9.2831  -9.2477  -9.2432
    -9.2390  -9.2316  -9.2193  -9.2081  -9.2003  -9.1780  -9.1773  -9.1632
    -9.1554  -9.1380  -9.1252  -9.1133  -9.0937  -9.0892  -9.0824  -9.0716
    -9.0643  -9.0586  -9.0522  -9.0311  -9.0276  -9.0120  -8.9900  -8.9871
    -8.9798  -8.9777  -8.9676  -8.9523  -8.9457  -8.9247  -8.9215  -8.9190
    -8.9161  -8.9132  -8.9108  -8.9069  -8.9062  -8.9008  -8.8992  -8.8950
    -8.8889  -8.8788  -8.8736  -8.8709  -8.8704  -8.8696  -8.8547  -8.8529
    -8.8331  -8.8247  -8.8209  -8.8189  -8.8135  -8.8123  -8.8122  -8.7946
    -8.7869  -8.7643  -8.7622  -8.7577  -8.7567  -8.7535  -8.7338  -8.7335
    -8.6886  -8.6833  -8.6471  -8.6453  -8.6082  -8.5342  -8.5339  -8.4905
    -8.4742  -8.4692  -8.4485  -8.3926  -8.3860  -8.3498  -8.3433  -8.3220
    -8.2834  -8.2283  -8.1594  -8.1584  -8.1537  -8.1524  -8.1494  -8.1450
    -8.1380  -8.1365  -8.0966  -8.0739  -8.0434  -8.0406  -8.0018  -7.9976
    -7.9611  -7.9231  -7.8906  -7.8730  -7.8724  -7.8663  -7.8595  -7.8528
    -7.8469  -7.8435  -7.8385  -7.8341  -7.8290  -7.8264  -7.8223  -7.8210
    -7.8175  -7.8153  -7.8120  -7.8114  -7.8089  -7.8003  -7.8001  -7.7980
    -7.7964  -7.7956  -7.7917  -7.7895  -7.7892  -7.7814  -7.7730  -7.7680
    -7.7672  -7.7633  -7.7582  -7.7545  -7.7451  -7.7412  -7.7279  -7.7262
    -7.7253  -7.7250  -7.6983  -7.6969  -7.6956  -7.6952  -7.6935  -7.6811
    -7.6744  -7.6491  -7.6461  -7.6392  -7.6348  -7.6338  -7.6291  -7.6255
    -7.6233  -7.6168  -7.6127  -7.5951  -7.5938  -7.5903  -7.5884  -7.5757
    -7.5719  -7.5691  -7.4961  -7.4894  -7.4884  -7.4811  -7.4785  -7.4620
    -7.4442  -7.3768  -7.3113  -7.2824  -7.2300  -7.2032  -7.1989  -7.1970
    -7.1939  -7.1779  -7.1494  -7.1458  -7.1371  -7.1337  -7.1233  -7.1118
    -7.0733  -7.0678  -7.0563  -7.0540  -7.0514  -7.0395  -7.0076  -7.0032
    -6.9785  -6.9767  -6.9650  -6.9472  -6.9433  -6.9281  -6.9222  -6.9129
    -6.8971  -6.8920  -6.8899  -6.8838  -6.8721  -6.8633  -6.8180  -6.7941
    -6.7849  -6.7746  -6.7377  -6.7224  -6.7090  -6.6873  -6.6781  -6.6655
    -6.6494  -6.6467  -6.6369  -6.6363  -6.6349  -6.6343  -6.6238  -6.6190
    -6.6179  -6.6174  -6.6165  -6.6098  -6.6097  -6.6095  -6.6094  -6.6007
    -6.5741  -6.5373  -6.5142  -6.4765  -6.4479  -6.4185  -6.3735  -6.3598
    -6.3556  -6.3532  -6.3476  -6.3422  -6.3329  -6.3180  -6.3085  -6.3079
    -6.3065  -6.3034  -6.3026  -6.2952  -6.2899  -6.2791  -6.2623  -6.2502
    -6.2495  -6.2408  -6.2341  -6.2285  -6.2245  -6.2053  -6.0977  -6.0221
    -6.0193  -5.9734  -5.9602  -5.9463  -5.8968  -5.8923  -5.8744  -5.8582
    -5.7815  -5.7750  -5.6872  -5.6663  -5.6242  -5.6143  -5.5073  -5.4196
    -5.3616  -4.3693  -4.1265  -4.1174  -4.1151  -4.0922  -3.9913  -3.9586
    -3.9480  -3.9411  -3.9330  -3.8941  -3.8733  -3.8701  -3.8597  -3.8525
    -3.8432  -3.8360  -3.8312  -3.8270  -3.8254  -3.7864  -3.7353  -3.7131
    -3.7014  -3.6672  -3.6458  -3.6364  -3.6321  -3.6281  -3.6278  -3.5962
    -3.5828  -3.5805  -3.5640  -3.5599  -3.5497  -3.5438  -3.5432  -3.5409
    -3.5169  -3.5152  -3.5099  -3.5041  -3.5018  -3.5002  -3.4926  -3.4817
    -3.4770  -3.4760  -3.4617  -3.4592  -3.4499  -3.4435  -3.4432  -3.4226
    -3.3912  -3.3822  -3.3786  -3.3744  -3.3729  -3.3689  -3.3678  -3.3659
    -3.3520  -3.3332  -3.3196  -3.3125  -3.3110  -3.3097  -3.3082  -3.3068
    -3.3047  -3.3005  -3.2765  -3.2741  -3.2696  -3.2633  -3.2585  -3.2548
    -3.2532  -3.2417  -3.2404  -3.2348  -3.2284  -3.2163  -3.2162  -3.2095
    -3.2054  -3.2015  -3.1911  -3.1909  -3.1885  -3.1877  -3.1684  -3.1372
    -3.1264  -3.1125  -3.1019  -3.0978  -3.0943  -3.0889  -3.0872  -3.0578
    -3.0548  -3.0521  -3.0511  -3.0499  -3.0492  -3.0435  -3.0412  -3.0353
    -3.0347  -3.0324  -3.0249  -3.0187  -3.0172  -3.0155  -3.0098  -3.0047
    -2.9973  -2.9950  -2.9945  -2.9931  -2.9877  -2.9780  -2.9756  -2.9739
    -2.9689  -2.9641  -2.9594  -2.9538  -2.9355  -2.9312  -2.9248  -2.9107
    -2.9092  -2.9050  -2.8975  -2.8888  -2.8716  -2.8282  -2.8235  -2.8148
    -2.8134  -2.7747  -2.7553  -2.7523  -2.7388  -2.6445  -2.6399  -2.6272
    -2.6079  -2.6011  -2.5834  -2.5783  -2.5713  -2.5606  -2.5547  -2.5542
    -2.5534  -2.5490  -2.5422  -2.4846  -2.4306  -2.4278  -2.4246  -2.4176
    -2.4112  -2.4008  -2.3813  -2.3717

          k =-0.5000-0.2887 0.0000 (386352 PWs)   bands (ev):

  -102.4661 -88.8833 -70.7970 -70.7959 -70.7721 -70.7674 -70.7531 -70.7421
   -70.7290 -66.6502 -66.6502 -66.6502 -66.6501 -66.6489 -66.6489 -66.6487
   -66.6424 -66.6395 -66.6395 -66.6395 -66.6395 -66.6383 -66.6383 -66.6312
   -66.6264 -66.6245 -66.6244 -66.6244 -66.6244 -66.6244 -66.6244 -66.6244
   -66.6244 -66.6233 -66.6231 -66.6231 -66.6231 -66.6231 -66.6201 -66.6200
   -66.6200 -66.6199 -66.6189 -66.6187 -66.6187 -66.6161 -66.6139 -66.6137
   -66.6137 -66.6137 -66.6137 -66.6137 -66.6136 -66.6136 -66.6124 -66.6124
   -66.6124 -66.6124 -66.6093 -66.6093 -66.6093 -66.6092 -66.6085 -66.6080
   -66.6080 -66.6016 -66.6004 -66.5981 -66.5971 -66.5924 -66.5843 -66.5688
   -66.5575 -56.7620 -56.6847 -56.6446 -54.7070 -54.6979 -54.6241 -40.9522
   -40.9522 -40.9521 -40.9521 -40.9521 -40.9521 -40.9521 -40.9520 -40.9515
   -40.9515 -40.9515 -40.9515 -40.9468 -40.9369 -40.9315 -40.9283 -40.9254
   -40.9253 -40.9253 -40.9252 -40.9247 -40.9247 -40.9181 -40.9133 -40.9132
   -40.9132 -40.9132 -40.9126 -40.9126 -40.9107 -40.8938 -40.8747 -40.8626
   -40.8626 -40.8626 -40.8626 -40.8625 -40.8625 -40.8625 -40.8625 -40.8619
   -40.8619 -40.8619 -40.8619 -40.8482 -40.8388 -40.8355 -40.8349 -40.8131
   -40.8039 -40.8038 -40.8038 -40.8037 -40.8032 -40.8032 -40.7995 -40.7948
   -40.7943 -40.7943 -40.7943 -40.7942 -40.7935 -40.7935 -40.7830 -40.7830
   -40.7829 -40.7829 -40.7823 -40.7823 -40.7807 -40.7756 -40.7707 -40.7609
   -40.7577 -40.7534 -40.7534 -40.7533 -40.7533 -40.7533 -40.7533 -40.7533
   -40.7533 -40.7527 -40.7527 -40.7527 -40.7527 -40.7523 -40.7493 -40.7475
   -40.7447 -40.7446 -40.7446 -40.7445 -40.7440 -40.7439 -40.7361 -40.7354
   -40.7328 -40.7328 -40.7328 -40.7328 -40.7324 -40.7324 -40.7323 -40.7323
   -40.7323 -40.7323 -40.7322 -40.7321 -40.7320 -40.7320 -40.7316 -40.7316
   -40.7316 -40.7316 -40.7306 -40.7254 -40.7236 -40.7236 -40.7236 -40.7236
   -40.7229 -40.7229 -40.7203 -40.7171 -40.7164 -40.7125 -40.7074 -40.7021
   -40.7019 -40.7019 -40.7019 -40.7019 -40.7018 -40.7018 -40.7017 -40.7010
   -40.7010 -40.7010 -40.7010 -40.6891 -40.6881 -40.6819 -40.6779 -40.6672
   -40.6671 -40.6671 -40.6671 -40.6671 -40.6671 -40.6671 -40.6671 -40.6662
   -40.6662 -40.6662 -40.6662 -40.6550 -40.6550 -40.6550 -40.6549 -40.6541
   -40.6540 -40.6526 -40.6469 -40.6434 -40.6401 -40.6358 -40.6357 -40.6357
   -40.6356 -40.6355 -40.6347 -40.6347 -40.6238 -40.6198 -40.6187 -40.6187
   -40.6187 -40.6186 -40.6177 -40.6177 -40.6097 -40.5916 -40.5881 -40.5880
   -40.5880 -40.5879 -40.5870 -40.5870 -40.5812 -40.5722 -40.5550 -20.0782
   -19.9190 -19.8996 -19.8588 -19.8014 -19.7681 -19.6914 -19.6782 -19.5386
   -19.4893 -19.4598 -19.4383 -19.3682 -19.3496 -19.2644 -19.2559 -19.0924
   -18.9306 -18.8426 -18.8113 -18.7872 -18.7710 -18.7557 -18.7524 -18.7502
   -18.7383 -18.7152 -18.6914 -18.6848 -18.6785 -18.6696 -18.6525 -18.6283
   -18.6082 -18.6023 -18.5863 -18.5828 -18.5780 -18.5599 -18.5519 -18.5399
   -18.5092 -18.5068 -18.5054 -18.4987 -18.4687 -18.4444 -18.4385 -18.4346
   -18.4099 -18.4025 -18.3944 -18.3651 -18.3536 -18.3504 -18.3194 -18.2839
   -18.2787 -18.2750 -18.2615 -18.2313 -18.2288 -18.2080 -18.1972 -18.1631
   -18.1521 -18.1444 -18.1415 -18.1334 -18.1319 -18.1297 -18.1285 -18.1156
   -18.1052 -18.1014 -18.0994 -18.0964 -18.0955 -18.0851 -18.0790 -18.0767
   -18.0709 -18.0682 -18.0586 -18.0411 -18.0398 -18.0346 -18.0320 -18.0290
   -18.0274 -18.0243 -18.0170 -18.0166 -18.0069 -17.9779 -17.9755 -17.9673
   -17.9646 -17.9575 -17.9478 -17.9224 -17.9214 -17.9123 -17.9026 -17.8811
   -17.8793 -17.8741 -17.8667 -17.8631 -17.8525 -17.8505 -17.8498 -17.8495
   -17.8483 -17.8466 -17.8405 -17.8350 -17.8314 -17.8153 -17.8123 -17.7913
   -17.7891 -17.7722 -17.7688 -17.7579 -17.7553 -17.7504 -17.7500 -12.1407
   -11.8805 -11.7576 -11.7437 -11.6945 -11.5967 -11.5613 -11.5459 -11.5391
   -11.5312 -11.5249 -11.5100 -11.5000 -11.4925 -11.4768 -11.4480 -11.4268
   -11.4217 -11.4080 -11.3902 -11.3872 -11.3617 -11.3537 -11.3477 -11.3273
   -11.3140 -11.3079 -11.3022 -11.2926 -11.2895 -11.2865 -11.2831 -11.2773
   -11.2402 -11.2351 -11.2280 -11.2225 -11.2176 -11.2006 -11.1996 -11.1973
   -11.1882 -11.1774 -11.1764 -11.1601 -11.1489 -11.1283 -11.1032 -11.0922
   -11.0917 -11.0708 -11.0274 -11.0042 -10.9976 -10.9675 -10.9573 -10.9532
   -10.9528 -10.9317 -10.9211 -10.9093 -10.8900 -10.8836 -10.8666 -10.8637
   -10.8584 -10.8526 -10.8444 -10.8425 -10.8418 -10.8404 -10.8392 -10.8315
   -10.8269 -10.8248 -10.8241 -10.8226 -10.8217 -10.8150 -10.8145 -10.8113
   -10.8091 -10.7750 -10.7746 -10.7738 -10.7735 -10.7058 -10.6284 -10.5725
   -10.5678 -10.5620 -10.5376 -10.5130 -10.5032 -10.4679 -10.4191 -10.3799
   -10.3109 -10.2779 -10.2652 -10.2036 -10.1812 -10.1640 -10.1627 -10.1454
   -10.1354 -10.1184 -10.1169 -10.0859 -10.0777 -10.0669 -10.0635 -10.0606
   -10.0548 -10.0473 -10.0427 -10.0182 -10.0012  -9.9697  -9.9591  -9.9580
    -9.9438  -9.9366  -9.9288  -9.9220  -9.9122  -9.8928  -9.8845  -9.8770
    -9.8670  -9.8428  -9.8243  -9.8107  -9.8048  -9.7952  -9.7946  -9.7641
    -9.7613  -9.7364  -9.7292  -9.7154  -9.7104  -9.6858  -9.6799  -9.6489
    -9.6455  -9.6430  -9.6372  -9.6199  -9.5997  -9.5893  -9.5801  -9.5707
    -9.5680  -9.5622  -9.5535  -9.5232  -9.5208  -9.5155  -9.5031  -9.5020
    -9.4967  -9.4916  -9.4897  -9.4848  -9.4697  -9.4617  -9.4525  -9.4149
    -9.3890  -9.3870  -9.3686  -9.3206  -9.3042  -9.2919  -9.2507  -9.2469
    -9.2383  -9.2359  -9.2310  -9.2188  -9.1963  -9.1839  -9.1724  -9.1609
    -9.1551  -9.1461  -9.1319  -9.1103  -9.0996  -9.0865  -9.0751  -9.0719
    -9.0666  -9.0572  -9.0518  -9.0227  -9.0129  -9.0084  -8.9993  -8.9846
    -8.9775  -8.9748  -8.9706  -8.9528  -8.9386  -8.9235  -8.9206  -8.9198
    -8.9169  -8.9132  -8.9058  -8.9020  -8.9002  -8.8990  -8.8947  -8.8892
    -8.8869  -8.8836  -8.8792  -8.8737  -8.8709  -8.8704  -8.8612  -8.8486
    -8.8357  -8.8241  -8.8203  -8.8196  -8.8177  -8.8135  -8.8123  -8.7940
    -8.7909  -8.7660  -8.7641  -8.7603  -8.7576  -8.7523  -8.7438  -8.7295
    -8.6878  -8.6775  -8.6577  -8.6243  -8.6187  -8.5361  -8.5335  -8.4909
    -8.4866  -8.4722  -8.4399  -8.3983  -8.3886  -8.3759  -8.3322  -8.3027
    -8.2823  -8.2169  -8.1636  -8.1586  -8.1579  -8.1502  -8.1487  -8.1389
    -8.1378  -8.1249  -8.0970  -8.0938  -8.0420  -8.0064  -8.0015  -7.9795
    -7.9530  -7.9232  -7.8850  -7.8768  -7.8716  -7.8693  -7.8629  -7.8579
    -7.8481  -7.8427  -7.8381  -7.8325  -7.8310  -7.8287  -7.8241  -7.8227
    -7.8193  -7.8162  -7.8140  -7.8121  -7.8076  -7.8008  -7.8003  -7.7978
    -7.7959  -7.7952  -7.7943  -7.7892  -7.7886  -7.7836  -7.7752  -7.7683
    -7.7654  -7.7583  -7.7565  -7.7499  -7.7451  -7.7274  -7.7269  -7.7261
    -7.7256  -7.6983  -7.6975  -7.6971  -7.6951  -7.6878  -7.6829  -7.6775
    -7.6660  -7.6538  -7.6448  -7.6387  -7.6382  -7.6364  -7.6306  -7.6264
    -7.6240  -7.6158  -7.6129  -7.6043  -7.5947  -7.5938  -7.5856  -7.5829
    -7.5726  -7.5640  -7.5105  -7.4923  -7.4886  -7.4854  -7.4835  -7.4657
    -7.4249  -7.3779  -7.3226  -7.2632  -7.2308  -7.2023  -7.2019  -7.1988
    -7.1911  -7.1751  -7.1538  -7.1509  -7.1435  -7.1364  -7.1306  -7.1013
    -7.0770  -7.0742  -7.0658  -7.0582  -7.0523  -7.0272  -7.0177  -7.0153
    -7.0071  -6.9996  -6.9712  -6.9486  -6.9456  -6.9288  -6.9200  -6.9102
    -6.9007  -6.8907  -6.8887  -6.8720  -6.8616  -6.8469  -6.8316  -6.8030
    -6.7964  -6.7800  -6.7468  -6.7096  -6.7000  -6.6864  -6.6819  -6.6593
    -6.6521  -6.6408  -6.6379  -6.6361  -6.6352  -6.6347  -6.6226  -6.6188
    -6.6180  -6.6176  -6.6112  -6.6098  -6.6097  -6.6096  -6.6056  -6.5663
    -6.5630  -6.5410  -6.5123  -6.4873  -6.4615  -6.4410  -6.4225  -6.3573
    -6.3549  -6.3504  -6.3482  -6.3373  -6.3309  -6.3086  -6.3080  -6.3053
    -6.3038  -6.3026  -6.3006  -6.2880  -6.2826  -6.2767  -6.2668  -6.2562
    -6.2416  -6.2361  -6.2341  -6.2255  -6.2191  -6.1292  -6.0436  -6.0257
    -6.0069  -5.9976  -5.9613  -5.9417  -5.9299  -5.8874  -5.8811  -5.8674
    -5.7792  -5.7670  -5.7101  -5.6756  -5.6284  -5.6222  -5.5077  -5.4339
    -5.3674  -4.3995  -4.1278  -4.1193  -4.1163  -4.0960  -3.9764  -3.9593
    -3.9525  -3.9440  -3.9377  -3.8935  -3.8728  -3.8712  -3.8587  -3.8544
    -3.8419  -3.8379  -3.8287  -3.8271  -3.8245  -3.7704  -3.7383  -3.7142
    -3.7101  -3.6707  -3.6452  -3.6325  -3.6295  -3.6285  -3.6242  -3.5828
    -3.5808  -3.5773  -3.5729  -3.5510  -3.5477  -3.5448  -3.5424  -3.5343
    -3.5265  -3.5110  -3.5070  -3.5041  -3.5003  -3.4992  -3.4972  -3.4844
    -3.4747  -3.4730  -3.4618  -3.4532  -3.4487  -3.4435  -3.4323  -3.4029
    -3.4001  -3.3835  -3.3783  -3.3757  -3.3725  -3.3718  -3.3685  -3.3657
    -3.3372  -3.3318  -3.3203  -3.3173  -3.3124  -3.3101  -3.3094  -3.3056
    -3.3039  -3.3009  -3.2869  -3.2741  -3.2650  -3.2642  -3.2620  -3.2530
    -3.2509  -3.2426  -3.2392  -3.2382  -3.2279  -3.2212  -3.2150  -3.2088
    -3.1983  -3.1953  -3.1935  -3.1911  -3.1908  -3.1853  -3.1614  -3.1337
    -3.1247  -3.1168  -3.1012  -3.0978  -3.0928  -3.0912  -3.0888  -3.0538
    -3.0534  -3.0518  -3.0511  -3.0506  -3.0499  -3.0407  -3.0393  -3.0392
    -3.0353  -3.0338  -3.0251  -3.0201  -3.0160  -3.0082  -3.0060  -3.0011
    -3.0002  -2.9974  -2.9950  -2.9887  -2.9868  -2.9783  -2.9758  -2.9742
    -2.9690  -2.9608  -2.9592  -2.9553  -2.9415  -2.9283  -2.9226  -2.9178
    -2.9109  -2.9064  -2.9011  -2.8933  -2.8835  -2.8273  -2.8243  -2.8200
    -2.8153  -2.7736  -2.7646  -2.7445  -2.7427  -2.6496  -2.6404  -2.6326
    -2.6211  -2.6011  -2.5991  -2.5937  -2.5783  -2.5694  -2.5689  -2.5555
    -2.5548  -2.5509  -2.5482  -2.4973  -2.4388  -2.4292  -2.4231  -2.4211
    -2.4111  -2.4044  -2.3806  -2.3710

          k =-0.5000-0.8660 0.0000 (386352 PWs)   bands (ev):

  -102.4661 -88.8833 -70.7970 -70.7959 -70.7721 -70.7674 -70.7531 -70.7421
   -70.7290 -66.6502 -66.6502 -66.6502 -66.6501 -66.6489 -66.6489 -66.6487
   -66.6425 -66.6395 -66.6395 -66.6395 -66.6395 -66.6383 -66.6383 -66.6316
   -66.6267 -66.6245 -66.6244 -66.6244 -66.6244 -66.6244 -66.6244 -66.6243
   -66.6243 -66.6231 -66.6231 -66.6231 -66.6231 -66.6216 -66.6200 -66.6200
   -66.6200 -66.6199 -66.6191 -66.6187 -66.6187 -66.6172 -66.6138 -66.6137
   -66.6137 -66.6137 -66.6137 -66.6137 -66.6136 -66.6136 -66.6124 -66.6124
   -66.6124 -66.6124 -66.6093 -66.6093 -66.6093 -66.6092 -66.6082 -66.6080
   -66.6080 -66.6028 -66.6003 -66.5977 -66.5949 -66.5940 -66.5843 -66.5687
   -66.5575 -56.7620 -56.6847 -56.6446 -54.7070 -54.6980 -54.6241 -40.9523
   -40.9521 -40.9521 -40.9521 -40.9521 -40.9521 -40.9521 -40.9520 -40.9515
   -40.9515 -40.9515 -40.9515 -40.9448 -40.9413 -40.9342 -40.9254 -40.9253
   -40.9253 -40.9252 -40.9247 -40.9247 -40.9231 -40.9173 -40.9133 -40.9132
   -40.9132 -40.9132 -40.9126 -40.9126 -40.9115 -40.8920 -40.8762 -40.8626
   -40.8626 -40.8626 -40.8626 -40.8626 -40.8625 -40.8625 -40.8625 -40.8619
   -40.8619 -40.8619 -40.8619 -40.8448 -40.8402 -40.8383 -40.8354 -40.8110
   -40.8059 -40.8039 -40.8038 -40.8038 -40.8037 -40.8032 -40.8032 -40.7943
   -40.7943 -40.7943 -40.7943 -40.7935 -40.7935 -40.7900 -40.7830 -40.7830
   -40.7829 -40.7829 -40.7823 -40.7823 -40.7773 -40.7758 -40.7712 -40.7676
   -40.7563 -40.7534 -40.7534 -40.7533 -40.7533 -40.7533 -40.7533 -40.7533
   -40.7533 -40.7527 -40.7527 -40.7527 -40.7527 -40.7519 -40.7490 -40.7447
   -40.7446 -40.7446 -40.7445 -40.7441 -40.7440 -40.7439 -40.7408 -40.7328
   -40.7328 -40.7328 -40.7328 -40.7325 -40.7323 -40.7323 -40.7323 -40.7323
   -40.7323 -40.7322 -40.7321 -40.7320 -40.7320 -40.7316 -40.7316 -40.7316
   -40.7316 -40.7316 -40.7282 -40.7265 -40.7236 -40.7236 -40.7236 -40.7236
   -40.7231 -40.7229 -40.7229 -40.7180 -40.7157 -40.7112 -40.7071 -40.7019
   -40.7019 -40.7019 -40.7019 -40.7018 -40.7018 -40.7018 -40.7018 -40.7010
   -40.7010 -40.7010 -40.7010 -40.6882 -40.6871 -40.6817 -40.6796 -40.6672
   -40.6671 -40.6671 -40.6671 -40.6671 -40.6671 -40.6671 -40.6671 -40.6662
   -40.6662 -40.6662 -40.6662 -40.6551 -40.6550 -40.6550 -40.6549 -40.6541
   -40.6540 -40.6520 -40.6493 -40.6447 -40.6379 -40.6357 -40.6356 -40.6356
   -40.6356 -40.6347 -40.6347 -40.6344 -40.6225 -40.6190 -40.6187 -40.6187
   -40.6187 -40.6186 -40.6177 -40.6177 -40.6133 -40.5950 -40.5880 -40.5880
   -40.5880 -40.5879 -40.5870 -40.5870 -40.5781 -40.5698 -40.5567 -20.0777
   -19.9197 -19.8996 -19.8603 -19.8012 -19.7694 -19.6911 -19.6786 -19.5191
   -19.4979 -19.4570 -19.4459 -19.3664 -19.3548 -19.2642 -19.2577 -19.0972
   -18.9087 -18.8619 -18.8083 -18.7888 -18.7695 -18.7557 -18.7517 -18.7503
   -18.7376 -18.7138 -18.6922 -18.6867 -18.6787 -18.6674 -18.6529 -18.6223
   -18.6123 -18.6009 -18.5864 -18.5851 -18.5770 -18.5603 -18.5462 -18.5425
   -18.5140 -18.5101 -18.5031 -18.4999 -18.4688 -18.4432 -18.4392 -18.4356
   -18.4161 -18.4099 -18.3819 -18.3649 -18.3533 -18.3525 -18.3125 -18.2869
   -18.2807 -18.2733 -18.2613 -18.2310 -18.2229 -18.2132 -18.1914 -18.1639
   -18.1490 -18.1470 -18.1390 -18.1344 -18.1324 -18.1293 -18.1268 -18.1205
   -18.1058 -18.1026 -18.0989 -18.0967 -18.0953 -18.0864 -18.0792 -18.0749
   -18.0710 -18.0687 -18.0596 -18.0409 -18.0380 -18.0360 -18.0318 -18.0306
   -18.0262 -18.0244 -18.0182 -18.0161 -18.0074 -17.9763 -17.9736 -17.9667
   -17.9651 -17.9591 -17.9491 -17.9223 -17.9194 -17.9137 -17.9042 -17.8817
   -17.8782 -17.8752 -17.8691 -17.8621 -17.8520 -17.8502 -17.8500 -17.8497
   -17.8480 -17.8468 -17.8405 -17.8351 -17.8304 -17.8151 -17.8118 -17.7911
   -17.7890 -17.7720 -17.7688 -17.7578 -17.7554 -17.7504 -17.7500 -12.1449
   -11.8590 -11.7529 -11.7411 -11.7027 -11.6076 -11.5901 -11.5501 -11.5302
   -11.5271 -11.5243 -11.5153 -11.5066 -11.4984 -11.4768 -11.4397 -11.4263
   -11.4197 -11.4070 -11.3962 -11.3769 -11.3731 -11.3513 -11.3400 -11.3267
   -11.3100 -11.3047 -11.3005 -11.2926 -11.2892 -11.2881 -11.2794 -11.2731
   -11.2436 -11.2333 -11.2242 -11.2200 -11.2076 -11.2041 -11.2000 -11.1970
   -11.1872 -11.1766 -11.1762 -11.1669 -11.1460 -11.1219 -11.1058 -11.0946
   -11.0886 -11.0702 -11.0391 -11.0146 -10.9737 -10.9711 -10.9682 -10.9493
   -10.9450 -10.9284 -10.9240 -10.9100 -10.8990 -10.8877 -10.8670 -10.8641
   -10.8571 -10.8531 -10.8434 -10.8426 -10.8425 -10.8406 -10.8382 -10.8309
   -10.8280 -10.8247 -10.8244 -10.8225 -10.8216 -10.8148 -10.8145 -10.8117
   -10.8099 -10.7750 -10.7744 -10.7739 -10.7737 -10.7029 -10.6169 -10.5772
   -10.5666 -10.5589 -10.5359 -10.5154 -10.4957 -10.4597 -10.4248 -10.4102
   -10.3209 -10.2897 -10.2671 -10.2054 -10.1744 -10.1638 -10.1605 -10.1423
   -10.1338 -10.1150 -10.1144 -10.0854 -10.0791 -10.0646 -10.0611 -10.0601
   -10.0575 -10.0490 -10.0382 -10.0160 -10.0000  -9.9626  -9.9595  -9.9559
    -9.9373  -9.9343  -9.9289  -9.9228  -9.9145  -9.8919  -9.8852  -9.8790
    -9.8678  -9.8416  -9.8259  -9.8102  -9.8041  -9.7965  -9.7923  -9.7717
    -9.7562  -9.7456  -9.7269  -9.7112  -9.7088  -9.6874  -9.6789  -9.6517
    -9.6482  -9.6408  -9.6378  -9.6166  -9.5994  -9.5905  -9.5758  -9.5718
    -9.5665  -9.5630  -9.5541  -9.5231  -9.5210  -9.5177  -9.5028  -9.5024
[...]
     atom  170 type  1   force =    -0.00001537   -0.00001744    0.00000596
     atom  171 type  2   force =    -0.00000449    0.00000020    0.00000450
     atom  172 type  2   force =    -0.00000047    0.00000026    0.00161532
     atom  173 type  2   force =    -0.00000068   -0.00000023   -0.00235943
     atom  174 type  2   force =    -0.00000362   -0.00000111   -0.00001288
     atom  175 type  1   force =    -0.00000506    0.00000274   -0.00000223
     atom  176 type  1   force =    -0.00019007   -0.00003617   -0.00009149
     atom  177 type  2   force =    -0.00002085    0.00004225    0.00010742
     atom  178 type  2   force =    -0.00000297   -0.00000717    0.00001276
     atom  179 type  2   force =     0.00001058    0.00001642    0.00000044
     atom  180 type  2   force =    -0.00004560    0.00024596    0.00018058
     atom  181 type  1   force =     0.00000072    0.00000048    0.00068870
     atom  182 type  1   force =    -0.00001026   -0.00000840   -0.00000137
     atom  183 type  2   force =    -0.00000251   -0.00000121    0.00000550
     atom  184 type  2   force =    -0.00000066    0.00000061    0.00161531
     atom  185 type  2   force =    -0.00000081    0.00000001   -0.00235932
     atom  186 type  2   force =    -0.00000173   -0.00000193   -0.00000295
     atom  187 type  1   force =    -0.00000453    0.00000185    0.00002089
     atom  188 type  1   force =    -0.00005951    0.00005000   -0.00007627
     atom  189 type  2   force =    -0.00009229   -0.00010584   -0.00012840
     atom  190 type  2   force =     0.00001641   -0.00000320    0.00000426
     atom  191 type  2   force =    -0.00001863    0.00000846    0.00000117
     atom  192 type  2   force =     0.00003932   -0.00000412    0.00008118
     atom  193 type  3   force =    -0.00044203    0.00035338   -0.00066154
     atom  194 type  4   force =     0.00040005    0.00010385   -0.00002435

     Total force =     0.002075     Total SCF correction =     0.000561
     SCF correction compared to forces is large: reduce conv_thr to get better values
     Energy error            =      4.8E-06 Ry
     Gradient error          =      7.6E-04 Ry/Bohr

     bfgs converged in  20 scf cycles and  19 bfgs steps
     (criteria: energy <  1.0E-04 Ry, force <  1.0E-03 Ry/Bohr)

     End of BFGS Geometry Optimization

     Final energy             =  -33980.2985000849 Ry

     File ./outdir/pwscf.bfgs deleted, as requested
Begin final coordinates

ATOMIC_POSITIONS (angstrom)
Mo               0.0000119917        1.8193638619       -9.1672481230    0   0   0
Mo               1.5756136568        0.9097075315       -3.0554901653    0   0   0
S                0.0000188998        1.8193822938       -4.6232556019    0   0   0
S                1.5756321638        0.9096773839       -7.6014065489    0   0   0
S                1.5756326175        0.9096785128      -10.7330757790    0   0   0
S                0.0000189190        1.8193860094       -1.4877129945    0   0   0
Mo              -0.0000048142        1.8196269940        3.0562718635
Mo               1.5756177706        0.9043132723        9.1518479145
S               -0.0004474896        1.8161217240        7.5843021088
S                1.5758453025        0.9096430901        4.6234184490
S                1.5754196763        0.9097368266        1.4882985635
S                0.0026668013        1.7848667859       10.7312896096
Mo              -1.5756053507        4.5484193819       -9.1672481230    0   0   0
Mo               0.0000378379        3.6387394919       -3.0554952701    0   0   0
S               -1.5755913433        4.5484363582       -4.6232494962    0   0   0
S                0.0000148214        3.6387329039       -7.6014065489    0   0   0
S                0.0000152751        3.6387340328      -10.7330757790    0   0   0
S               -1.5755906502        4.5484413613       -1.4877305502    0   0   0
Mo              -1.5754201299        4.5488413514        3.0564494814
Mo               0.0029063777        3.6103880684        9.1770828705
S               -1.5741004976        4.5669700732        7.6413725032
S               -0.0000483121        3.6392451518        4.6246885573
S               -0.0000332011        3.6389473529        1.4886232111
S               -1.5820765358        4.4165767492       10.7959968771
Mo              -3.1512226931        7.2774749019       -9.1672481230    0   0   0
Mo              -1.5755910988        6.3678216792       -3.0555115988    0   0   0
S               -3.1512162438        7.2774954350       -4.6232578178    0   0   0
S               -1.5756025210        6.3677884239       -7.6014065489    0   0   0
S               -1.5756020673        6.3677895528      -10.7330757790    0   0   0
S               -3.1512127704        7.2774877076       -1.4877200710    0   0   0
Mo              -3.1509050781        7.2771618588        3.0558004755
Mo              -1.5860312463        6.3692252040        9.2158065296
S               -3.1335317455        7.2621528440        7.6388933572
S               -1.5754555783        6.3680481143        4.6248158924
S               -1.5753197887        6.3676845625        1.4882378203
S               -3.2450131143        7.3288935689       10.8174165207
Mo              -4.7268400355       10.0065304219       -9.1672481230    0   0   0
Mo              -3.1512405618        9.0968403586       -3.0554816746    0   0   0
S               -4.7268341792       10.0065523623       -4.6232463762    0   0   0
S               -3.1512198634        9.0968439439       -7.6014065489    0   0   0
S               -3.1512194097        9.0968450728      -10.7330757790    0   0   0
S               -4.7268370797       10.0065537885       -1.4877176751    0   0   0
Mo              -4.7267841938       10.0063363147        3.0559484787
Mo              -3.1565226981        9.1059572741        9.1709428144
S               -4.7261301545        9.9976450150        7.5889184950
S               -3.1512319324        9.0959675215        4.6235978270
S               -3.1510978477        9.0967438400        1.4882255658
S               -4.7333563249       10.0163082762       10.7316768473
Mo               3.1512517547        1.8193638619       -9.1672481230    0   0   0
Mo               4.7269020221        0.9097289540       -3.0554823951    0   0   0
S                3.1512612351        1.8193882564       -4.6232320683    0   0   0
S                4.7268719268        0.9096773839       -7.6014065489    0   0   0
S                4.7268723805        0.9096785128      -10.7330757790    0   0   0
S                3.1512592485        1.8193890201       -1.4877261251    0   0   0
Mo               3.1511442887        1.8196572338        3.0557646793
Mo               4.7232023764        0.9167589795        9.1479392153
S                3.1469902253        1.8246171869        7.5815003415
S                4.7270272886        0.9102568206        4.6229444552
S                4.7266489237        0.9095070065        1.4880072344
S                3.1539953943        1.8066800873       10.7262527595
Mo               1.5756344123        4.5484193819       -9.1672481230    0   0   0
Mo               3.1512756394        3.6387769522       -3.0554814834    0   0   0
S                1.5756504879        4.5484423799       -4.6232390542    0   0   0
S                3.1512545844        3.6387329039       -7.6014065489    0   0   0
S                3.1512550381        3.6387340328      -10.7330757790    0   0   0
S                1.5756466253        4.5484431864       -1.4877251801    0   0   0
Mo               1.5753806670        4.5487478652        3.0564189108
Mo               3.1595805996        3.6269064396        9.1657845722
S                1.5733298115        4.5612839902        7.6312356805
S                3.1509696070        3.6391262798        4.6238721772
S                3.1508943029        3.6391225980        1.4883066871
S                1.5821342574        4.4592556204       10.7686565847
Mo               0.0000170699        7.2774749019       -9.1672481230    0   0   0
Mo               1.5756764447        6.3678236689       -3.0554877708    0   0   0
S                0.0000381981        7.2774979204       -4.6232454413    0   0   0
S                1.5756372420        6.3677884239       -7.6014065489    0   0   0
S                1.5756376957        6.3677895528      -10.7330757790    0   0   0
S                0.0000328088        7.2774946042       -1.4877307940    0   0   0
Mo              -0.0000810860        7.2773262004        3.0562708923
Mo               1.5952422663        6.3693022412        9.2107268163
S               -0.0036203285        7.2631787138        7.6592207968
S                1.5754108046        6.3680257651        4.6245686374
S                1.5752908294        6.3676765546        1.4882917947
S                0.0383151356        7.4274579555       10.7652910035
Mo              -1.5756002725       10.0065304219       -9.1672481230    0   0   0
Mo               0.0000873425        9.0968676911       -3.0554912329    0   0   0
S               -1.5755883952       10.0065504530       -4.6232240150    0   0   0
S                0.0000198996        9.0968439439       -7.6014065489    0   0   0
S                0.0000203533        9.0968450728      -10.7330757790    0   0   0
S               -1.5755859047       10.0065492576       -1.4877362381    0   0   0
Mo              -1.5756449115       10.0064124100        3.0562331119
Mo              -0.0003468921        9.1488586688        9.1484086342
S               -1.5894712863       10.0148600419        7.5785085385
S               -0.0001065956        9.0964321083        4.6243029620
S               -0.0000422391        9.0967864575        1.4885572304
S               -1.5801840933       10.0314433694       10.7223484350
Mo               6.3024915177        1.8193638619       -9.1672481230    0   0   0
Mo               7.8781001445        0.9096521684       -3.0554919963    0   0   0
S                6.3025008696        1.8193826232       -4.6232480596    0   0   0
S                7.8781116898        0.9096773839       -7.6014065489    0   0   0
S                7.8781121435        0.9096785128      -10.7330757790    0   0   0
S                6.3025042007        1.8193849068       -1.4877147524    0   0   0
Mo               6.3024501350        1.8197162942        3.0552311521
Mo               7.8815146813        0.9163022715        9.1448685023
S                6.3015456002        1.8299388452        7.5809489790
S                7.8777751218        0.9102472078        4.6231032075
S                7.8783558817        0.9095974292        1.4881159956
S                6.3029139092        1.8182156445       10.7187386929
Mo               4.7268741753        4.5484193819       -9.1672481230    0   0   0
Mo               6.3024679138        3.6387501714       -3.0554895197    0   0   0
S                4.7268748770        4.5484386753       -4.6232519432    0   0   0
S                6.3024943474        3.6387329039       -7.6014065489    0   0   0
S                6.3024948011        3.6387340328      -10.7330757790    0   0   0
S                4.7268770533        4.5484432419       -1.4877137856    0   0   0
Mo               4.7267043935        4.5486224676        3.0560180644
Mo               6.3018564915        3.6401745469        9.1618942567
S                4.7267609345        4.5535761827        7.5955149151
S                6.3024020747        3.6389581074        4.6232908468
S                6.3025614705        3.6392836100        1.4880044536
S                4.7293316779        4.5428505080       10.7340192407
Mo               3.1512568329        7.2774749019       -9.1672481230    0   0   0
Mo               4.7268384135        6.3678043337       -3.0554959052    0   0   0
S                3.1512606125        7.2774972547       -4.6232589675    0   0   0
S                4.7268770050        6.3677884239       -7.6014065489    0   0   0
S                4.7268774587        6.3677895528      -10.7330757790    0   0   0
S                3.1512629079        7.2774963749       -1.4877081835    0   0   0
Mo               3.1509835303        7.2771977804        3.0557931893
Mo               4.7351709346        6.3696390167        9.1743160210
S                3.1409025681        7.2676697801        7.6267714234
S                4.7264584325        6.3678514111        4.6240050791
S                4.7269033920        6.3677882760        1.4882421267
S                3.2214932252        7.3119656329       10.7938330881
Mo               1.5756394905       10.0065304219       -9.1672481230    0   0   0
Mo               3.1512330605        9.0968514907       -3.0554878870    0   0   0
S                1.5756499830       10.0065443759       -4.6232632674    0   0   0
S                3.1512596626        9.0968439439       -7.6014065489    0   0   0
S                3.1512601163        9.0968450728      -10.7330757790    0   0   0
S                1.5756503041       10.0065459699       -1.4877044377    0   0   0
Mo               1.5755823073       10.0064266431        3.0562551192
Mo               3.1555099748        9.1031735085        9.1692441863
S                1.5881378675       10.0138420640        7.5760742055
S                3.1514286716        9.0961856808        4.6233861966
S                3.1509674718        9.0967008802        1.4881168848
S                1.5813434374       10.0351046389       10.7216606453
Mo               9.4537312807        1.8193638619       -9.1672481230    0   0   0
Mo              11.0293863460        0.9096952246       -3.0554894007    0   0   0
S                9.4537395970        1.8193770750       -4.6232328036    0   0   0
S               11.0293514528        0.9096773839       -7.6014065489    0   0   0
S               11.0293519066        0.9096785128      -10.7330757790    0   0   0
S                9.4537393632        1.8193794783       -1.4877366147    0   0   0
Mo               9.4537962707        1.8197088448        3.0559833466
Mo              11.0293683177        0.9051385478        9.1542288277
S                9.4591839828        1.8256244667        7.5817849841
S               11.0292241561        0.9094596208        4.6232976144
S               11.0294462400        0.9099626580        1.4882307165
S                9.4473026269        1.8032760389       10.7263824746
Mo               7.8781139383        4.5484193819       -9.1672481230    0   0   0
Mo               9.4537539161        3.6387607911       -3.0554933032    0   0   0
S                7.8781175448        4.5484378232       -4.6232366318    0   0   0
S                9.4537341104        3.6387329039       -7.6014065489    0   0   0
S                9.4537345641        3.6387340328      -10.7330757790    0   0   0
S                7.8781194018        4.5484411585       -1.4877377057    0   0   0
Mo               7.8782425326        4.5486713572        3.0561788613
Mo               9.4413261192        3.6256976089        9.1692169890
S                7.8780460847        4.5540788641        7.5981282523
S                9.4540318180        3.6393136745        4.6240636718
S                9.4539478733        3.6391173289        1.4884612627
S                7.8731525119        4.5417487282       10.7363055373
Mo               6.3024965959        7.2774749019       -9.1672481230    0   0   0
Mo               7.8781361655        6.3678242352       -3.0555014130    0   0   0
S                6.3024973331        7.2774953556       -4.6232392528    0   0   0
S                7.8781167680        6.3677884239       -7.6014065489    0   0   0
S                7.8781172217        6.3677895528      -10.7330757790    0   0   0
S                6.3024989866        7.2774929744       -1.4877349119    0   0   0
Mo               6.3025243323        7.2773209940        3.0562046131
Mo               7.8674673828        6.3673078138        9.1789173198
S                6.3043089648        7.2718973290        7.5977444302
S                7.8786576244        6.3679636927        4.6240837007
S                7.8781005493        6.3677271118        1.4882724657
S                6.2994436429        7.2836019709       10.7443763236
Mo               4.7268792535       10.0065304219       -9.1672481230    0   0   0
Mo               6.3025111524        9.0968738021       -3.0554915260    0   0   0
S                4.7268840634       10.0065452125       -4.6232380477    0   0   0
S                6.3024994256        9.0968439439       -7.6014065489    0   0   0
S                6.3024998793        9.0968450728      -10.7330757790    0   0   0
S                4.7268847312       10.0065459141       -1.4877283294    0   0   0
Mo               4.7268235510       10.0063737328        3.0555993623
Mo               6.3025996742        9.0949858294        9.1628386801
S                4.7263966058        9.9994050457        7.5910691545
S                6.3023459310        9.0967254099        4.6233814965
S                6.3026274607        9.0966015649        1.4881334418
S                4.7316487385       10.0138219050       10.7317104495
Pd               1.4519964765        6.3342171117       12.1767208727
Pt              -1.4714288242        6.3450041367       12.0371731803
End final coordinates



     Writing all to output data dir ./outdir/pwscf.save/ :
     XML data file, charge density, pseudopotentials, collected wavefunctions
 
     init_run     :    171.85s CPU    175.11s WALL (       1 calls)
     electrons    : 157443.05s CPU 159394.04s WALL (      20 calls)
     update_pot   :     32.01s CPU     33.02s WALL (      19 calls)
     forces       :   2537.39s CPU   2582.24s WALL (      20 calls)
     force_dftd3  :     13.32s CPU     13.85s WALL (      20 calls)

     Called by init_run:
     wfcinit      :    148.19s CPU    150.07s WALL (       1 calls)
     potinit      :      1.29s CPU      1.38s WALL (       1 calls)
     hinit0       :     12.76s CPU     12.84s WALL (       1 calls)

     Called by electrons:
     c_bands      : 138921.41s CPU 140218.90s WALL (     262 calls)
     sum_band     :  16537.10s CPU  16875.86s WALL (     262 calls)
     v_of_rho     :     95.36s CPU    107.01s WALL (     267 calls)
     newd         :   1677.62s CPU   1985.36s WALL (     267 calls)
     PAW_pot      :    246.41s CPU    248.70s WALL (     286 calls)
     mix_rho      :     25.81s CPU     29.66s WALL (     262 calls)
     energy_dftd3 :      7.67s CPU      7.69s WALL (      20 calls)

     Called by c_bands:
     init_us_2    :    564.73s CPU    567.37s WALL (    2256 calls)
     init_us_2:cp :    564.71s CPU    567.35s WALL (    2256 calls)
     cegterg      : 136597.08s CPU 137880.48s WALL (    1072 calls)

     Called by *egterg:
     cdiaghg      :   8209.16s CPU   8505.23s WALL (   13174 calls)
     h_psi        :  69089.39s CPU  69516.24s WALL (   13319 calls)
     s_psi        :  15478.93s CPU  15571.85s WALL (   13319 calls)
     g_psi        :    125.43s CPU    126.00s WALL (   12243 calls)

     Called by h_psi:
     h_psi:calbec :  15384.81s CPU  15432.55s WALL (   13319 calls)
     vloc_psi     :  37913.28s CPU  38096.90s WALL (   13319 calls)
     add_vuspsi   :  15502.63s CPU  15599.62s WALL (   13319 calls)

     General routines
     calbec       :  22106.82s CPU  22175.53s WALL (   14763 calls)
     fft          :    101.83s CPU    112.39s WALL (    3685 calls)
     ffts         :      4.84s CPU      5.18s WALL (     529 calls)
     fftw         :  28435.37s CPU  28573.87s WALL ( 7464636 calls)
     interpolate  :      8.35s CPU      9.16s WALL (     267 calls)
 
     Parallel routines
 
     PWSCF        :   1d20h42m CPU   1d21h17m WALL

 
   This run was terminated on:   0:38:24  18Mar2024            

=------------------------------------------------------------------------------=
   JOB DONE.
=------------------------------------------------------------------------------=
