
     Program PWSCF v.7.2 starts on 29Aug2023 at  3:27:40 

     This program is part of the open-source Quantum ESPRESSO suite
     for quantum simulation of materials; please cite
         "P. Giannozzi et al., J. Phys.:Condens. Matter 21 395502 (2009);
         "P. Giannozzi et al., J. Phys.:Condens. Matter 29 465901 (2017);
         "P. Giannozzi et al., J. Chem. Phys. 152 154105 (2020);
          URL http://www.quantum-espresso.org", 
     in publications or presentations arising from this work. More details at
     http://www.quantum-espresso.org/quote

     Parallel version (MPI), running on    36 processors

     MPI processes distributed on     1 nodes
     769582 MiB available memory on the printing compute node when the environment starts
 
     Waiting for input...
     Reading input from standard input
Warning: card &CELL ignored
Warning: card / ignored

     Current dimensions of program PWSCF are:
     Max number of different atomic species (ntypx) = 10
     Max number of k-points (npk) =  40000
     Max angular momentum in pseudopotentials (lmaxx) =  4
     file Mo.pbe-spn-kjpaw_psl.1.0.0.UPF: wavefunction(s)  4S 4D renormalized
     file S.pbe-n-kjpaw_psl.1.0.0.UPF: wavefunction(s)  3S 3P renormalized
     file Pd.pbe-spn-kjpaw_psl.1.0.0.UPF: wavefunction(s)  4S 5S 4D renormalized
     file H.pbe-kjpaw_psl.1.0.0.UPF: wavefunction(s)  1S renormalized
 
     R & G space division:  proc/nbgrp/npool/nimage =      36
     Subspace diagonalization in iterative solution of the eigenvalue problem:
     one sub-group per band group will be used
     custom distributed-memory algorithm (size of sub-group:  6*  6 procs)

 
     Parallelization info
     --------------------
     sticks:   dense  smooth     PW     G-vecs:    dense   smooth      PW
     Min         586     335     89               165416    71459    9765
     Max         587     337     90               165425    71461    9778
     Sum       21109   12085   3205              5955087  2572543  351657
 
     Using Slab Decomposition
 


     bravais-lattice index     =            0
     lattice parameter (alat)  =      23.8395  a.u.
     unit-cell volume          =   28182.8498 (a.u.)^3
     number of atoms/cell      =          146
     number of atomic types    =            4
     number of electrons       =      1267.00
     number of Kohn-Sham states=          761
     kinetic-energy cutoff     =      77.0000  Ry
     charge density cutoff     =     539.0000  Ry
     scf convergence threshold =      1.0E-06
     mixing beta               =       0.2000
     number of iterations used =            8  plain     mixing
     energy convergence thresh.=      1.0E-04
     force convergence thresh. =      1.0E-03
     Exchange-correlation= SLA  PW   PBX  PBC
                           (   1   4   3   4   0   0   0)
     nstep                     =         1000


     Effective Screening Medium Method
     =================================
     Boundary Conditions: Vacuum-Slab-Vacuum
     total charge in unit cell        =   0.0000
     grid points for fit at edges     =        4 
 

     celldm(1)=  23.839504  celldm(2)=   0.000000  celldm(3)=   0.000000
     celldm(4)=   0.000000  celldm(5)=   0.000000  celldm(6)=   0.000000

     crystal axes: (cart. coord. in units of alat)
               a(1) = (   1.000000   0.000000   0.000000 )  
               a(2) = (  -0.500001   0.866026   0.000000 )  
               a(3) = (   0.000000   0.000000   2.401941 )  

     reciprocal axes: (cart. coord. in units 2 pi/alat)
               b(1) = (  1.000000  0.577351  0.000000 )  
               b(2) = (  0.000000  1.154700  0.000000 )  
               b(3) = (  0.000000  0.000000  0.416330 )  


     PseudoPot. # 1 for Mo read from file:
     ./pseudo/Mo.pbe-spn-kjpaw_psl.1.0.0.UPF
     MD5 check sum: 317bf72632116215fd98f72de1686f13
     Pseudo is Projector augmented-wave + core cor, Zval = 14.0
     Generated using 'atomic' code by A. Dal Corso  v.7.2
     Shape of augmentation charge: PSQ
     Using radial grid of 1229 points,  6 beta functions with: 
                l(1) =   0
                l(2) =   0
                l(3) =   1
                l(4) =   1
                l(5) =   2
                l(6) =   2
     Q(r) pseudized with 0 coefficients 


     PseudoPot. # 2 for S  read from file:
     ./pseudo/S.pbe-n-kjpaw_psl.1.0.0.UPF
     MD5 check sum: 8b7b5302570d38d5e87fed6a1065abda
     Pseudo is Projector augmented-wave + core cor, Zval =  6.0
     Generated using 'atomic' code by A. Dal Corso  v.7.2
     Shape of augmentation charge: PSQ
     Using radial grid of 1151 points,  6 beta functions with: 
                l(1) =   0
                l(2) =   0
                l(3) =   1
                l(4) =   1
                l(5) =   2
                l(6) =   2
     Q(r) pseudized with 0 coefficients 


     PseudoPot. # 3 for Pd read from file:
     ./pseudo/Pd.pbe-spn-kjpaw_psl.1.0.0.UPF
     MD5 check sum: a60571a671f2502b8a6a4569d20a6edb
     Pseudo is Projector augmented-wave + core cor, Zval = 18.0
     Generated using 'atomic' code by A. Dal Corso  v.7.2
     Shape of augmentation charge: PSQ
     Using radial grid of 1235 points,  6 beta functions with: 
                l(1) =   0
                l(2) =   0
                l(3) =   1
                l(4) =   1
                l(5) =   2
                l(6) =   2
     Q(r) pseudized with 0 coefficients 


     PseudoPot. # 4 for H  read from file:
     ./pseudo/H.pbe-kjpaw_psl.1.0.0.UPF
     MD5 check sum: b3cb3c48ee3b58cc53e4d592112d0ca6
     Pseudo is Projector augmented-wave, Zval =  1.0
     Generated using 'atomic' code by A. Dal Corso  v.7.2
     Shape of augmentation charge: PSQ
     Using radial grid of  929 points,  2 beta functions with: 
                l(1) =   0
                l(2) =   0
     Q(r) pseudized with 0 coefficients 


     atomic species   valence    mass     pseudopotential
        Mo            14.00    95.95000     Mo( 1.00)
        S              6.00    32.06000     S ( 1.00)
        Pd            18.00   106.42000     Pd( 1.00)
        H              1.00     1.00800     H ( 1.00)

     No symmetry found



   Cartesian axes

     site n.     atom                  positions (alat units)
         1           Mo  tau(   1) = (   0.1244805   0.2154429   0.4826124  )
         2           Mo  tau(   2) = (   0.1250004   0.0721694  -0.4825273  )
         3           Mo  tau(   3) = (   0.0000154   0.1443583  -0.0000534  )
         4           S   tau(   4) = (   0.0000004   0.0000006  -0.6064556  )
         5           S   tau(   5) = (   0.1249822   0.0722030  -0.1241916  )
         6           S   tau(   6) = (   0.0001873   0.1444894   0.3573292  )
         7           S   tau(   7) = (   0.0000004   0.0000005  -0.3584711  )
         8           S   tau(   8) = (   0.1250220   0.0721432   0.1241096  )
         9           S   tau(   9) = (  -0.0009222   0.1433430   0.6062350  )
        10           Mo  tau(  10) = (  -0.0011812   0.4330952   0.4826123  )
        11           Mo  tau(  11) = (   0.0000001   0.2886759  -0.4825273  )
        12           Mo  tau(  12) = (  -0.1249761   0.3608493  -0.0000533  )
        13           S   tau(  13) = (  -0.1249999   0.2165071  -0.6064556  )
        14           S   tau(  14) = (   0.0000232   0.2886904  -0.1241345  )
        15           S   tau(  15) = (  -0.1247753   0.3609305   0.3573291  )
        16           S   tau(  16) = (  -0.1249998   0.2165070  -0.3584711  )
        17           S   tau(  17) = (   0.0000901   0.2887289   0.1242236  )
        18           S   tau(  18) = (  -0.1263226   0.3605428   0.6062351  )
        19           Mo  tau(  19) = (  -0.1251400   0.6495983   0.4819363  )
        20           Mo  tau(  20) = (  -0.1250002   0.5051824  -0.4825273  )
        21           Mo  tau(  21) = (  -0.2500026   0.5773383  -0.0001491  )
        22           S   tau(  22) = (  -0.2500002   0.4330136  -0.6064556  )
        23           S   tau(  23) = (  -0.1249812   0.5051509  -0.1241919  )
        24           S   tau(  24) = (  -0.2500015   0.5775831   0.3575295  )
        25           S   tau(  25) = (  -0.2500001   0.4330135  -0.3584711  )
        26           S   tau(  26) = (  -0.1250129   0.5052153   0.1241101  )
        27           S   tau(  27) = (  -0.2500018   0.5771934   0.6060379  )
        28           Mo  tau(  28) = (   0.2499987  -0.0001601   0.4819365  )
        29           Mo  tau(  29) = (  -0.2500004   0.7216889  -0.4825273  )
        30           Mo  tau(  30) = (  -0.3750135   0.7938631  -0.0001491  )
        31           S   tau(  31) = (  -0.3750004   0.6495201  -0.6064556  )
        32           S   tau(  32) = (  -0.2500026   0.7216883  -0.1242347  )
        33           S   tau(  33) = (  -0.3747997   0.7937400   0.3575295  )
        34           S   tau(  34) = (  -0.3750004   0.6495200  -0.3584711  )
        35           S   tau(  35) = (  -0.2500029   0.7216883   0.1240299  )
        36           S   tau(  36) = (  -0.3751376   0.7939346   0.6060379  )
        37           Mo  tau(  37) = (   0.3755166   0.2154425   0.4826119  )
        38           Mo  tau(  38) = (   0.3750004   0.0721694  -0.4825273  )
        39           Mo  tau(  39) = (   0.2499990   0.1443474  -0.0000968  )
        40           S   tau(  40) = (   0.2500004   0.0000006  -0.6064556  )
        41           S   tau(  41) = (   0.3750152   0.0722028  -0.1241921  )
        42           S   tau(  42) = (   0.2499983   0.1443201   0.3580593  )
        43           S   tau(  43) = (   0.2500004   0.0000005  -0.3584711  )
        44           S   tau(  44) = (   0.3749754   0.0721432   0.1241106  )
        45           S   tau(  45) = (   0.2499987   0.1437775   0.6065499  )
        46           Mo  tau(  46) = (   0.2499984   0.4330123   0.4872880  )
        47           Mo  tau(  47) = (   0.2500001   0.2886759  -0.4825273  )
        48           Mo  tau(  48) = (   0.1250277   0.3608616  -0.0000572  )
        49           S   tau(  49) = (   0.1250001   0.2165071  -0.6064556  )
        50           S   tau(  50) = (   0.2499987   0.2886898  -0.1241693  )
        51           S   tau(  51) = (   0.1266397   0.3617911   0.3615924  )
        52           S   tau(  52) = (   0.1250002   0.2165070  -0.3584711  )
        53           S   tau(  53) = (   0.2499988   0.2886671   0.1241958  )
        54           S   tau(  54) = (   0.1173054   0.3564020   0.6108885  )
        55           Mo  tau(  55) = (   0.1243363   0.6504991   0.4826116  )
        56           Mo  tau(  56) = (   0.1249998   0.5051824  -0.4825273  )
        57           Mo  tau(  57) = (   0.0000060   0.5773464  -0.0000969  )
        58           S   tau(  58) = (  -0.0000002   0.4330136  -0.6064556  )
        59           S   tau(  59) = (   0.1250101   0.5051751  -0.1241696  )
        60           S   tau(  60) = (  -0.0000165   0.5773581   0.3580590  )
        61           S   tau(  61) = (  -0.0000001   0.4330135  -0.3584711  )
        62           S   tau(  62) = (   0.1249907   0.5051868   0.1241956  )
        63           S   tau(  63) = (  -0.0004863   0.5776299   0.6065497  )
        64           Mo  tau(  64) = (   0.5000682   0.0000393   0.4813064  )
        65           Mo  tau(  65) = (  -0.0000004   0.7216889  -0.4825273  )
        66           Mo  tau(  66) = (  -0.1249919   0.7938635  -0.0001489  )
        67           S   tau(  67) = (  -0.1250004   0.6495201  -0.6064556  )
        68           S   tau(  68) = (   0.0000350   0.7216859  -0.1241920  )
        69           S   tau(  69) = (  -0.1252051   0.7937392   0.3575294  )
        70           S   tau(  70) = (  -0.1250004   0.6495200  -0.3584711  )
        71           S   tau(  71) = (  -0.0000364   0.7216812   0.1241103  )
        72           S   tau(  72) = (  -0.1248667   0.7939344   0.6060378  )
        73           Mo  tau(  73) = (   0.6250985   0.2164481   0.4814760  )
        74           Mo  tau(  74) = (   0.6250004   0.0721694  -0.4825273  )
        75           Mo  tau(  75) = (   0.4999807   0.1443583  -0.0000532  )
        76           S   tau(  76) = (   0.5000004   0.0000006  -0.6064556  )
        77           S   tau(  77) = (   0.6249710   0.0721537  -0.1241599  )
        78           S   tau(  78) = (   0.4998101   0.1444887   0.3573287  )
        79           S   tau(  79) = (   0.5000004   0.0000005  -0.3584711  )
        80           S   tau(  80) = (   0.6250072   0.0721744   0.1241160  )
        81           S   tau(  81) = (   0.5009199   0.1433424   0.6062338  )
        82           Mo  tau(  82) = (   0.5011786   0.4330950   0.4826115  )
        83           Mo  tau(  83) = (   0.5000001   0.2886759  -0.4825273  )
        84           Mo  tau(  84) = (   0.3749686   0.3608615  -0.0000573  )
        85           S   tau(  85) = (   0.3750001   0.2165071  -0.6064556  )
        86           S   tau(  86) = (   0.4999725   0.2886900  -0.1241349  )
        87           S   tau(  87) = (   0.3733572   0.3617909   0.3615920  )
        88           S   tau(  88) = (   0.3750002   0.2165070  -0.3584711  )
        89           S   tau(  89) = (   0.4999057   0.2887288   0.1242238  )
        90           S   tau(  90) = (   0.3826919   0.3564018   0.6108876  )
        91           Mo  tau(  91) = (   0.3756598   0.6504996   0.4826113  )
        92           Mo  tau(  92) = (   0.3749998   0.5051824  -0.4825273  )
        93           Mo  tau(  93) = (   0.2499978   0.5773166  -0.0000576  )
        94           S   tau(  94) = (   0.2499998   0.4330136  -0.6064556  )
        95           S   tau(  95) = (   0.3749857   0.5051746  -0.1241697  )
        96           S   tau(  96) = (   0.2499981   0.5754545   0.3615919  )
        97           S   tau(  97) = (   0.2499999   0.4330135  -0.3584711  )
        98           S   tau(  98) = (   0.3750048   0.5051860   0.1241960  )
        99           S   tau(  99) = (   0.2499983   0.5862331   0.6108872  )
       100           Mo  tau( 100) = (   0.7499988   0.0001148   0.4814756  )
       101           Mo  tau( 101) = (   0.2499996   0.7216889  -0.4825273  )
       102           Mo  tau( 102) = (   0.1250062   0.7938321  -0.0000534  )
       103           S   tau( 103) = (   0.1249996   0.6495201  -0.6064556  )
       104           S   tau( 104) = (   0.2499971   0.7216593  -0.1241350  )
       105           S   tau( 105) = (   0.1250350   0.7936175   0.3573284  )
       106           S   tau( 106) = (   0.1249996   0.6495200  -0.3584711  )
       107           S   tau( 107) = (   0.2499972   0.7215818   0.1242234  )
       108           S   tau( 108) = (   0.1245975   0.7951515   0.6062336  )
       109           Mo  tau( 109) = (  -0.1251006   0.2164484   0.4814769  )
       110           Mo  tau( 110) = (   0.8750004   0.0721694  -0.4825273  )
       111           Mo  tau( 111) = (   0.7499976   0.1443379  -0.0001196  )
       112           S   tau( 112) = (   0.7500004   0.0000006  -0.6064556  )
       113           S   tau( 113) = (   0.8750246   0.0721533  -0.1241599  )
       114           S   tau( 114) = (   0.7499994   0.1443376   0.3572937  )
       115           S   tau( 115) = (   0.7500004   0.0000005  -0.3584711  )
       116           S   tau( 116) = (   0.8749884   0.0721739   0.1241157  )
       117           S   tau( 117) = (   0.7499987   0.1443370   0.6058240  )
       118           Mo  tau( 118) = (  -0.2500010   0.4329316   0.4813070  )
       119           Mo  tau( 119) = (   0.7500001   0.2886759  -0.4825273  )
       120           Mo  tau( 120) = (   0.6249710   0.3608493  -0.0000534  )
       121           S   tau( 121) = (   0.6250001   0.2165071  -0.6064556  )
       122           S   tau( 122) = (   0.7499973   0.2887067  -0.1241600  )
       123           S   tau( 123) = (   0.6247737   0.3609305   0.3573287  )
       124           S   tau( 124) = (   0.6250002   0.2165070  -0.3584711  )
       125           S   tau( 125) = (   0.7499971   0.2886649   0.1241160  )
       126           S   tau( 126) = (   0.6263203   0.3605423   0.6062340  )
       127           Mo  tau( 127) = (  -0.3748636   0.6495986   0.4819361  )
       128           Mo  tau( 128) = (   0.6249998   0.5051824  -0.4825273  )
       129           Mo  tau( 129) = (   0.4999891   0.5773453  -0.0000967  )
       130           S   tau( 130) = (   0.4999998   0.4330136  -0.6064556  )
       131           S   tau( 131) = (   0.6249761   0.5051506  -0.1241920  )
       132           S   tau( 132) = (   0.5000130   0.5773585   0.3580587  )
       133           S   tau( 133) = (   0.4999999   0.4330135  -0.3584711  )
       134           S   tau( 134) = (   0.6250081   0.5052147   0.1241104  )
       135           S   tau( 135) = (   0.5004826   0.5776298   0.6065487  )
       136           Mo  tau( 136) = (  -0.0000706   0.0000401   0.4813070  )
       137           Mo  tau( 137) = (   0.4999996   0.7216889  -0.4825273  )
       138           Mo  tau( 138) = (   0.3749881   0.7938314  -0.0000535  )
       139           S   tau( 139) = (   0.3749996   0.6495201  -0.6064556  )
       140           S   tau( 140) = (   0.4999594   0.7216844  -0.1241918  )
       141           S   tau( 141) = (   0.3749610   0.7936184   0.3573285  )
       142           S   tau( 142) = (   0.3749996   0.6495200  -0.3584711  )
       143           S   tau( 143) = (   0.5000310   0.7216802   0.1241101  )
       144           S   tau( 144) = (   0.3753979   0.7951517   0.6062337  )
       145           Pd  tau( 145) = (   0.2499985   0.4330123   0.7148096  )
       146           H   tau( 146) = (  -0.0009512   0.1433178   0.7172231  )

     --------------------------------------------
     DFT-D3 Dispersion Correction (3-body terms):
     --------------------------------------------
       Reference C6 values for interpolation: 

         atom   Coordination number   C6
         H          0.912             6.05
         H          0.000            15.18
         S          0.000           268.01
         S          0.995           261.99
         S          1.990           251.62
         Mo         0.000          1691.79
         Mo         1.942          1004.01
         Mo        11.056           674.22
         Pd         0.000          1217.01
         Pd         1.863           573.90
         Pd         5.710           531.75

       Values used:

         atom   Coordination number  R0_AB[au]  C6      C8
         Mo        10.174            3.547    674.22  77634.20
         Mo        10.189            3.547    674.22  77634.20
         Mo        10.200            3.547    674.22  77634.20
         S          3.753            3.128    251.62  12327.25
         S          3.858            3.128    251.62  12327.25
         S          3.848            3.128    251.62  12327.25
         S          3.859            3.128    251.62  12327.25
         S          3.860            3.128    251.62  12327.25
         S          4.786            3.128    251.62  12327.25
         Mo        10.173            3.547    674.22  77634.20
         Mo        10.189            3.547    674.22  77634.20
         Mo        10.201            3.547    674.22  77634.20
         S          3.753            3.128    251.62  12327.25
         S          3.859            3.128    251.62  12327.25
         S          3.848            3.128    251.62  12327.25
         S          3.858            3.128    251.62  12327.25
         S          3.855            3.128    251.62  12327.25
         S          3.799            3.128    251.62  12327.25
         Mo        10.208            3.547    674.22  77634.20
         Mo        10.189            3.547    674.22  77634.20
         Mo        10.200            3.547    674.22  77634.20
         S          3.753            3.128    251.62  12327.25
         S          3.858            3.128    251.62  12327.25
         S          3.862            3.128    251.62  12327.25
         S          3.859            3.128    251.62  12327.25
         S          3.860            3.128    251.62  12327.25
         S          3.759            3.128    251.62  12327.25
         Mo        10.208            3.547    674.22  77634.20
         Mo        10.189            3.547    674.22  77634.20
         Mo        10.200            3.547    674.22  77634.20
         S          3.753            3.128    251.62  12327.25
         S          3.858            3.128    251.62  12327.25
         S          3.862            3.128    251.62  12327.25
         S          3.859            3.128    251.62  12327.25
         S          3.862            3.128    251.62  12327.25
         S          3.759            3.128    251.62  12327.25
         Mo        10.173            3.547    674.22  77634.20
         Mo        10.189            3.547    674.22  77634.20
         Mo        10.202            3.547    674.22  77634.20
         S          3.753            3.128    251.62  12327.25
         S          3.858            3.128    251.62  12327.25
         S          3.857            3.128    251.62  12327.25
         S          3.859            3.128    251.62  12327.25
         S          3.860            3.128    251.62  12327.25
         S          3.751            3.128    251.62  12327.25
         Mo        10.810            3.547    674.22  77634.20
         Mo        10.189            3.547    674.22  77634.20
         Mo        10.202            3.547    674.22  77634.20
         S          3.753            3.128    251.62  12327.25
         S          3.859            3.128    251.62  12327.25
         S          3.866            3.128    251.62  12327.25
         S          3.859            3.128    251.62  12327.25
         S          3.853            3.128    251.62  12327.25
         S          4.646            3.128    251.62  12327.25
         Mo        10.173            3.547    674.22  77634.20
         Mo        10.189            3.547    674.22  77634.20
         Mo        10.202            3.547    674.22  77634.20
         S          3.753            3.128    251.62  12327.25
         S          3.859            3.128    251.62  12327.25
         S          3.857            3.128    251.62  12327.25
         S          3.859            3.128    251.62  12327.25
         S          3.853            3.128    251.62  12327.25
         S          3.751            3.128    251.62  12327.25
         Mo        10.222            3.547    674.22  77634.20
         Mo        10.189            3.547    674.22  77634.20
         Mo        10.200            3.547    674.22  77634.20
         S          3.753            3.128    251.62  12327.25
         S          3.858            3.128    251.62  12327.25
         S          3.862            3.128    251.62  12327.25
         S          3.859            3.128    251.62  12327.25
         S          3.860            3.128    251.62  12327.25
         S          3.759            3.128    251.62  12327.25
         Mo        10.213            3.547    674.22  77634.20
         Mo        10.189            3.547    674.22  77634.20
         Mo        10.201            3.547    674.22  77634.20
         S          3.753            3.128    251.62  12327.25
         S          3.858            3.128    251.62  12327.25
         S          3.848            3.128    251.62  12327.25
         S          3.859            3.128    251.62  12327.25
         S          3.860            3.128    251.62  12327.25
         S          3.798            3.128    251.62  12327.25
         Mo        10.173            3.547    674.22  77634.20
         Mo        10.189            3.547    674.22  77634.20
         Mo        10.202            3.547    674.22  77634.20
         S          3.753            3.128    251.62  12327.25
         S          3.859            3.128    251.62  12327.25
         S          3.866            3.128    251.62  12327.25
         S          3.859            3.128    251.62  12327.25
         S          3.855            3.128    251.62  12327.25
         S          4.645            3.128    251.62  12327.25
         Mo        10.173            3.547    674.22  77634.20
         Mo        10.189            3.547    674.22  77634.20
         Mo        10.202            3.547    674.22  77634.20
         S          3.753            3.128    251.62  12327.25
         S          3.859            3.128    251.62  12327.25
         S          3.866            3.128    251.62  12327.25
         S          3.859            3.128    251.62  12327.25
         S          3.853            3.128    251.62  12327.25
         S          4.645            3.128    251.62  12327.25
         Mo        10.213            3.547    674.22  77634.20
         Mo        10.189            3.547    674.22  77634.20
         Mo        10.201            3.547    674.22  77634.20
         S          3.753            3.128    251.62  12327.25
         S          3.859            3.128    251.62  12327.25
         S          3.848            3.128    251.62  12327.25
         S          3.859            3.128    251.62  12327.25
         S          3.855            3.128    251.62  12327.25
         S          3.798            3.128    251.62  12327.25
         Mo        10.215            3.547    674.22  77634.20
         Mo        10.189            3.547    674.22  77634.20
         Mo        10.199            3.547    674.22  77634.20
         S          3.753            3.128    251.62  12327.25
         S          3.858            3.128    251.62  12327.25
         S          3.855            3.128    251.62  12327.25
         S          3.858            3.128    251.62  12327.25
         S          3.860            3.128    251.62  12327.25
         S          3.778            3.128    251.62  12327.25
         Mo        10.222            3.547    674.22  77634.20
         Mo        10.189            3.547    674.22  77634.20
         Mo        10.201            3.547    674.22  77634.20
         S          3.753            3.128    251.62  12327.25
         S          3.858            3.128    251.62  12327.25
         S          3.848            3.128    251.62  12327.25
         S          3.858            3.128    251.62  12327.25
         S          3.860            3.128    251.62  12327.25
         S          3.798            3.128    251.62  12327.25
         Mo        10.208            3.547    674.22  77634.20
         Mo        10.189            3.547    674.22  77634.20
         Mo        10.202            3.547    674.22  77634.20
         S          3.753            3.128    251.62  12327.25
         S          3.858            3.128    251.62  12327.25
         S          3.857            3.128    251.62  12327.25
         S          3.859            3.128    251.62  12327.25
         S          3.860            3.128    251.62  12327.25
         S          3.751            3.128    251.62  12327.25
         Mo        10.224            3.547    674.22  77634.20
         Mo        10.189            3.547    674.22  77634.20
         Mo        10.201            3.547    674.22  77634.20
         S          3.753            3.128    251.62  12327.25
         S          3.858            3.128    251.62  12327.25
         S          3.848            3.128    251.62  12327.25
         S          3.859            3.128    251.62  12327.25
         S          3.860            3.128    251.62  12327.25
         S          3.799            3.128    251.62  12327.25
         Pd         3.772            3.168    557.07  51040.34
         H          0.998            2.062      6.18     74.74

         Molecular C6 ( Ry / a.u.^6 ) =   7802257.51


     number of k points=     4  Gaussian smearing, width (Ry)=  0.0100
                       cart. coord. in units 2pi/alat
        k(    1) = (   0.0000000   0.0000000   0.0000000), wk =   0.5000000
        k(    2) = (   0.0000000  -0.5773499   0.0000000), wk =   0.5000000
        k(    3) = (  -0.5000000  -0.2886755   0.0000000), wk =   0.5000000
        k(    4) = (  -0.5000000  -0.8660254   0.0000000), wk =   0.5000000

     Dense  grid:  5955087 G-vectors     FFT dimensions: ( 180, 180, 432)

     Smooth grid:  2572543 G-vectors     FFT dimensions: ( 135, 135, 320)

     Estimated max dynamical RAM per process >       2.13 GB

     Estimated total dynamical RAM >      76.81 GB

     Initial potential from superposition of free atoms

     starting charge    1266.9542, renormalised to    1267.0000

     negative rho (up, down):  9.126E-04 0.000E+00
     Starting wfcs are  875 randomized atomic wfcs
     Checking if some PAW data can be deallocated... 

     total cpu time spent up to now is      105.6 secs

     Self-consistent Calculation

     iteration #  1     ecut=    77.00 Ry     beta= 0.20
     Davidson diagonalization with overlap
     ethr =  1.00E-02,  avg # of iterations =  2.0

     Threshold (ethr) on eigenvalues was too large:
     Diagonalizing with lowered threshold

     Davidson diagonalization with overlap
     ethr =  1.78E-04,  avg # of iterations = 12.8

     negative rho (up, down):  2.755E-04 0.000E+00

     total cpu time spent up to now is     1186.3 secs

     total energy              =  -24358.09474052 Ry
     estimated scf accuracy    <       5.13634646 Ry

     iteration #  2     ecut=    77.00 Ry     beta= 0.20
     Davidson diagonalization with overlap
     ethr =  4.05E-04,  avg # of iterations =  6.5

     negative rho (up, down):  5.711E-05 0.000E+00

     total cpu time spent up to now is     1423.2 secs

     total energy              =  -24357.33547017 Ry
     estimated scf accuracy    <       2.69389444 Ry

     iteration #  3     ecut=    77.00 Ry     beta= 0.20
     Davidson diagonalization with overlap
     ethr =  2.13E-04,  avg # of iterations = 11.0

     negative rho (up, down):  2.809E-05 0.000E+00

     total cpu time spent up to now is     1676.8 secs

     total energy              =  -24357.20547865 Ry
     estimated scf accuracy    <       1.93394443 Ry

     iteration #  4     ecut=    77.00 Ry     beta= 0.20
     Davidson diagonalization with overlap
     ethr =  1.53E-04,  avg # of iterations = 22.5

     negative rho (up, down):  2.275E-05 0.000E+00

     total cpu time spent up to now is     2093.2 secs

     total energy              =  -24357.40463342 Ry
     estimated scf accuracy    <       0.59287957 Ry

     iteration #  5     ecut=    77.00 Ry     beta= 0.20
     Davidson diagonalization with overlap
     c_bands:  3 eigenvalues not converged
     c_bands:  3 eigenvalues not converged
     c_bands:  2 eigenvalues not converged
     c_bands:  3 eigenvalues not converged
     ethr =  4.68E-05,  avg # of iterations = 20.0

     negative rho (up, down):  2.973E-05 0.000E+00

     total cpu time spent up to now is     2849.3 secs

     total energy              =  -24358.12674914 Ry
     estimated scf accuracy    <       0.58472635 Ry

     iteration #  6     ecut=    77.00 Ry     beta= 0.20
     Davidson diagonalization with overlap
     c_bands:  1 eigenvalues not converged
     c_bands:  1 eigenvalues not converged
     ethr =  4.62E-05,  avg # of iterations = 14.5

     negative rho (up, down):  5.083E-05 0.000E+00

     total cpu time spent up to now is     3098.7 secs

     total energy              =  -24358.08780563 Ry
     estimated scf accuracy    <       0.28830892 Ry

     iteration #  7     ecut=    77.00 Ry     beta= 0.20
     Davidson diagonalization with overlap
     c_bands:  1 eigenvalues not converged
     c_bands:  3 eigenvalues not converged
     c_bands:  3 eigenvalues not converged
     ethr =  2.28E-05,  avg # of iterations = 28.5

     negative rho (up, down):  1.065E-04 0.000E+00

     total cpu time spent up to now is     3509.2 secs

     total energy              =  -24358.07531728 Ry
     estimated scf accuracy    <       0.15770173 Ry

     iteration #  8     ecut=    77.00 Ry     beta= 0.20
     Davidson diagonalization with overlap
     c_bands:  1 eigenvalues not converged
     c_bands:  3 eigenvalues not converged
     c_bands:  4 eigenvalues not converged
     c_bands:  4 eigenvalues not converged
     ethr =  1.24E-05,  avg # of iterations = 25.0

     negative rho (up, down):  2.377E-04 0.000E+00

     total cpu time spent up to now is     4007.5 secs

     total energy              =  -24358.16478057 Ry
     estimated scf accuracy    <       0.05758774 Ry

     iteration #  9     ecut=    77.00 Ry     beta= 0.20
     Davidson diagonalization with overlap
     c_bands:  5 eigenvalues not converged
     c_bands:  4 eigenvalues not converged
     c_bands:  5 eigenvalues not converged
     c_bands:  5 eigenvalues not converged
     ethr =  4.55E-06,  avg # of iterations = 40.0

     negative rho (up, down):  2.739E-04 0.000E+00

     total cpu time spent up to now is     4694.2 secs

     total energy              =  -24358.18770643 Ry
     estimated scf accuracy    <       0.03205351 Ry

     iteration # 10     ecut=    77.00 Ry     beta= 0.20
     Davidson diagonalization with overlap
     c_bands:  4 eigenvalues not converged
     c_bands:  4 eigenvalues not converged
     c_bands:  5 eigenvalues not converged
     ethr =  2.53E-06,  avg # of iterations = 38.0

     negative rho (up, down):  3.266E-04 0.000E+00

     total cpu time spent up to now is     5265.7 secs

     total energy              =  -24358.19933228 Ry
     estimated scf accuracy    <       0.00420272 Ry

     iteration # 11     ecut=    77.00 Ry     beta= 0.20
     Davidson diagonalization with overlap
     c_bands:  5 eigenvalues not converged
     c_bands:  1 eigenvalues not converged
     c_bands:  3 eigenvalues not converged
     c_bands:  4 eigenvalues not converged
     ethr =  3.32E-07,  avg # of iterations = 30.0

     negative rho (up, down):  3.775E-04 0.000E+00

     total cpu time spent up to now is     6197.1 secs

     total energy              =  -24358.20687519 Ry
     estimated scf accuracy    <       0.00590752 Ry

     iteration # 12     ecut=    77.00 Ry     beta= 0.20
     Davidson diagonalization with overlap
     c_bands:  1 eigenvalues not converged
     c_bands:  5 eigenvalues not converged
     c_bands:  4 eigenvalues not converged
     ethr =  3.32E-07,  avg # of iterations = 22.5

     negative rho (up, down):  6.508E-04 0.000E+00

     total cpu time spent up to now is     6522.2 secs

     total energy              =  -24358.20519854 Ry
     estimated scf accuracy    <       0.00321149 Ry

     iteration # 13     ecut=    77.00 Ry     beta= 0.20
     Davidson diagonalization with overlap
     c_bands:  4 eigenvalues not converged
     c_bands:  4 eigenvalues not converged
     ethr =  2.53E-07,  avg # of iterations = 16.0

     negative rho (up, down):  7.107E-04 0.000E+00

     total cpu time spent up to now is     6968.8 secs

     total energy              =  -24358.20715072 Ry
     estimated scf accuracy    <       0.00157705 Ry

     iteration # 14     ecut=    77.00 Ry     beta= 0.20
     Davidson diagonalization with overlap
     c_bands:  3 eigenvalues not converged
     c_bands:  3 eigenvalues not converged
     ethr =  1.24E-07,  avg # of iterations = 23.5

     negative rho (up, down):  7.464E-04 0.000E+00

     total cpu time spent up to now is     7347.2 secs

     total energy              =  -24358.20687468 Ry
     estimated scf accuracy    <       0.00077397 Ry

     iteration # 15     ecut=    77.00 Ry     beta= 0.20
     Davidson diagonalization with overlap
     c_bands:  5 eigenvalues not converged
     c_bands:  3 eigenvalues not converged
     ethr =  6.11E-08,  avg # of iterations = 15.2

     negative rho (up, down):  8.484E-04 0.000E+00

     total cpu time spent up to now is     7686.1 secs

     total energy              =  -24358.20706312 Ry
     estimated scf accuracy    <       0.00017264 Ry

     iteration # 16     ecut=    77.00 Ry     beta= 0.20
     Davidson diagonalization with overlap
     c_bands:  4 eigenvalues not converged
     c_bands:  3 eigenvalues not converged
     c_bands:  3 eigenvalues not converged
     ethr =  1.36E-08,  avg # of iterations = 29.2

     negative rho (up, down):  8.508E-04 0.000E+00

     total cpu time spent up to now is     8534.3 secs

     total energy              =  -24358.20735465 Ry
     estimated scf accuracy    <       0.00010137 Ry

     iteration # 17     ecut=    77.00 Ry     beta= 0.20
     Davidson diagonalization with overlap
     c_bands:  5 eigenvalues not converged
     c_bands:  1 eigenvalues not converged
     c_bands:  3 eigenvalues not converged
     ethr =  8.00E-09,  avg # of iterations = 17.5

     negative rho (up, down):  8.647E-04 0.000E+00

     total cpu time spent up to now is     8813.0 secs

     total energy              =  -24358.20733122 Ry
     estimated scf accuracy    <       0.00004433 Ry

     iteration # 18     ecut=    77.00 Ry     beta= 0.20
     Davidson diagonalization with overlap
     c_bands:  2 eigenvalues not converged
     c_bands:  1 eigenvalues not converged
     c_bands:  1 eigenvalues not converged
     ethr =  3.50E-09,  avg # of iterations = 19.0

     negative rho (up, down):  8.945E-04 0.000E+00

     total cpu time spent up to now is     9458.5 secs

     total energy              =  -24358.20735785 Ry
     estimated scf accuracy    <       0.00006257 Ry

     iteration # 19     ecut=    77.00 Ry     beta= 0.20
     Davidson diagonalization with overlap
     c_bands:  1 eigenvalues not converged
     ethr =  3.50E-09,  avg # of iterations = 12.0

     negative rho (up, down):  8.950E-04 0.000E+00

     total cpu time spent up to now is     9749.3 secs

     total energy              =  -24358.20736546 Ry
     estimated scf accuracy    <       0.00000732 Ry

     iteration # 20     ecut=    77.00 Ry     beta= 0.20
     Davidson diagonalization with overlap
     c_bands:  3 eigenvalues not converged
     c_bands:  3 eigenvalues not converged
     c_bands:  1 eigenvalues not converged
     c_bands:  1 eigenvalues not converged
     ethr =  5.77E-10,  avg # of iterations = 20.0

     negative rho (up, down):  8.987E-04 0.000E+00

     total cpu time spent up to now is    10588.0 secs

     total energy              =  -24358.20737690 Ry
     estimated scf accuracy    <       0.00001950 Ry

     iteration # 21     ecut=    77.00 Ry     beta= 0.20
     Davidson diagonalization with overlap
     c_bands:  1 eigenvalues not converged
     ethr =  5.77E-10,  avg # of iterations =  9.0

     negative rho (up, down):  9.046E-04 0.000E+00

     total cpu time spent up to now is    10846.8 secs

     total energy              =  -24358.20737054 Ry
     estimated scf accuracy    <       0.00000679 Ry

     iteration # 22     ecut=    77.00 Ry     beta= 0.20
     Davidson diagonalization with overlap
     c_bands:  1 eigenvalues not converged
     ethr =  5.36E-10,  avg # of iterations = 16.8

     negative rho (up, down):  9.085E-04 0.000E+00

     total cpu time spent up to now is    11346.0 secs

     total energy              =  -24358.20737477 Ry
     estimated scf accuracy    <       0.00000698 Ry

     iteration # 23     ecut=    77.00 Ry     beta= 0.20
     Davidson diagonalization with overlap
     c_bands:  1 eigenvalues not converged
     ethr =  5.36E-10,  avg # of iterations =  6.0

     negative rho (up, down):  9.089E-04 0.000E+00

     total cpu time spent up to now is    11570.2 secs

     total energy              =  -24358.20737390 Ry
     estimated scf accuracy    <       0.00000185 Ry

     iteration # 24     ecut=    77.00 Ry     beta= 0.20
     Davidson diagonalization with overlap
     c_bands:  1 eigenvalues not converged
     ethr =  1.46E-10,  avg # of iterations = 16.5

     negative rho (up, down):  9.105E-04 0.000E+00

     total cpu time spent up to now is    11988.6 secs

     End of self-consistent calculation

          k = 0.0000 0.0000 0.0000 (321495 PWs)   bands (ev):

   -88.6690 -66.6094 -66.5951 -66.5720 -66.5648 -66.5612 -66.5494 -66.5390
   -66.5379 -66.5354 -66.5325 -66.5261 -66.5252 -66.5233 -66.5092 -66.5074
   -66.5052 -66.5052 -66.5051 -66.5049 -66.5049 -66.5048 -66.5012 -66.4944
   -66.4891 -66.4841 -66.4841 -66.4840 -66.4839 -66.4839 -66.4838 -66.4836
   -66.4836 -66.4835 -66.4697 -66.4689 -66.4688 -66.4674 -66.4672 -66.4651
   -66.4488 -66.4487 -66.4479 -66.4476 -66.4471 -66.4460 -66.4460 -66.4451
   -66.4404 -54.4855 -54.4680 -54.4592 -40.9139 -40.9059 -40.9010 -40.8527
   -40.8524 -40.8524 -40.8372 -40.8352 -40.8225 -40.8174 -40.8145 -40.8141
   -40.8141 -40.8137 -40.8094 -40.7779 -40.7778 -40.7778 -40.7776 -40.7775
   -40.7775 -40.7734 -40.7601 -40.7462 -40.7404 -40.7399 -40.7392 -40.7389
   -40.7389 -40.7383 -40.7183 -40.7098 -40.7080 -40.7057 -40.7046 -40.6992
   -40.6893 -40.6879 -40.6864 -40.6858 -40.6800 -40.6786 -40.6740 -40.6701
   -40.6654 -40.6619 -40.6563 -40.6530 -40.6523 -40.6521 -40.6521 -40.6520
   -40.6520 -40.6520 -40.6503 -40.6498 -40.6473 -40.6460 -40.6452 -40.6451
   -40.6450 -40.6449 -40.6449 -40.6448 -40.6444 -40.6411 -40.6401 -40.6330
   -40.6257 -40.6174 -40.6174 -40.6172 -40.6172 -40.6172 -40.6171 -40.6154
   -40.6145 -40.6141 -40.6132 -40.6129 -40.6129 -40.6106 -40.6099 -40.6097
   -40.6088 -40.6086 -40.6053 -40.6036 -40.6035 -40.6034 -40.6034 -40.6033
   -40.6033 -40.6030 -40.6030 -40.6030 -40.5891 -40.5828 -40.5805 -40.5799
   -40.5789 -40.5788 -40.5781 -40.5779 -40.5763 -40.5693 -40.5691 -40.5685
   -40.5682 -40.5678 -40.5670 -40.5670 -40.5663 -40.5596 -40.5429 -40.5395
   -40.5395 -40.5394 -40.5369 -40.5358 -40.5253 -40.5221 -40.5190 -40.5013
   -40.5013 -40.5013 -40.4929 -40.4928 -40.4927 -40.4925 -40.4925 -40.4925
   -40.4797 -40.4760 -40.4554 -40.4551 -40.4547 -40.4543 -40.4538 -40.4536
   -40.4453 -40.4453 -40.4072 -40.4071 -20.2828 -19.9674 -19.8359 -19.7258
   -19.2045 -19.1777 -19.1614 -19.1511 -19.1379 -19.1032 -19.0854 -19.0815
   -19.0759 -19.0680 -19.0589 -18.9775 -18.9445 -18.9425 -18.9390 -18.9324
   -18.9286 -18.8357 -18.7145 -18.5950 -18.4508 -18.4294 -18.4221 -18.3777
   -18.3662 -18.3524 -18.3209 -18.2636 -18.2606 -18.2514 -18.2290 -18.2187
   -18.2100 -18.1421 -18.1156 -18.0830 -18.0740 -18.0730 -18.0714 -18.0696
   -18.0636 -18.0498 -18.0288 -18.0256 -18.0136 -18.0084 -18.0001 -17.9943
   -17.9913 -17.9883 -17.9852 -17.9824 -17.9807 -17.9612 -17.9550 -17.9523
   -17.9446 -17.9379 -17.9317 -17.9180 -17.9086 -17.9075 -17.9050 -17.9010
   -17.8985 -17.8614 -17.8541 -17.8523 -17.8395 -17.8358 -17.8295 -17.8188
   -17.8178 -17.8147 -17.7814 -17.7803 -17.7787 -17.7608 -17.7599 -17.7570
   -17.7554 -17.7519 -17.7511 -17.7229 -17.7224 -17.7220 -17.6872 -17.6867
   -17.6853 -17.6843 -17.6833 -17.6821 -12.9623 -11.8328 -11.7973 -11.7329
   -11.6783 -11.6116 -11.6082 -11.6032 -11.5358 -11.5325 -11.5294 -11.4570
   -11.2160 -11.1727 -11.1378 -11.1193 -11.1094 -11.1018 -11.0998 -11.0763
   -11.0699 -11.0475 -11.0322 -11.0257 -11.0058 -10.9927 -10.9797 -10.9768
   -10.9616 -10.9379 -10.9363 -10.9011 -10.8981 -10.8878 -10.8717 -10.8628
   -10.8467 -10.8425 -10.8390 -10.8258 -10.8125 -10.8114 -10.7981 -10.7973
   -10.7926 -10.7877 -10.7862 -10.7573 -10.7517 -10.7307 -10.7186 -10.6819
   -10.6812 -10.6811 -10.6810 -10.6810 -10.6808 -10.6808 -10.6723 -10.6717
   -10.6712 -10.6703 -10.6694 -10.6688 -10.6522 -10.6491 -10.6284 -10.5735
   -10.5711 -10.5627 -10.5388 -10.5226 -10.5187 -10.5117 -10.5104 -10.4184
   -10.1810 -10.1605  -9.9376  -9.9145  -9.9099  -9.8522  -9.8087  -9.7866
    -9.7467  -9.7351  -9.7076  -9.6935  -9.6888  -9.6814  -9.6800  -9.6742
    -9.6497  -9.6341  -9.6052  -9.5916  -9.5869  -9.5844  -9.5775  -9.5770
    -9.5410  -9.5385  -9.5269  -9.5244  -9.5199  -9.5168  -9.5113  -9.5022
    -9.4755  -9.4730  -9.4659  -9.4645  -9.4624  -9.4605  -9.4460  -9.4445
    -9.4429  -9.4428  -9.4406  -9.4401  -9.3642  -9.3346  -9.3214  -9.3058
    -9.2980  -9.2977  -9.2816  -9.2684  -9.2613  -9.2580  -9.2498  -9.2322
    -9.2282  -9.2174  -9.2095  -9.1974  -9.1716  -9.1680  -9.0958  -9.0939
    -9.0893  -9.0874  -9.0826  -9.0802  -9.0333  -9.0019  -8.9700  -8.9635
    -8.9581  -8.9421  -8.9293  -8.9224  -8.9154  -8.8749  -8.8698  -8.8676
    -8.8658  -8.8518  -8.8222  -8.8121  -8.8087  -8.8067  -8.8005  -8.7892
    -8.7747  -8.7454  -8.7346  -8.7336  -8.7275  -8.7213  -8.6993  -8.6479
    -8.6462  -8.6430  -8.6407  -8.6360  -8.6333  -8.6200  -8.6017  -8.6007
    -8.5991  -8.5945  -8.5942  -8.4903  -8.4101  -8.3705  -8.3296  -8.2930
    -8.2767  -8.2757  -8.2756  -8.2526  -8.2365  -8.2324  -8.2323  -8.2260
    -8.2230  -8.1669  -8.1668  -8.1663  -8.1660  -8.1659  -8.1658  -8.1151
    -8.1145  -8.1122  -8.1116  -8.1110  -8.1103  -8.0865  -8.0001  -7.9583
    -7.8517  -7.8147  -7.8019  -7.6641  -7.6419  -7.6130  -7.5529  -7.5479
    -7.5318  -7.5111  -7.4789  -7.4759  -7.4636  -7.4340  -7.4309  -7.4301
    -7.4300  -7.4299  -7.4296  -7.4278  -7.4263  -7.4208  -7.4170  -7.4122
    -7.3904  -7.3884  -7.3879  -7.3875  -7.3870  -7.3864  -7.3799  -7.3762
    -7.3754  -7.3749  -7.3742  -7.3736  -7.3728  -7.3651  -7.3502  -7.3439
    -7.3372  -7.3319  -7.3307  -7.3285  -7.3276  -7.3249  -7.3245  -7.3198
    -7.2525  -7.2404  -7.2382  -7.1887  -7.1477  -7.1477  -7.1374  -7.1310
    -7.1259  -7.1061  -7.1060  -7.0982  -6.9937  -6.9566  -6.9494  -6.8764
    -6.8289  -6.8258  -6.7860  -6.7732  -6.7608  -6.7388  -6.6758  -6.6631
    -6.6433  -6.6395  -6.6364  -6.6205  -6.5533  -6.5423  -6.5300  -6.5242
    -6.5220  -6.5132  -6.5032  -6.4985  -6.4671  -6.4425  -6.4381  -6.4328
    -6.4286  -6.4217  -6.4196  -6.4104  -6.3973  -6.3644  -6.3560  -6.3495
    -6.3456  -6.3447  -6.3431  -6.3424  -6.3421  -6.3393  -6.3070  -6.2876
    -6.2736  -6.2674  -6.2640  -6.2466  -6.2373  -6.1965  -6.1964  -6.1961
    -6.1960  -6.1958  -6.1957  -6.1686  -6.1616  -6.1442  -6.1432  -6.1420
    -6.1415  -6.1370  -6.1322  -6.1123  -5.7936  -5.6802  -5.6570  -5.3981
    -5.0514  -4.1551  -3.8757  -3.7852  -3.7710  -3.7425  -3.7389  -3.7236
    -3.7202  -3.7103  -3.7067  -3.7064  -3.7009  -3.6208  -3.6140  -3.5782
    -3.5692  -3.5308  -3.5257  -3.5168  -3.5122  -3.5095  -3.5057  -3.5001
    -3.4973  -3.4317  -3.4149  -3.3945  -3.3894  -3.3819  -3.3725  -3.3684
    -3.3486  -3.3463  -3.3366  -3.3365  -3.3365  -3.3140  -3.3111  -3.3068
    -3.3036  -3.2993  -3.2922  -3.2916  -3.2913  -3.2907  -3.2848  -3.2837
    -3.2808  -3.2784  -3.2755  -3.2718  -3.2473  -3.2256  -3.1998  -3.1941
    -3.1883  -3.1857  -3.1824  -3.1803  -3.1785  -3.1676  -3.1661  -3.1530
    -2.9752  -2.9557  -2.9505  -2.9282  -2.9222  -2.8974  -2.8923  -2.8735
    -2.8712  -2.8688  -2.8636  -2.8570  -2.8538  -2.8471  -2.8324  -2.8270
    -2.8235  -2.8192  -2.8148  -2.8115  -2.8100  -2.8045  -2.8036  -2.8029
    -2.8026  -2.8023  -2.8022  -2.8019  -2.8013  -2.7995  -2.7905  -2.7890
    -2.7851  -2.7829  -2.7808  -2.7775  -2.7744  -2.7677  -2.7574  -2.6972
    -2.6906  -2.6155  -2.6149  -2.6110  -2.5958  -2.5946  -2.5878  -2.5840
    -2.5819  -2.5810  -2.5781  -2.5737  -2.5713  -2.5597  -2.5574  -2.5410
    -2.5408  -2.5002  -2.4859  -2.3825  -2.3707  -2.3670  -2.3655  -2.3610
    -2.3607

          k = 0.0000-0.5773 0.0000 (321564 PWs)   bands (ev):

   -88.6690 -66.6092 -66.5953 -66.5717 -66.5654 -66.5613 -66.5487 -66.5414
   -66.5371 -66.5336 -66.5305 -66.5279 -66.5232 -66.5200 -66.5199 -66.5095
   -66.5094 -66.5089 -66.5073 -66.5016 -66.4945 -66.4945 -66.4945 -66.4943
   -66.4942 -66.4901 -66.4900 -66.4840 -66.4839 -66.4838 -66.4837 -66.4837
   -66.4823 -66.4795 -66.4794 -66.4725 -66.4717 -66.4581 -66.4579 -66.4571
   -66.4571 -66.4534 -66.4517 -66.4478 -66.4475 -66.4468 -66.4449 -66.4421
   -66.4394 -54.4855 -54.4680 -54.4592 -40.8986 -40.8852 -40.8728 -40.8527
   -40.8499 -40.8371 -40.8223 -40.8212 -40.8211 -40.8211 -40.8209 -40.8141
   -40.7945 -40.7944 -40.7838 -40.7835 -40.7828 -40.7828 -40.7825 -40.7825
   -40.7820 -40.7807 -40.7789 -40.7663 -40.7610 -40.7568 -40.7556 -40.7542
   -40.7441 -40.7436 -40.7395 -40.7321 -40.7321 -40.7321 -40.7320 -40.7177
   -40.7102 -40.7060 -40.6995 -40.6981 -40.6940 -40.6938 -40.6938 -40.6932
   -40.6891 -40.6787 -40.6744 -40.6742 -40.6674 -40.6642 -40.6641 -40.6619
   -40.6566 -40.6536 -40.6536 -40.6531 -40.6503 -40.6463 -40.6415 -40.6394
   -40.6391 -40.6374 -40.6368 -40.6344 -40.6261 -40.6257 -40.6249 -40.6242
   -40.6242 -40.6242 -40.6240 -40.6216 -40.6179 -40.6168 -40.6156 -40.6154
   -40.6052 -40.6034 -40.6033 -40.6033 -40.6032 -40.6032 -40.6031 -40.6031
   -40.5947 -40.5946 -40.5895 -40.5889 -40.5889 -40.5881 -40.5869 -40.5821
   -40.5802 -40.5781 -40.5742 -40.5725 -40.5724 -40.5724 -40.5723 -40.5723
   -40.5712 -40.5683 -40.5682 -40.5677 -40.5652 -40.5646 -40.5645 -40.5589
   -40.5562 -40.5543 -40.5485 -40.5408 -40.5379 -40.5379 -40.5378 -40.5378
   -40.5353 -40.5346 -40.5339 -40.5331 -40.5259 -40.5257 -40.5222 -40.5147
   -40.5067 -40.5065 -40.5045 -40.5000 -40.4998 -40.4997 -40.4992 -40.4898
   -40.4897 -40.4886 -40.4865 -40.4839 -40.4691 -40.4679 -40.4593 -40.4592
   -40.4516 -40.4512 -40.4221 -40.4201 -20.2434 -19.7894 -19.7339 -19.6973
   -19.6082 -19.5505 -19.4995 -19.3584 -19.3000 -19.2678 -19.1845 -19.1256
   -19.0773 -18.7269 -18.7061 -18.6955 -18.6394 -18.6374 -18.5972 -18.5832
   -18.5802 -18.5708 -18.5286 -18.5223 -18.4956 -18.4760 -18.4624 -18.4577
   -18.4479 -18.4430 -18.4189 -18.3919 -18.3492 -18.3348 -18.3275 -18.3228
   -18.3062 -18.3001 -18.2773 -18.2371 -18.2141 -18.1904 -18.1631 -18.1518
   -18.1356 -18.1344 -18.0824 -18.0647 -18.0561 -18.0274 -18.0188 -18.0154
   -18.0137 -18.0093 -18.0027 -18.0021 -17.9775 -17.9751 -17.9713 -17.9696
   -17.9389 -17.9317 -17.9288 -17.9212 -17.9094 -17.9054 -17.8940 -17.8928
   -17.8920 -17.8894 -17.8563 -17.8491 -17.8371 -17.8325 -17.8256 -17.8215
   -17.7816 -17.7774 -17.7709 -17.7675 -17.7639 -17.7619 -17.7225 -17.7153
   -17.7063 -17.7060 -17.7042 -17.7028 -17.7021 -17.7020 -17.6568 -17.6554
   -17.6314 -17.6308 -17.6022 -17.6018 -12.9587 -11.6063 -11.5718 -11.5317
   -11.5016 -11.4326 -11.4068 -11.3813 -11.3574 -11.3236 -11.3216 -11.3180
   -11.3100 -11.2894 -11.2861 -11.2532 -11.2461 -11.2353 -11.2323 -11.2240
   -11.2186 -11.1989 -11.1944 -11.1819 -11.1570 -11.1522 -11.1244 -11.0982
   -11.0982 -11.0813 -11.0810 -11.0653 -11.0512 -11.0477 -11.0291 -10.9442
   -10.9340 -10.9218 -10.9106 -10.8889 -10.8819 -10.8662 -10.8330 -10.8021
   -10.7873 -10.7868 -10.7682 -10.7593 -10.7511 -10.7476 -10.7412 -10.7212
   -10.7185 -10.7130 -10.7010 -10.6967 -10.6898 -10.6743 -10.6731 -10.6723
   -10.6710 -10.6234 -10.6223 -10.6214 -10.6202 -10.4759 -10.4614 -10.4000
   -10.3891 -10.3202 -10.2895 -10.2767 -10.2172 -10.1745 -10.1378 -10.0565
   -10.0482 -10.0216  -9.9953  -9.9582  -9.9508  -9.9355  -9.9221  -9.8566
    -9.8501  -9.8464  -9.8424  -9.8296  -9.8253  -9.8238  -9.7926  -9.7857
    -9.7790  -9.7581  -9.7458  -9.7191  -9.7152  -9.7010  -9.6795  -9.6782
    -9.6613  -9.6568  -9.6290  -9.6268  -9.5801  -9.5777  -9.5674  -9.5542
    -9.5498  -9.5427  -9.5391  -9.5375  -9.5332  -9.5322  -9.5235  -9.5190
    -9.4702  -9.4647  -9.4338  -9.4072  -9.4021  -9.3958  -9.3676  -9.3602
    -9.3435  -9.3426  -9.2957  -9.2443  -9.2269  -9.2030  -9.1690  -9.1254
    -9.0897  -9.0877  -9.0700  -9.0655  -9.0495  -9.0421  -9.0309  -9.0221
    -8.9817  -8.9538  -8.9529  -8.9488  -8.9430  -8.9286  -8.9121  -8.8966
    -8.8920  -8.8861  -8.8775  -8.8765  -8.8701  -8.8606  -8.8430  -8.8352
    -8.8332  -8.8279  -8.8277  -8.8213  -8.8188  -8.7921  -8.7852  -8.7615
    -8.7593  -8.7564  -8.7367  -8.7301  -8.7271  -8.7238  -8.7236  -8.7207
    -8.7192  -8.7179  -8.6819  -8.6810  -8.6581  -8.6526  -8.6395  -8.6374
    -8.6222  -8.6216  -8.5300  -8.4897  -8.4263  -8.3737  -8.3537  -8.3532
    -8.3062  -8.3029  -8.2773  -8.2576  -8.1821  -8.1223  -8.0942  -8.0326
    -8.0325  -8.0112  -7.9893  -7.9880  -7.9850  -7.9802  -7.8829  -7.8436
    -7.8130  -7.7827  -7.7713  -7.7653  -7.7519  -7.7421  -7.7400  -7.7384
    -7.7285  -7.7259  -7.7214  -7.7211  -7.7189  -7.7127  -7.6971  -7.6866
    -7.6865  -7.6712  -7.6515  -7.6495  -7.6447  -7.6428  -7.6423  -7.6417
    -7.6335  -7.6317  -7.6304  -7.6222  -7.6068  -7.6028  -7.5958  -7.5914
    -7.5856  -7.5809  -7.5777  -7.5731  -7.5672  -7.5597  -7.5459  -7.5367
    -7.5102  -7.5100  -7.5052  -7.5036  -7.5020  -7.5017  -7.4550  -7.4542
    -7.4426  -7.4019  -7.3934  -7.3779  -7.3704  -7.3022  -7.2824  -7.2220
    -7.2059  -7.2035  -7.1013  -7.0944  -7.0830  -7.0773  -7.0401  -7.0318
    -7.0252  -6.9804  -6.9760  -6.9290  -6.9169  -6.8891  -6.8740  -6.8698
    -6.8601  -6.8554  -6.8525  -6.8484  -6.8067  -6.7700  -6.7648  -6.7565
    -6.7468  -6.7323  -6.7241  -6.6611  -6.6430  -6.6203  -6.6128  -6.6006
    -6.5866  -6.5716  -6.5306  -6.5285  -6.4999  -6.4993  -6.4991  -6.4991
    -6.4961  -6.4754  -6.4608  -6.4559  -6.4545  -6.4516  -6.4491  -6.4349
    -6.3372  -6.3121  -6.2947  -6.2261  -6.2139  -6.1996  -6.1793  -6.1679
    -6.1673  -6.1670  -6.1651  -6.1573  -6.1390  -6.1134  -6.1125  -6.1069
    -6.1051  -6.1039  -6.1025  -6.0985  -5.9129  -5.8972  -5.8189  -5.8185
    -5.8113  -5.7666  -5.7655  -5.6901  -5.6545  -5.6004  -5.5575  -5.4513
    -5.4294  -4.1117  -3.9464  -3.9366  -3.9272  -3.8493  -3.8419  -3.7982
    -3.7958  -3.7545  -3.7332  -3.7331  -3.7244  -3.7195  -3.7032  -3.6954
    -3.6946  -3.6579  -3.6276  -3.5564  -3.5280  -3.5118  -3.4974  -3.4902
    -3.4775  -3.4681  -3.4649  -3.4587  -3.4492  -3.4434  -3.4356  -3.4187
    -3.4185  -3.4154  -3.4060  -3.3970  -3.3894  -3.3872  -3.3752  -3.3437
    -3.3425  -3.3408  -3.3180  -3.2765  -3.2680  -3.2673  -3.2659  -3.2627
    -3.2285  -3.2122  -3.2082  -3.2076  -3.1954  -3.1901  -3.1862  -3.1827
    -3.1778  -3.1688  -3.1676  -3.1586  -3.1533  -3.1228  -3.1211  -3.1147
    -3.1140  -3.1132  -3.1120  -3.1076  -3.0987  -3.0587  -3.0519  -3.0504
    -3.0483  -3.0435  -3.0343  -2.9866  -2.9699  -2.9469  -2.9374  -2.9186
    -2.9152  -2.9127  -2.9092  -2.9033  -2.8894  -2.8824  -2.8803  -2.8613
    -2.8601  -2.8541  -2.8492  -2.8480  -2.8468  -2.8442  -2.8351  -2.8104
    -2.8065  -2.8055  -2.8000  -2.7931  -2.7894  -2.7729  -2.7698  -2.7470
    -2.7439  -2.7373  -2.7316  -2.7273  -2.7234  -2.6411  -2.6377  -2.5868
    -2.5699  -2.5576  -2.5555  -2.5532  -2.5515  -2.5393  -2.5293  -2.4915
    -2.4791  -2.4679  -2.4036  -2.4010  -2.3963  -2.3953  -2.3943  -2.3821
    -2.3507

          k =-0.5000-0.2887 0.0000 (321564 PWs)   bands (ev):

   -88.6690 -66.6092 -66.5951 -66.5730 -66.5632 -66.5618 -66.5489 -66.5427
   -66.5375 -66.5326 -66.5294 -66.5278 -66.5240 -66.5200 -66.5199 -66.5095
   -66.5094 -66.5092 -66.5070 -66.5015 -66.4946 -66.4945 -66.4944 -66.4943
   -66.4943 -66.4901 -66.4900 -66.4841 -66.4838 -66.4838 -66.4838 -66.4836
   -66.4821 -66.4795 -66.4794 -66.4725 -66.4718 -66.4577 -66.4576 -66.4574
   -66.4574 -66.4534 -66.4518 -66.4485 -66.4468 -66.4465 -66.4450 -66.4421
   -66.4394 -54.4855 -54.4680 -54.4592 -40.8984 -40.8859 -40.8711 -40.8603
   -40.8434 -40.8349 -40.8230 -40.8213 -40.8211 -40.8210 -40.8209 -40.8131
   -40.7945 -40.7944 -40.7859 -40.7847 -40.7845 -40.7830 -40.7825 -40.7825
   -40.7823 -40.7809 -40.7765 -40.7717 -40.7584 -40.7569 -40.7555 -40.7471
   -40.7441 -40.7439 -40.7436 -40.7322 -40.7321 -40.7321 -40.7320 -40.7156
   -40.7108 -40.7051 -40.6997 -40.6964 -40.6940 -40.6938 -40.6935 -40.6935
   -40.6911 -40.6757 -40.6744 -40.6742 -40.6690 -40.6642 -40.6641 -40.6618
   -40.6568 -40.6537 -40.6536 -40.6535 -40.6515 -40.6488 -40.6434 -40.6404
   -40.6392 -40.6373 -40.6371 -40.6337 -40.6261 -40.6257 -40.6250 -40.6243
   -40.6242 -40.6242 -40.6240 -40.6179 -40.6169 -40.6158 -40.6156 -40.6154
   -40.6110 -40.6035 -40.6033 -40.6032 -40.6032 -40.6031 -40.6031 -40.6018
   -40.5947 -40.5946 -40.5886 -40.5885 -40.5884 -40.5873 -40.5847 -40.5823
   -40.5803 -40.5787 -40.5782 -40.5725 -40.5724 -40.5723 -40.5723 -40.5688
   -40.5687 -40.5682 -40.5676 -40.5675 -40.5652 -40.5647 -40.5647 -40.5589
   -40.5562 -40.5520 -40.5500 -40.5427 -40.5379 -40.5379 -40.5378 -40.5377
   -40.5355 -40.5345 -40.5338 -40.5329 -40.5259 -40.5257 -40.5229 -40.5172
   -40.5067 -40.5065 -40.5063 -40.5000 -40.4998 -40.4995 -40.4994 -40.4898
   -40.4897 -40.4887 -40.4864 -40.4814 -40.4692 -40.4678 -40.4593 -40.4592
   -40.4516 -40.4511 -40.4222 -40.4200 -20.2429 -19.7957 -19.7335 -19.7002
   -19.6031 -19.5517 -19.4832 -19.3585 -19.3008 -19.2681 -19.1931 -19.1260
   -19.0915 -18.7222 -18.7097 -18.6664 -18.6401 -18.6280 -18.6020 -18.5833
   -18.5789 -18.5630 -18.5566 -18.5200 -18.4981 -18.4758 -18.4642 -18.4580
   -18.4488 -18.4444 -18.4241 -18.3916 -18.3508 -18.3356 -18.3277 -18.3213
   -18.3065 -18.2987 -18.2738 -18.2406 -18.2108 -18.1832 -18.1688 -18.1477
   -18.1390 -18.1184 -18.1005 -18.0587 -18.0523 -18.0266 -18.0224 -18.0154
   -18.0113 -18.0080 -18.0071 -18.0026 -17.9784 -17.9738 -17.9725 -17.9701
   -17.9421 -17.9304 -17.9245 -17.9219 -17.9147 -17.9052 -17.8938 -17.8917
   -17.8917 -17.8901 -17.8585 -17.8466 -17.8414 -17.8296 -17.8251 -17.8235
   -17.7857 -17.7737 -17.7694 -17.7676 -17.7649 -17.7591 -17.7216 -17.7155
   -17.7062 -17.7057 -17.7038 -17.7032 -17.7025 -17.7017 -17.6565 -17.6556
   -17.6313 -17.6309 -17.6022 -17.6017 -12.9588 -11.5999 -11.5594 -11.5331
   -11.4997 -11.4582 -11.4215 -11.3776 -11.3534 -11.3230 -11.3223 -11.3186
   -11.3137 -11.2925 -11.2752 -11.2542 -11.2466 -11.2349 -11.2319 -11.2275
   -11.2090 -11.1976 -11.1885 -11.1805 -11.1576 -11.1480 -11.1265 -11.0982
   -11.0982 -11.0811 -11.0809 -11.0619 -11.0576 -11.0472 -11.0287 -10.9476
   -10.9337 -10.9211 -10.9023 -10.8898 -10.8819 -10.8616 -10.8325 -10.8295
   -10.7965 -10.7862 -10.7658 -10.7617 -10.7584 -10.7420 -10.7352 -10.7204
   -10.7186 -10.7155 -10.6978 -10.6961 -10.6842 -10.6761 -10.6737 -10.6734
   -10.6493 -10.6240 -10.6227 -10.6219 -10.6073 -10.4732 -10.4473 -10.4332
   -10.3955 -10.3334 -10.2968 -10.2671 -10.2274 -10.1730 -10.1477 -10.0515
   -10.0305 -10.0201  -9.9937  -9.9524  -9.9501  -9.9249  -9.9226  -9.8559
    -9.8462  -9.8456  -9.8396  -9.8347  -9.8288  -9.8230  -9.7999  -9.7852
    -9.7786  -9.7578  -9.7470  -9.7225  -9.7169  -9.7039  -9.6859  -9.6725
    -9.6568  -9.6419  -9.6316  -9.6077  -9.5988  -9.5759  -9.5670  -9.5556
    -9.5493  -9.5403  -9.5389  -9.5357  -9.5309  -9.5270  -9.5226  -9.5191
    -9.4899  -9.4646  -9.4262  -9.4049  -9.3965  -9.3878  -9.3789  -9.3650
    -9.3437  -9.3423  -9.2947  -9.2607  -9.2321  -9.2072  -9.1466  -9.1351
    -9.0880  -9.0793  -9.0681  -9.0634  -9.0464  -9.0418  -9.0300  -9.0265
    -8.9919  -8.9596  -8.9526  -8.9466  -8.9435  -8.9316  -8.9055  -8.8970
    -8.8967  -8.8917  -8.8834  -8.8757  -8.8742  -8.8662  -8.8457  -8.8316
    -8.8303  -8.8284  -8.8249  -8.8191  -8.8106  -8.7970  -8.7805  -8.7647
    -8.7596  -8.7576  -8.7386  -8.7287  -8.7253  -8.7243  -8.7238  -8.7218
    -8.7185  -8.7177  -8.6825  -8.6809  -8.6666  -8.6484  -8.6431  -8.6328
    -8.6221  -8.6209  -8.5446  -8.4834  -8.4094  -8.3876  -8.3536  -8.3534
    -8.3032  -8.3012  -8.2831  -8.2147  -8.1810  -8.1246  -8.1125  -8.0326
    -8.0325  -8.0009  -7.9914  -7.9883  -7.9800  -7.9767  -7.8959  -7.8449
    -7.8059  -7.7792  -7.7703  -7.7699  -7.7531  -7.7507  -7.7412  -7.7378
    -7.7338  -7.7259  -7.7232  -7.7210  -7.7209  -7.7001  -7.6978  -7.6866
    -7.6864  -7.6694  -7.6540  -7.6477  -7.6460  -7.6445  -7.6424  -7.6419
    -7.6413  -7.6309  -7.6272  -7.6219  -7.6097  -7.5994  -7.5944  -7.5914
    -7.5865  -7.5809  -7.5761  -7.5733  -7.5680  -7.5521  -7.5510  -7.5432
    -7.5118  -7.5083  -7.5063  -7.5044  -7.5020  -7.5017  -7.4555  -7.4537
    -7.4337  -7.4193  -7.3942  -7.3787  -7.3682  -7.3016  -7.2942  -7.2387
    -7.2065  -7.1640  -7.1131  -7.0906  -7.0879  -7.0626  -7.0504  -7.0293
    -7.0237  -6.9963  -6.9499  -6.9296  -6.9007  -6.8896  -6.8735  -6.8698
    -6.8666  -6.8598  -6.8549  -6.8481  -6.8004  -6.7665  -6.7648  -6.7588
    -6.7474  -6.7410  -6.7244  -6.6624  -6.6456  -6.6279  -6.6135  -6.6069
    -6.5958  -6.5449  -6.5298  -6.5280  -6.4995  -6.4992  -6.4991  -6.4990
    -6.4892  -6.4833  -6.4662  -6.4561  -6.4541  -6.4532  -6.4521  -6.4217
    -6.3421  -6.3119  -6.2941  -6.2306  -6.2183  -6.2047  -6.1790  -6.1680
    -6.1674  -6.1663  -6.1658  -6.1586  -6.1311  -6.1131  -6.1126  -6.1068
    -6.1053  -6.1036  -6.1033  -6.0982  -5.9132  -5.8981  -5.8187  -5.8185
    -5.8117  -5.7665  -5.7658  -5.6915  -5.6349  -5.6214  -5.5540  -5.4533
    -5.4260  -4.1063  -3.9516  -3.9336  -3.9193  -3.8673  -3.8287  -3.8016
    -3.7844  -3.7611  -3.7332  -3.7332  -3.7310  -3.7096  -3.6987  -3.6954
    -3.6948  -3.6581  -3.6320  -3.5522  -3.5257  -3.5158  -3.5050  -3.4866
    -3.4744  -3.4682  -3.4640  -3.4572  -3.4492  -3.4451  -3.4319  -3.4214
    -3.4179  -3.4135  -3.4086  -3.3941  -3.3884  -3.3861  -3.3737  -3.3708
    -3.3438  -3.3420  -3.3165  -3.2744  -3.2694  -3.2677  -3.2654  -3.2538
    -3.2317  -3.2147  -3.2116  -3.2007  -3.1977  -3.1929  -3.1889  -3.1832
    -3.1800  -3.1708  -3.1651  -3.1577  -3.1471  -3.1239  -3.1202  -3.1146
    -3.1137  -3.1127  -3.1119  -3.1098  -3.0964  -3.0669  -3.0520  -3.0502
    -3.0494  -3.0372  -3.0292  -2.9968  -2.9680  -2.9404  -2.9387  -2.9206
    -2.9123  -2.9095  -2.9056  -2.9022  -2.8966  -2.8855  -2.8807  -2.8619
    -2.8582  -2.8555  -2.8478  -2.8468  -2.8463  -2.8414  -2.8364  -2.8121
    -2.8058  -2.8046  -2.8017  -2.7949  -2.7864  -2.7729  -2.7597  -2.7523
    -2.7437  -2.7372  -2.7333  -2.7297  -2.7232  -2.6371  -2.6299  -2.5817
    -2.5633  -2.5602  -2.5442  -2.5427  -2.5395  -2.5358  -2.5183  -2.4788
    -2.4723  -2.4029  -2.4014  -2.3966  -2.3944  -2.3928  -2.3881  -2.3460
    -2.3212

          k =-0.5000-0.8660 0.0000 (321564 PWs)   bands (ev):

   -88.6690 -66.6092 -66.5953 -66.5724 -66.5641 -66.5616 -66.5480 -66.5414
   -66.5388 -66.5342 -66.5304 -66.5261 -66.5236 -66.5200 -66.5199 -66.5095
   -66.5094 -66.5088 -66.5072 -66.5020 -66.4946 -66.4946 -66.4944 -66.4942
   -66.4942 -66.4901 -66.4900 -66.4841 -66.4839 -66.4838 -66.4838 -66.4836
   -66.4819 -66.4795 -66.4794 -66.4725 -66.4719 -66.4578 -66.4575 -66.4573
   -66.4572 -66.4536 -66.4516 -66.4488 -66.4472 -66.4460 -66.4449 -66.4421
   -66.4395 -54.4855 -54.4680 -54.4592 -40.8905 -40.8794 -40.8763 -40.8648
   -40.8599 -40.8382 -40.8254 -40.8213 -40.8211 -40.8211 -40.8208 -40.8046
   -40.7945 -40.7943 -40.7847 -40.7832 -40.7825 -40.7825 -40.7820 -40.7808
   -40.7797 -40.7774 -40.7720 -40.7698 -40.7581 -40.7570 -40.7554 -40.7537
   -40.7442 -40.7437 -40.7417 -40.7322 -40.7321 -40.7321 -40.7320 -40.7181
   -40.7126 -40.7084 -40.6983 -40.6968 -40.6940 -40.6938 -40.6936 -40.6935
   -40.6879 -40.6762 -40.6744 -40.6742 -40.6729 -40.6642 -40.6642 -40.6641
   -40.6559 -40.6536 -40.6535 -40.6512 -40.6474 -40.6450 -40.6421 -40.6406
   -40.6393 -40.6385 -40.6371 -40.6360 -40.6261 -40.6256 -40.6245 -40.6243
   -40.6242 -40.6241 -40.6240 -40.6210 -40.6179 -40.6170 -40.6156 -40.6154
   -40.6103 -40.6078 -40.6035 -40.6033 -40.6032 -40.6032 -40.6031 -40.6030
   -40.5947 -40.5946 -40.5911 -40.5886 -40.5885 -40.5884 -40.5872 -40.5816
   -40.5805 -40.5780 -40.5772 -40.5725 -40.5724 -40.5723 -40.5723 -40.5691
   -40.5681 -40.5670 -40.5669 -40.5651 -40.5647 -40.5644 -40.5603 -40.5589
   -40.5567 -40.5562 -40.5557 -40.5379 -40.5379 -40.5378 -40.5377 -40.5359
   -40.5353 -40.5348 -40.5336 -40.5327 -40.5259 -40.5257 -40.5236 -40.5128
   -40.5067 -40.5065 -40.4999 -40.4998 -40.4996 -40.4994 -40.4985 -40.4909
   -40.4898 -40.4897 -40.4888 -40.4863 -40.4695 -40.4675 -40.4594 -40.4592
   -40.4516 -40.4512 -40.4224 -40.4198 -20.2452 -19.7777 -19.7339 -19.6887
   -19.6167 -19.5457 -19.5212 -19.3604 -19.3002 -19.2690 -19.1836 -19.1268
   -19.0731 -18.7240 -18.7002 -18.6763 -18.6441 -18.6275 -18.6001 -18.5825
   -18.5799 -18.5620 -18.5526 -18.5204 -18.4902 -18.4814 -18.4646 -18.4464
   -18.4451 -18.4430 -18.4362 -18.3786 -18.3604 -18.3343 -18.3242 -18.3220
   -18.3166 -18.3008 -18.2876 -18.2412 -18.2177 -18.1916 -18.1619 -18.1461
   -18.1351 -18.1215 -18.1167 -18.0632 -18.0400 -18.0231 -18.0184 -18.0127
   -18.0123 -18.0107 -18.0037 -18.0000 -17.9813 -17.9742 -17.9698 -17.9658
   -17.9453 -17.9332 -17.9236 -17.9141 -17.9055 -17.8985 -17.8967 -17.8939
   -17.8933 -17.8901 -17.8614 -17.8434 -17.8331 -17.8268 -17.8213 -17.8191
   -17.8040 -17.7721 -17.7705 -17.7677 -17.7661 -17.7638 -17.7232 -17.7158
   -17.7062 -17.7057 -17.7044 -17.7039 -17.7025 -17.7013 -17.6566 -17.6557
   -17.6313 -17.6310 -17.6022 -17.6018 -12.9588 -11.6539 -11.5731 -11.5464
   -11.4558 -11.4169 -11.3737 -11.3717 -11.3558 -11.3242 -11.3198 -11.3081
   -11.3063 -11.2977 -11.2881 -11.2610 -11.2407 -11.2330 -11.2281 -11.2234
   -11.2216 -11.2188 -11.2031 -11.1815 -11.1581 -11.1473 -11.1297 -11.0984
   -11.0982 -11.0836 -11.0812 -11.0707 -11.0538 -11.0472 -11.0282 -10.9660
   -10.9338 -10.9140 -10.8987 -10.8814 -10.8793 -10.8648 -10.8474 -10.8317
   -10.7922 -10.7776 -10.7644 -10.7588 -10.7502 -10.7410 -10.7300 -10.7268
   -10.7152 -10.7140 -10.6986 -10.6964 -10.6816 -10.6754 -10.6734 -10.6695
   -10.6498 -10.6242 -10.6212 -10.6202 -10.6136 -10.4840 -10.4685 -10.4124
   -10.3818 -10.3306 -10.2993 -10.2808 -10.2240 -10.1687 -10.1438 -10.0703
   -10.0416 -10.0248  -9.9950  -9.9561  -9.9474  -9.9367  -9.9193  -9.8546
    -9.8471  -9.8417  -9.8412  -9.8375  -9.8253  -9.8236  -9.8087  -9.7851
    -9.7750  -9.7628  -9.7471  -9.7219  -9.7152  -9.7111  -9.6883  -9.6828
    -9.6794  -9.6481  -9.6299  -9.6045  -9.5915  -9.5725  -9.5689  -9.5540
    -9.5514  -9.5500  -9.5412  -9.5364  -9.5336  -9.5285  -9.5261  -9.5167
    -9.4708  -9.4583  -9.4189  -9.4047  -9.3991  -9.3855  -9.3638  -9.3602
    -9.3429  -9.3420  -9.2665  -9.2388  -9.2099  -9.1964  -9.1459  -9.1237
    -9.1050  -9.0916  -9.0794  -9.0618  -9.0543  -9.0372  -9.0340  -9.0270
    -8.9820  -8.9640  -8.9554  -8.9509  -8.9437  -8.9292  -8.9077  -8.9015
    -8.8947  -8.8854  -8.8797  -8.8748  -8.8705  -8.8644  -8.8560  -8.8393
    -8.8308  -8.8301  -8.8282  -8.8244  -8.8105  -8.8043  -8.7834  -8.7625
    -8.7523  -8.7447  -8.7417  -8.7337  -8.7295  -8.7245  -8.7232  -8.7180
    -8.7173  -8.7158  -8.6815  -8.6806  -8.6584  -8.6529  -8.6421  -8.6332
    -8.6229  -8.6221  -8.5472  -8.5034  -8.4333  -8.3586  -8.3534  -8.3532
    -8.3297  -8.3011  -8.2978  -8.2118  -8.1760  -8.1035  -8.0710  -8.0327
    -8.0324  -8.0209  -7.9895  -7.9876  -7.9845  -7.9744  -7.8823  -7.8473
    -7.8149  -7.7797  -7.7750  -7.7715  -7.7629  -7.7501  -7.7458  -7.7345
    -7.7323  -7.7271  -7.7211  -7.7198  -7.7125  -7.6952  -7.6867  -7.6865
    -7.6804  -7.6747  -7.6490  -7.6458  -7.6448  -7.6435  -7.6424  -7.6418
    -7.6389  -7.6319  -7.6283  -7.6237  -7.6188  -7.6088  -7.5973  -7.5871
    -7.5833  -7.5826  -7.5777  -7.5757  -7.5596  -7.5505  -7.5412  -7.5279
    -7.5111  -7.5067  -7.5052  -7.5021  -7.5016  -7.4994  -7.4567  -7.4538
    -7.4503  -7.4029  -7.3880  -7.3799  -7.3660  -7.3643  -7.2933  -7.2436
    -7.2119  -7.1588  -7.1050  -7.0993  -7.0848  -7.0660  -7.0547  -7.0427
    -7.0279  -6.9786  -6.9530  -6.9220  -6.9098  -6.8879  -6.8718  -6.8692
    -6.8567  -6.8548  -6.8482  -6.8459  -6.8258  -6.7650  -6.7639  -6.7608
    -6.7483  -6.7325  -6.7130  -6.6634  -6.6374  -6.6266  -6.6149  -6.6060
    -6.5767  -6.5380  -6.5325  -6.5271  -6.5149  -6.4995  -6.4991  -6.4990
    -6.4990  -6.4794  -6.4629  -6.4591  -6.4546  -6.4531  -6.4504  -6.4472
    -6.3362  -6.3112  -6.2992  -6.2286  -6.2141  -6.1979  -6.1806  -6.1688
    -6.1680  -6.1666  -6.1652  -6.1564  -6.1470  -6.1132  -6.1125  -6.1070
    -6.1056  -6.1027  -6.1017  -6.0830  -5.9223  -5.9065  -5.8188  -5.8186
    -5.8084  -5.7667  -5.7654  -5.6843  -5.6465  -5.5950  -5.5614  -5.4488
    -5.4328  -4.1340  -3.9462  -3.9394  -3.9184  -3.8494  -3.8280  -3.8008
    -3.7835  -3.7526  -3.7332  -3.7330  -3.7183  -3.7149  -3.7026  -3.6954
    -3.6948  -3.6343  -3.6251  -3.5996  -3.5457  -3.5042  -3.4892  -3.4889
    -3.4819  -3.4752  -3.4659  -3.4606  -3.4478  -3.4448  -3.4391  -3.4264
    -3.4187  -3.4169  -3.4105  -3.3916  -3.3896  -3.3827  -3.3745  -3.3437
    -3.3427  -3.3385  -3.3092  -3.2729  -3.2704  -3.2680  -3.2665  -3.2547
    -3.2352  -3.2127  -3.2096  -3.2058  -3.1967  -3.1927  -3.1866  -3.1805
    -3.1790  -3.1700  -3.1668  -3.1604  -3.1528  -3.1235  -3.1205  -3.1150
    -3.1138  -3.1133  -3.1122  -3.1053  -3.1019  -3.0598  -3.0503  -3.0499
    -3.0459  -3.0367  -3.0323  -2.9764  -2.9700  -2.9630  -2.9344  -2.9297
    -2.9152  -2.9098  -2.9055  -2.8938  -2.8917  -2.8895  -2.8774  -2.8640
    -2.8576  -2.8557  -2.8491  -2.8481  -2.8441  -2.8411  -2.8395  -2.8120
    -2.8068  -2.8023  -2.8001  -2.7931  -2.7871  -2.7847  -2.7639  -2.7466
    -2.7439  -2.7330  -2.7292  -2.7283  -2.7258  -2.6403  -2.6375  -2.5746
    -2.5661  -2.5595  -2.5552  -2.5485  -2.5456  -2.5420  -2.5256  -2.4810
    -2.4774  -2.4728  -2.4033  -2.4008  -2.3975  -2.3947  -2.3879  -2.3861
    -2.3456

     the Fermi energy is    -4.1377 ev

!    total energy              =  -24358.20737419 Ry
     total all-electron energy =   -475458.084186 Ry
     estimated scf accuracy    <       0.00000006 Ry
     smearing contrib. (-TS)   =      -0.00706220 Ry
     internal energy E=F+TS    =  -24358.20031199 Ry

     The total energy is F=E-TS. E is the sum of the following terms:
     one-electron contribution =  459423.95816447 Ry
     hartree contribution      = -229811.46242326 Ry
     xc contribution           =   -1459.72853689 Ry
     ewald contribution        = -236909.17985884 Ry
     DFT-D3 Dispersion         =      -3.98604654 Ry
     one-center paw contrib.   =  -15597.80161092 Ry

     convergence has been achieved in  24 iterations

     negative rho (up, down):  9.105E-04 0.000E+00

     Forces acting on atoms (cartesian axes, Ry/au):

     atom    1 type  1   force =    -0.00865790   -0.00643099    0.00535083
     atom    2 type  1   force =    -0.00008243    0.00003306    0.00193562
     atom    3 type  1   force =    -0.00005789   -0.00026982    0.00067659
     atom    4 type  2   force =     0.00000061    0.00000335   -0.00326480
     atom    5 type  2   force =    -0.00007682    0.00005890   -0.00057549
     atom    6 type  2   force =     0.00005246   -0.00031208   -0.00785338
     atom    7 type  2   force =     0.00000275    0.00004128    0.00150973
     atom    8 type  2   force =    -0.00034186    0.00017464    0.00068237
     atom    9 type  2   force =     0.00062598    0.00076886   -0.02326568
     atom   10 type  1   force =    -0.00013589   -0.00339660   -0.00016072
     atom   11 type  1   force =     0.00000944   -0.00007350    0.00193571
     atom   12 type  1   force =    -0.00000926   -0.00027048   -0.00010343
     atom   13 type  2   force =    -0.00000007   -0.00000135   -0.00325756
     atom   14 type  2   force =    -0.00001593   -0.00010648   -0.00053476
     atom   15 type  2   force =    -0.00061915   -0.00165452   -0.00223175
     atom   16 type  2   force =     0.00003564   -0.00002068    0.00153496
     atom   17 type  2   force =    -0.00002479   -0.00035013    0.00075407
     atom   18 type  2   force =    -0.00169981    0.00641117    0.00285945
     atom   19 type  1   force =     0.00056054    0.00024080    0.00043615
     atom   20 type  1   force =    -0.00001630   -0.00000152    0.00190993
     atom   21 type  1   force =     0.00010144    0.00008522    0.00039010
     atom   22 type  2   force =    -0.00000270   -0.00000386   -0.00322862
     atom   23 type  2   force =     0.00003298   -0.00001043   -0.00023432
     atom   24 type  2   force =    -0.00015740   -0.00018214   -0.00113836
     atom   25 type  2   force =    -0.00000182    0.00000505    0.00145755
     atom   26 type  2   force =    -0.00000693    0.00000928   -0.00008003
     atom   27 type  2   force =     0.00047274    0.00039197    0.00059801
     atom   28 type  1   force =    -0.00236253    0.00160571   -0.00028323
     atom   29 type  1   force =    -0.00000807   -0.00001325    0.00191804
     atom   30 type  1   force =    -0.00015982    0.00031670   -0.00011220
     atom   31 type  2   force =    -0.00000279    0.00000013   -0.00322692
     atom   32 type  2   force =     0.00000919    0.00003194   -0.00024225
     atom   33 type  2   force =    -0.00205227    0.00051020   -0.00256230
     atom   34 type  2   force =     0.00000107   -0.00000035    0.00147531
     atom   35 type  2   force =     0.00001578   -0.00000620   -0.00006731
     atom   36 type  2   force =     0.00495749   -0.00471413    0.00286550
     atom   37 type  1   force =     0.00587251    0.00286686    0.00041043
     atom   38 type  1   force =     0.00001203    0.00001031    0.00191129
     atom   39 type  1   force =    -0.00042184    0.00005674   -0.00022224
     atom   40 type  2   force =     0.00000253   -0.00000443   -0.00322961
     atom   41 type  2   force =    -0.00002725   -0.00002042   -0.00021409
     atom   42 type  2   force =    -0.00124310    0.00206623   -0.00187669
     atom   43 type  2   force =     0.00000499   -0.00000292    0.00147887
     atom   44 type  2   force =     0.00002142   -0.00001912   -0.00008746
     atom   45 type  2   force =     0.00606910   -0.00112679    0.00241697
     atom   46 type  1   force =     0.00541958    0.00459191   -0.00134423
     atom   47 type  1   force =    -0.00001750    0.00000237    0.00181106
     atom   48 type  1   force =     0.00006078   -0.00016260   -0.00009834
     atom   49 type  2   force =     0.00000061   -0.00000349   -0.00326063
     atom   50 type  2   force =     0.00006543    0.00002128   -0.00014068
     atom   51 type  2   force =     0.00118083   -0.00146673   -0.00224345
     atom   52 type  2   force =    -0.00003930   -0.00001025    0.00152633
     atom   53 type  2   force =    -0.00010187    0.00000680    0.00029483
     atom   54 type  2   force =     0.00287682    0.00819500    0.00474229
     atom   55 type  1   force =     0.00015057    0.00012943    0.00095157
     atom   56 type  1   force =     0.00001658   -0.00000486    0.00191571
     atom   57 type  1   force =     0.00006366    0.00002631    0.00024642
     atom   58 type  2   force =     0.00000031    0.00000476   -0.00323127
     atom   59 type  2   force =    -0.00002667   -0.00001666   -0.00026667
     atom   60 type  2   force =     0.00048972   -0.00045798   -0.00100627
     atom   61 type  2   force =     0.00000776    0.00000178    0.00147815
     atom   62 type  2   force =     0.00005400   -0.00001626   -0.00003192
     atom   63 type  2   force =     0.00030527   -0.00030525    0.00077568
     atom   64 type  1   force =    -0.00013572   -0.00034938    0.00084346
     atom   65 type  1   force =    -0.00000360    0.00000779    0.00188007
     atom   66 type  1   force =    -0.00001312   -0.00006357    0.00029332
     atom   67 type  2   force =    -0.00000504   -0.00000049   -0.00324004
     atom   68 type  2   force =    -0.00000489    0.00000341   -0.00033302
     atom   69 type  2   force =    -0.00007328    0.00003731   -0.00103551
     atom   70 type  2   force =     0.00000302    0.00000082    0.00147109
     atom   71 type  2   force =    -0.00000714    0.00001253    0.00031922
     atom   72 type  2   force =    -0.00017751   -0.00005320    0.00056707
     atom   73 type  1   force =    -0.00598340    0.00285049    0.00053483
     atom   74 type  1   force =    -0.00001489    0.00000705    0.00191320
     atom   75 type  1   force =     0.00007245   -0.00011103    0.00039479
     atom   76 type  2   force =     0.00000155    0.00000286   -0.00324147
     atom   77 type  2   force =     0.00006771    0.00000227   -0.00019081
     atom   78 type  2   force =    -0.00013029    0.00025157   -0.00107611
     atom   79 type  2   force =    -0.00000323   -0.00000248    0.00145101
     atom   80 type  2   force =    -0.00005356   -0.00002890   -0.00000223
     atom   81 type  2   force =     0.00013454   -0.00040496    0.00079588
     atom   82 type  1   force =    -0.00005238    0.00019871    0.00082751
     atom   83 type  1   force =    -0.00000683   -0.00000079    0.00192057
     atom   84 type  1   force =     0.00030323    0.00027227    0.00017980
     atom   85 type  2   force =     0.00000001    0.00000614   -0.00322712
     atom   86 type  2   force =     0.00002272    0.00001993   -0.00021037
     atom   87 type  2   force =    -0.00066988   -0.00056250   -0.00045738
     atom   88 type  2   force =     0.00000528    0.00000828    0.00146955
     atom   89 type  2   force =     0.00004208    0.00004672    0.00000880
     atom   90 type  2   force =     0.00029577    0.00007691    0.00007985
     atom   91 type  1   force =    -0.00050931   -0.00688501    0.00014668
     atom   92 type  1   force =    -0.00001527   -0.00000324    0.00191698
     atom   93 type  1   force =    -0.00017414   -0.00008731    0.00043127
     atom   94 type  2   force =     0.00000357   -0.00000451   -0.00323580
     atom   95 type  2   force =     0.00002292   -0.00000997   -0.00023761
     atom   96 type  2   force =     0.00016055   -0.00052566   -0.00138657
     atom   97 type  2   force =    -0.00000031    0.00000184    0.00147798
     atom   98 type  2   force =     0.00003542   -0.00005945    0.00007820
     atom   99 type  2   force =    -0.00074667   -0.00010779    0.00096295
     atom  100 type  1   force =     0.00252682    0.00153311    0.00004778
     atom  101 type  1   force =     0.00000888   -0.00001369    0.00190948
     atom  102 type  1   force =    -0.00005518    0.00000027    0.00030445
     atom  103 type  2   force =     0.00000324   -0.00000283   -0.00323780
     atom  104 type  2   force =     0.00000045    0.00004830   -0.00021425
     atom  105 type  2   force =    -0.00004083   -0.00001826   -0.00103110
     atom  106 type  2   force =     0.00000666   -0.00000155    0.00146859
     atom  107 type  2   force =    -0.00001490    0.00002861   -0.00004063
     atom  108 type  2   force =     0.00022226   -0.00000562    0.00077952
     atom  109 type  1   force =     0.00875073   -0.00474161    0.00611034
     atom  110 type  1   force =     0.00007996    0.00002431    0.00194297
     atom  111 type  1   force =     0.00035473    0.00004826   -0.00005826
     atom  112 type  2   force =    -0.00000169   -0.00000205   -0.00322980
     atom  113 type  2   force =     0.00003967    0.00007994   -0.00053288
     atom  114 type  2   force =     0.00115706    0.00145070   -0.00269139
     atom  115 type  2   force =    -0.00000426   -0.00000441    0.00148959
     atom  116 type  2   force =     0.00038167    0.00013865    0.00065751
     atom  117 type  2   force =    -0.00663919   -0.00194927    0.00263521
     atom  118 type  1   force =    -0.00539261    0.00377681    0.00094859
     atom  119 type  1   force =     0.00001032    0.00000382    0.00181324
     atom  120 type  1   force =    -0.00032196    0.00018349    0.00018948
     atom  121 type  2   force =     0.00000234    0.00000556   -0.00322402
     atom  122 type  2   force =    -0.00005650   -0.00002411   -0.00008899
     atom  123 type  2   force =     0.00032705   -0.00018584   -0.00038513
     atom  124 type  2   force =    -0.00000113   -0.00000049    0.00148179
     atom  125 type  2   force =     0.00008522    0.00001249    0.00031313
     atom  126 type  2   force =    -0.00049475    0.00003508    0.00021458
     atom  127 type  1   force =    -0.00004402   -0.00634259    0.00061297
     atom  128 type  1   force =     0.00001254   -0.00000501    0.00191898
     atom  129 type  1   force =    -0.00004716   -0.00046714    0.00007591
     atom  130 type  2   force =    -0.00000041    0.00000050   -0.00323418
     atom  131 type  2   force =    -0.00003018   -0.00000623   -0.00022223
     atom  132 type  2   force =    -0.00059110    0.00010148   -0.00016252
     atom  133 type  2   force =    -0.00000732   -0.00000577    0.00146120
     atom  134 type  2   force =    -0.00005937   -0.00004266   -0.00000201
     atom  135 type  2   force =    -0.00006860   -0.00056031    0.00036260
     atom  136 type  1   force =     0.00072270    0.01033572    0.00736428
     atom  137 type  1   force =    -0.00000443    0.00003465    0.00181027
[...]
     atom   63 type  2   force =     0.00036266   -0.00020763   -0.00422347
     atom   64 type  1   force =     0.00001253    0.00000363   -0.00254671
     atom   65 type  1   force =    -0.00000025   -0.00000010    0.00260414
     atom   66 type  1   force =    -0.00000043   -0.00000016   -0.00001928
     atom   67 type  2   force =    -0.00000005    0.00000003    0.00441177
     atom   68 type  2   force =    -0.00000173   -0.00000028   -0.00004758
     atom   69 type  2   force =    -0.00000213   -0.00000014   -0.00019376
     atom   70 type  2   force =    -0.00000026   -0.00000003    0.00023506
     atom   71 type  2   force =    -0.00001520    0.00001250    0.00008652
     atom   72 type  2   force =     0.00002061    0.00001361   -0.00438537
     atom   73 type  1   force =    -0.00006533    0.00005320   -0.00252162
     atom   74 type  1   force =     0.00000001   -0.00000003    0.00260381
     atom   75 type  1   force =     0.00000709   -0.00000555   -0.00002347
     atom   76 type  2   force =    -0.00000000   -0.00000001    0.00441164
     atom   77 type  2   force =     0.00000005    0.00000070   -0.00004700
     atom   78 type  2   force =     0.00000910    0.00000986   -0.00014461
     atom   79 type  2   force =    -0.00000055   -0.00000009    0.00023479
     atom   80 type  2   force =     0.00000217    0.00000576    0.00009478
     atom   81 type  2   force =    -0.00018161    0.00022174   -0.00431360
     atom   82 type  1   force =    -0.00024943    0.00000542   -0.00232434
     atom   83 type  1   force =    -0.00000021    0.00000020    0.00260417
     atom   84 type  1   force =     0.00001146   -0.00000459   -0.00005103
     atom   85 type  2   force =     0.00000001    0.00000001    0.00441160
     atom   86 type  2   force =    -0.00000001   -0.00000003   -0.00004895
     atom   87 type  2   force =    -0.00003448    0.00002316    0.00013449
     atom   88 type  2   force =    -0.00000073    0.00000017    0.00023527
     atom   89 type  2   force =     0.00001026   -0.00000181    0.00009830
     atom   90 type  2   force =     0.00080793   -0.00047625   -0.00517888
     atom   91 type  1   force =    -0.00010397   -0.00021129   -0.00231589
     atom   92 type  1   force =     0.00000004   -0.00000006    0.00260445
     atom   93 type  1   force =     0.00000140    0.00001033   -0.00005404
     atom   94 type  2   force =     0.00000000   -0.00000002    0.00441153
     atom   95 type  2   force =     0.00000119    0.00000067   -0.00005234
     atom   96 type  2   force =     0.00000686   -0.00004605    0.00013796
     atom   97 type  2   force =    -0.00000010   -0.00000042    0.00023532
     atom   98 type  2   force =     0.00001967    0.00000646    0.00008194
     atom   99 type  2   force =     0.00000379    0.00091488   -0.00515912
     atom  100 type  1   force =     0.00005693   -0.00005424   -0.00248982
     atom  101 type  1   force =     0.00000018   -0.00000010    0.00260414
     atom  102 type  1   force =    -0.00000297    0.00000971   -0.00002642
     atom  103 type  2   force =    -0.00000001    0.00000001    0.00441158
     atom  104 type  2   force =     0.00000121    0.00000008   -0.00005001
     atom  105 type  2   force =     0.00000768    0.00000662   -0.00014737
     atom  106 type  2   force =     0.00000016   -0.00000037    0.00023493
     atom  107 type  2   force =     0.00000387    0.00001019    0.00009398
     atom  108 type  2   force =     0.00009603   -0.00026447   -0.00430131
     atom  109 type  1   force =     0.00014539    0.00000021   -0.00237644
     atom  110 type  1   force =     0.00000066    0.00000009    0.00260482
     atom  111 type  1   force =     0.00000318    0.00000165   -0.00001402
     atom  112 type  2   force =     0.00000001   -0.00000001    0.00441163
     atom  113 type  2   force =     0.00000020   -0.00000053   -0.00004518
     atom  114 type  2   force =     0.00000017   -0.00000327   -0.00017090
     atom  115 type  2   force =     0.00000066   -0.00000011    0.00023539
     atom  116 type  2   force =    -0.00000322    0.00000097    0.00009151
     atom  117 type  2   force =     0.00017044    0.00001175   -0.00433412
     atom  118 type  1   force =    -0.00000723   -0.00002751   -0.00253931
     atom  119 type  1   force =     0.00000027    0.00000005    0.00260421
     atom  120 type  1   force =     0.00000801   -0.00000187   -0.00002094
     atom  121 type  2   force =    -0.00000002    0.00000002    0.00441160
     atom  122 type  2   force =     0.00000071    0.00000001   -0.00004603
     atom  123 type  2   force =    -0.00000102   -0.00000754   -0.00014689
     atom  124 type  2   force =     0.00000005    0.00000028    0.00023527
     atom  125 type  2   force =    -0.00000164   -0.00000248    0.00009663
     atom  126 type  2   force =    -0.00026942    0.00004661   -0.00431258
     atom  127 type  1   force =    -0.00011142   -0.00005033   -0.00252752
     atom  128 type  1   force =    -0.00000004    0.00000022    0.00260446
     atom  129 type  1   force =     0.00001115    0.00000463   -0.00003321
     atom  130 type  2   force =     0.00000001   -0.00000001    0.00441162
     atom  131 type  2   force =     0.00000057    0.00000165   -0.00004708
     atom  132 type  2   force =    -0.00002299   -0.00001658   -0.00010414
     atom  133 type  2   force =    -0.00000025    0.00000017    0.00023550
     atom  134 type  2   force =     0.00001433    0.00000488    0.00009033
     atom  135 type  2   force =    -0.00035689   -0.00019179   -0.00423701
     atom  136 type  1   force =    -0.00001409    0.00008682   -0.00239461
     atom  137 type  1   force =     0.00000025    0.00000030    0.00260492
     atom  138 type  1   force =     0.00000567    0.00001183   -0.00002575
     atom  139 type  2   force =     0.00000000    0.00000000    0.00441160
     atom  140 type  2   force =     0.00000163    0.00000057   -0.00004711
     atom  141 type  2   force =    -0.00001081    0.00000714   -0.00014093
     atom  142 type  2   force =     0.00000032    0.00000010    0.00023533
     atom  143 type  2   force =     0.00001531    0.00001088    0.00008883
     atom  144 type  2   force =     0.00000476   -0.00012909   -0.00424002
     atom  145 type  3   force =    -0.00009417   -0.00006466    0.00119884
     atom  146 type  4   force =     0.00004145    0.00005289   -0.00138376

     Total force =     0.002846     Total SCF correction =     0.000266
     Energy error            =      1.7E-05 Ry
     Gradient error          =      8.7E-04 Ry/Bohr

     bfgs converged in   9 scf cycles and   8 bfgs steps
     (criteria: energy <  1.0E-04 Ry, force <  1.0E-03 Ry/Bohr)

     End of BFGS Geometry Optimization

     Final energy             =  -24358.2100553501 Ry

     File ./outdir/pwscf.bfgs deleted, as requested
Begin final coordinates

ATOMIC_POSITIONS (angstrom)
Mo            1.5633401319        2.7137379260        6.0953868161
Mo            1.5769197498        0.9104407117       -6.0872367793    0   0   0
Mo            0.0000877224        1.8207145003        0.0006958134
S             0.0000044503        0.0000077495       -7.6506323570    0   0   0
S             1.5756125085        0.9114222037       -1.5678817907
S             0.0019246174        1.8204039637        4.4917106700
S             0.0000053241        0.0000068460       -4.5222282367    0   0   0
S             1.5768489491        0.9102964020        1.5672795101
S            -0.0106681874        1.8104476902        7.6136645580
Mo           -0.0143931889        5.4610691365        6.0883563849
Mo            0.0000011799        3.6417399547       -6.0872367793    0   0   0
Mo           -1.5763802191        4.5514311921       -0.0007823354
S            -1.5769141197        2.7313069925       -7.6506323570    0   0   0
S             0.0001875647        3.6407155637       -1.5666373859
S            -1.5780658787        4.5471835484        4.5119344456
S            -1.5769132459        2.7313060890       -4.5222282367    0   0   0
S             0.0010960518        3.6418868900        1.5687619494
S            -1.6004271358        4.5639122856        7.6529850848
Mo           -1.5775733394        8.1947105326        6.0768652982
Mo           -1.5769173901        6.3730391977       -6.0872367793    0   0   0
Mo           -3.1537950855        7.2834458864       -0.0014086560
S            -3.1538326896        5.4626062355       -7.6506323570    0   0   0
S            -1.5764253525        6.3724082233       -1.5666393546
S            -3.1540450722        7.2865700301        4.5059052899
S            -3.1538318159        5.4626053320       -4.5222282367    0   0   0
S            -1.5768738301        6.3728070387        1.5656037603
S            -3.1516233272        7.2839543680        7.6466362700
Mo            3.1530025343       -0.0006249277        6.0785644195
Mo           -3.1538359601        9.1043384407       -6.0872367793    0   0   0
Mo           -4.7312622339       10.0157529785       -0.0022187675
S            -4.7307512596        8.1939054785       -7.6506323570    0   0   0
S            -3.1538898042        9.1046172953       -1.5673370633
S            -4.7369928170       10.0142440654        4.5142445166
S            -4.7307503859        8.1939045750       -4.5222282367    0   0   0
S            -3.1544792882        9.1048808519        1.5646891204
S            -4.7207415140       10.0020269802        7.6508489974
Mo            4.7470565806        2.7237654800        6.0880745721
Mo            4.7307503218        0.9104407117       -6.0872367793    0   0   0
Mo            3.1526559886        1.8210766515       -0.0017500677
S             3.1538350223        0.0000077495       -7.6506323570    0   0   0
S             4.7307056291        0.9107755698       -1.5666277640
S             3.1505261719        1.8294952019        4.5207940624
S             3.1538358961        0.0000068460       -4.5222282367    0   0   0
S             4.7295179610        0.9103659472        1.5654339450
S             3.1700757070        1.8141714888        7.6544478239
Mo            3.1630521111        5.4698375361        6.1451587968
Mo            3.1538317519        3.6417399547       -6.0872367793    0   0   0
Mo            1.5770068832        4.5517337431       -0.0010050158
S             1.5769164523        2.7313069925       -7.6506323570    0   0   0
S             3.1541116012        3.6421337890       -1.5666482253
S             1.6021286931        4.5576598053        4.5646523632
S             1.5769173261        2.7313060890       -4.5222282367    0   0   0
S             3.1535363715        3.6415805911        1.5667867296
S             1.4896102977        4.5147262103        7.7128225247
Mo            1.5703440185        8.2054674930        6.0867745229
Mo            1.5769131819        6.3730391977       -6.0872367793    0   0   0
Mo            0.0002458561        7.2834679455       -0.0008142096
S            -0.0000021176        5.4626062355       -7.6506323570    0   0   0
S             1.5769259336        6.3727727452       -1.5665408232
S             0.0021527383        7.2786300995        4.5145766380
S            -0.0000012439        5.4626053320       -4.5222282367    0   0   0
S             1.5767239913        6.3722402226        1.5667906230
S            -0.0050045948        7.2863285761        7.6502219722
Mo            6.3083144315        0.0005333082        6.0704499081
Mo           -0.0000053881        9.1043384407       -6.0872367793    0   0   0
Mo           -1.5768154934       10.0146894484       -0.0014229298
S            -1.5769206876        8.1939054785       -7.6506323570    0   0   0
S             0.0004978062        9.1043356129       -1.5669368836
S            -1.5817698957       10.0149254279        4.5072823002
S            -1.5769198139        8.1939045750       -4.5222282367    0   0   0
S            -0.0005530545        9.1041639775        1.5669553025
S            -1.5755550767       10.0152581443        7.6434324933
Mo            7.8764033462        2.7353696773        6.0732121901
Mo            7.8845808939        0.9104407117       -6.0872367793    0   0   0
Mo            6.3075448323        1.8210276010       -0.0000707128
S             6.3076655943        0.0000077495       -7.6506323570    0   0   0
S             7.8847574406        0.9102371861       -1.5659538895
S             6.3049498639        1.8220573252        4.5027538074
S             6.3076664681        0.0000068460       -4.5222282367    0   0   0
S             7.8852647917        0.9106565707        1.5661207625
S             6.3195839328        1.8062152141        7.6506357334
Mo            6.3213892109        5.4632704645        6.0876796662
Mo            6.3076623239        3.6417399547       -6.0872367793    0   0   0
Mo            4.7306901492        4.5526301989       -0.0004894308
S             4.7307470244        2.7313069925       -7.6506323570    0   0   0
S             6.3074423648        3.6417575601       -1.5660720077
S             4.7126212689        4.5646204319        4.5569340999
S             4.7307478981        2.7313060890       -4.5222282367    0   0   0
S             6.3066269308        3.6424375882        1.5674518589
S             4.8293184602        4.5003014135        7.7082788575
Mo            4.7371466814        8.1948333552        6.0883183855
Mo            4.7307437539        6.3730391977       -6.0872367793    0   0   0
Mo            3.1536520446        7.2829479157       -0.0000615216
S             3.1538284544        5.4626062355       -7.6506323570    0   0   0
S             4.7302863880        6.3729812408       -1.5666489689
S             3.1535078274        7.2600338387        4.5538890218
S             3.1538293281        5.4626053320       -4.5222282367    0   0   0
S             4.7308476193        6.3729520243        1.5672073888
S             3.1511783383        7.3944891599        7.7097871295
Mo            9.4625876671        0.0023862351        6.0731560166
Mo            3.1538251839        9.1043384407       -6.0872367793    0   0   0
Mo            1.5768499552       10.0144609027        0.0000055372
S             1.5769098844        8.1939054785       -7.6506323570    0   0   0
S             3.1538405052        9.1043131634       -1.5657143614
S             1.5797444866       10.0129290887        4.5056409024
S             1.5769107581        8.1939045750       -4.5222282367    0   0   0
S             3.1544516198        9.1036828358        1.5672091102
S             1.5723938311       10.0308079728        7.6466481894
Mo           -1.5718487926        2.7271987037        6.0825617445
Mo           11.0384114659        0.9104407117       -6.0872367793    0   0   0
Mo            9.4625017572        1.8208922941       -0.0012779268
S             9.4614961663        0.0000077495       -7.6506323570    0   0   0
S            11.0394074128        0.9109222409       -1.5671789350
S             9.4653772553        1.8279505639        4.5098281683
S             9.4614970401        0.0000068460       -4.5222282367    0   0   0
S            11.0388774200        0.9105300972        1.5676151290
S             9.4443101735        1.8190369775        7.6460174054
Mo           -3.1626886516        5.4670429248        6.0726110825
Mo            9.4614928959        3.6417399547       -6.0872367793    0   0   0
Mo            7.8839703193        4.5524060849       -0.0004069359
S             7.8845775964        2.7313069925       -7.6506323570    0   0   0
S             9.4612376629        3.6419775679       -1.5662074690
S             7.8792356918        4.5551263037        4.5047304686
S             7.8845784701        2.7313060890       -4.5222282367    0   0   0
S             9.4616591570        3.6417384198        1.5662450744
S             7.8957942020        4.5504872236        7.6495725765
Mo           -4.7302866646        8.1852276775        6.0795809325
Mo            7.8845743259        6.3730391977       -6.0872367793    0   0   0
Mo            6.3073687244        7.2829140706       -0.0012011809
S             6.3076590264        5.4626062355       -7.6506323570    0   0   0
S             7.8843639791        6.3726681828       -1.5669038296
S             6.3055969686        7.2798438215        4.5140038244
S             6.3076599001        5.4626053320       -4.5222282367    0   0   0
S             7.8845196975        6.3734923341        1.5658926266
S             6.3126192236        7.2809183833        7.6538162876
Mo           -0.0002219723        0.0079703199        6.0838045701
Mo            6.3076557559        9.1043384407       -6.0872367793    0   0   0
Mo            4.7311474509       10.0154791336       -0.0008721720
S             4.7307404564        8.1939054785       -7.6506323570    0   0   0
S             6.3071793713        9.1040889726       -1.5668575229
S             4.7396692019       10.0117326309        4.5128344395
S             4.7307413301        8.1939045750       -4.5222282367    0   0   0
S             6.3081689205        9.1044774791        1.5656838045
S             4.7234384230       10.0170401404        7.6538236912
Pd            3.1594073486        5.4678258198        9.0298037885
H            -0.0171521450        1.7982414566        9.0159141475
End final coordinates



     Writing all to output data dir ./outdir/pwscf.save/
 
     init_run     :    102.80s CPU    105.26s WALL (       1 calls)
     electrons    :  43994.15s CPU  44513.95s WALL (       9 calls)
     update_pot   :     48.77s CPU     49.02s WALL (       8 calls)
     forces       :    595.40s CPU    613.31s WALL (       9 calls)
     force_dftd3  :      4.17s CPU      4.18s WALL (       9 calls)

     Called by init_run:
     wfcinit      :     83.94s CPU     85.18s WALL (       1 calls)
     potinit      :      2.04s CPU      2.09s WALL (       1 calls)
     hinit0       :     11.63s CPU     11.65s WALL (       1 calls)

     Called by electrons:
     c_bands      :  39436.17s CPU  39686.84s WALL (     119 calls)
     sum_band     :   4178.87s CPU   4330.52s WALL (     119 calls)
     v_of_rho     :     47.75s CPU     48.42s WALL (     119 calls)
     newd         :    245.99s CPU    368.41s WALL (     119 calls)
     PAW_pot      :     70.91s CPU     70.92s WALL (     127 calls)
     mix_rho      :     11.35s CPU     11.39s WALL (     119 calls)
     energy_dftd3 :      1.84s CPU      1.83s WALL (       9 calls)

     Called by c_bands:
     init_us_2    :    185.78s CPU    185.96s WALL (    1024 calls)
     init_us_2:cp :    185.78s CPU    185.96s WALL (    1024 calls)
     cegterg      :  38810.52s CPU  39059.55s WALL (     498 calls)

     Called by *egterg:
     cdiaghg      :   2633.54s CPU   2641.59s WALL (    6901 calls)
     h_psi        :  20683.58s CPU  20759.15s WALL (    6973 calls)
     s_psi        :   4213.60s CPU   4214.02s WALL (    6973 calls)
     g_psi        :     45.13s CPU     45.40s WALL (    6471 calls)

     Called by h_psi:
     h_psi:calbec :   4155.54s CPU   4156.22s WALL (    6973 calls)
     vloc_psi     :  12236.88s CPU  12269.58s WALL (    6973 calls)
     add_vuspsi   :   4237.08s CPU   4238.01s WALL (    6973 calls)

     General routines
     calbec       :   5767.98s CPU   5769.04s WALL (    7625 calls)
     fft          :     55.65s CPU     56.76s WALL (    1645 calls)
     ffts         :      2.07s CPU      2.12s WALL (     238 calls)
     fftw         :   9692.50s CPU   9717.31s WALL ( 2686592 calls)
     interpolate  :      4.75s CPU      4.80s WALL (     119 calls)
 
     Parallel routines
 
     PWSCF        :     12h28m CPU     12h38m WALL

 
   This run was terminated on:  16: 5:54  29Aug2023            

=------------------------------------------------------------------------------=
   JOB DONE.
=------------------------------------------------------------------------------=
Application 11110844 resources: utime ~1617856s, stime ~19872s, Rss ~2356648, inblocks ~0, outblocks ~33983592
