
     Program PWSCF v.7.3 starts on 13Mar2024 at  6:30:45 

     This program is part of the open-source Quantum ESPRESSO suite
     for quantum simulation of materials; please cite
         "P. Giannozzi et al., J. Phys.:Condens. Matter 21 395502 (2009);
         "P. Giannozzi et al., J. Phys.:Condens. Matter 29 465901 (2017);
         "P. Giannozzi et al., J. Chem. Phys. 152 154105 (2020);
          URL http://www.quantum-espresso.org", 
     in publications or presentations arising from this work. More details at
     http://www.quantum-espresso.org/quote

     Parallel version (MPI & OpenMP), running on      36 processor cores
     Number of MPI processes:                36
     Threads/MPI process:                     1

     MPI processes distributed on     1 nodes
     550849 MiB available memory on the printing compute node when the environment starts
 
     Waiting for input...
     Reading input from standard input
Warning: card &CELL ignored
Warning: card / ignored

     Current dimensions of program PWSCF are:
     Max number of different atomic species (ntypx) = 10
     Max number of k-points (npk) =  40000
     Max angular momentum in pseudopotentials (lmaxx) =  4
     file Mo.pbe-spn-kjpaw_psl.1.0.0.UPF: wavefunction(s)  4S 4D renormalized
     file S.pbe-n-kjpaw_psl.1.0.0.UPF: wavefunction(s)  3S 3P renormalized
     file Pt.pbe-spfn-kjpaw_psl.1.0.0.UPF: wavefunction(s)  5P 4F renormalized
     file Pd.pbe-spn-kjpaw_psl.1.0.0.UPF: wavefunction(s)  4S 5S 4D renormalized
 
     R & G space division:  proc/nbgrp/npool/nimage =      36
     Subspace diagonalization in iterative solution of the eigenvalue problem:
     one sub-group per band group will be used
     scalapack distributed-memory algorithm (size of sub-group:  6*  6 procs)

 
     Parallelization info
     --------------------
     sticks:   dense  smooth     PW     G-vecs:    dense   smooth      PW
     Min         585     334     89               198743    85850   11735
     Max         586     335     90               198750    85861   11748
     Sum       21073   12049   3205              7154885  3090769  422587
 
     Using Slab Decomposition
 


     bravais-lattice index     =            0
     lattice parameter (alat)  =      23.8199  a.u.
     unit-cell volume          =   33861.0370 (a.u.)^3
     number of atoms/cell      =          194
     number of atomic types    =            4
     number of electrons       =      1714.00
     number of Kohn-Sham states=         1028
     kinetic-energy cutoff     =      77.0000  Ry
     charge density cutoff     =     539.0000  Ry
     scf convergence threshold =      1.0E-06
     mixing beta               =       0.2000
     number of iterations used =            8  plain     mixing
     energy convergence thresh.=      1.0E-04
     force convergence thresh. =      1.0E-03
     Exchange-correlation= SLA  PW   PBX  PBC
                           (   1   4   3   4   0   0   0)
     nstep                     =         1000


     Effective Screening Medium Method
     =================================
     Boundary Conditions: Vacuum-Slab-Vacuum
     total charge in unit cell        =   0.0000
     grid points for fit at edges     =        4 
 

     celldm(1)=  23.819920  celldm(2)=   0.000000  celldm(3)=   0.000000
     celldm(4)=   0.000000  celldm(5)=   0.000000  celldm(6)=   0.000000

     crystal axes: (cart. coord. in units of alat)
               a(1) = (   1.000000   0.000000   0.000000 )  
               a(2) = (  -0.499999   0.866026   0.000000 )  
               a(3) = (   0.000000   0.000000   2.893000 )  

     reciprocal axes: (cart. coord. in units 2 pi/alat)
               b(1) = (  1.000000  0.577349  0.000000 )  
               b(2) = (  0.000000  1.154700  0.000000 )  
               b(3) = (  0.000000  0.000000  0.345662 )  


     PseudoPot. # 1 for Mo read from file:
     ./pseudo/Mo.pbe-spn-kjpaw_psl.1.0.0.UPF
     MD5 check sum: 317bf72632116215fd98f72de1686f13
     Pseudo is Projector augmented-wave + core cor, Zval = 14.0
     Generated using 'atomic' code by A. Dal Corso  v.7.2
     Shape of augmentation charge: PSQ
     Using radial grid of 1229 points,  6 beta functions with: 
                l(1) =   0
                l(2) =   0
                l(3) =   1
                l(4) =   1
                l(5) =   2
                l(6) =   2
     Q(r) pseudized with 0 coefficients 


     PseudoPot. # 2 for S  read from file:
     ./pseudo/S.pbe-n-kjpaw_psl.1.0.0.UPF
     MD5 check sum: 8b7b5302570d38d5e87fed6a1065abda
     Pseudo is Projector augmented-wave + core cor, Zval =  6.0
     Generated using 'atomic' code by A. Dal Corso  v.7.2
     Shape of augmentation charge: PSQ
     Using radial grid of 1151 points,  6 beta functions with: 
                l(1) =   0
                l(2) =   0
                l(3) =   1
                l(4) =   1
                l(5) =   2
                l(6) =   2
     Q(r) pseudized with 0 coefficients 


     PseudoPot. # 3 for Pt read from file:
     ./pseudo/Pt.pbe-spfn-kjpaw_psl.1.0.0.UPF
     MD5 check sum: 620096ebf4e6ebacc94de60fd67efcb5
     Pseudo is Projector augmented-wave + core cor, Zval = 32.0
     Generated using 'atomic' code by A. Dal Corso  v.7.2
     Shape of augmentation charge: PSQ
     Using radial grid of 1277 points,  8 beta functions with: 
                l(1) =   0
                l(2) =   0
                l(3) =   1
                l(4) =   1
                l(5) =   2
                l(6) =   2
                l(7) =   3
                l(8) =   3
     Q(r) pseudized with 0 coefficients 


     PseudoPot. # 4 for Pd read from file:
     ./pseudo/Pd.pbe-spn-kjpaw_psl.1.0.0.UPF
     MD5 check sum: a60571a671f2502b8a6a4569d20a6edb
     Pseudo is Projector augmented-wave + core cor, Zval = 18.0
     Generated using 'atomic' code by A. Dal Corso  v.7.2
     Shape of augmentation charge: PSQ
     Using radial grid of 1235 points,  6 beta functions with: 
                l(1) =   0
                l(2) =   0
                l(3) =   1
                l(4) =   1
                l(5) =   2
                l(6) =   2
     Q(r) pseudized with 0 coefficients 


     atomic species   valence    mass     pseudopotential
     Mo               14.00    95.95000     Mo( 1.00)
     S                 6.00    32.06000     S ( 1.00)
     Pt               32.00   195.08400     Pt( 1.00)
     Pd               18.00   106.42000     Pd( 1.00)

     No symmetry found



   Cartesian axes

     site n.     atom                  positions (alat units)
         1        Mo     tau(   1) = (   0.0000010   0.1443372  -0.7272732  )
         2        Mo     tau(   2) = (   0.1249995   0.0721706  -0.2424038  )
         3        S      tau(   3) = (   0.0000015   0.1443386  -0.3667807  )
         4        S      tau(   4) = (   0.1250010   0.0721682  -0.6030489  )
         5        S      tau(   5) = (   0.1250010   0.0721683  -0.8514963  )
         6        S      tau(   6) = (   0.0000015   0.1443389  -0.1180260  )
         7        Mo     tau(   7) = (   0.0000014   0.1443616   0.2424356  )
         8        Mo     tau(   8) = (   0.1250042   0.0720311   0.7263989  )
         9        S      tau(   9) = (   0.0000639   0.1447004   0.6020022  )
        10        S      tau(  10) = (   0.1250030   0.0721650   0.3667578  )
        11        S      tau(  11) = (   0.1250031   0.0721991   0.1180453  )
        12        S      tau(  12) = (  -0.0005532   0.1426765   0.8513101  )
        13        Mo     tau(  13) = (  -0.1249989   0.3608437  -0.7272732  )
        14        Mo     tau(  14) = (   0.0000030   0.2886752  -0.2424042  )
        15        S      tau(  15) = (  -0.1249977   0.3608450  -0.3667802  )
        16        S      tau(  16) = (   0.0000012   0.2886747  -0.6030489  )
        17        S      tau(  17) = (   0.0000012   0.2886748  -0.8514963  )
        18        S      tau(  18) = (  -0.1249977   0.3608454  -0.1180274  )
        19        Mo     tau(  19) = (  -0.1249758   0.3608563   0.2424461  )
        20        Mo     tau(  20) = (  -0.0009250   0.2875651   0.7279418  )
        21        S      tau(  21) = (  -0.1248723   0.3609173   0.6030853  )
        22        S      tau(  22) = (   0.0000474   0.2887247   0.3668317  )
        23        S      tau(  23) = (   0.0000000   0.2886879   0.1180554  )
        24        S      tau(  24) = (  -0.1255989   0.3604976   0.8519229  )
        25        Mo     tau(  25) = (  -0.2499987   0.5773502  -0.7272732  )
        26        Mo     tau(  26) = (  -0.1249977   0.5051839  -0.2424055  )
        27        S      tau(  27) = (  -0.2499981   0.5773518  -0.3667809  )
        28        S      tau(  28) = (  -0.1249986   0.5051812  -0.6030489  )
        29        S      tau(  29) = (  -0.1249986   0.5051813  -0.8514963  )
        30        S      tau(  30) = (  -0.2499979   0.5773512  -0.1180266  )
        31        Mo     tau(  31) = (  -0.2499765   0.5773372   0.2424355  )
        32        Mo     tau(  32) = (  -0.1264232   0.5049348   0.7279418  )
        33        S      tau(  33) = (  -0.2496528   0.5772237   0.6020023  )
        34        S      tau(  34) = (  -0.1249318   0.5051954   0.3668318  )
        35        S      tau(  35) = (  -0.1249873   0.5051727   0.1180553  )
        36        S      tau(  36) = (  -0.2517142   0.5777014   0.8513102  )
        37        Mo     tau(  37) = (  -0.3749985   0.7938567  -0.7272732  )
        38        Mo     tau(  38) = (  -0.2500001   0.7216874  -0.2424031  )
        39        S      tau(  39) = (  -0.3749980   0.7938584  -0.3667800  )
        40        S      tau(  40) = (  -0.2499984   0.7216877  -0.6030489  )
        41        S      tau(  41) = (  -0.2499984   0.7216878  -0.8514963  )
        42        S      tau(  42) = (  -0.3749982   0.7938585  -0.1180264  )
        43        Mo     tau(  43) = (  -0.3749961   0.7938572   0.2423820  )
        44        Mo     tau(  44) = (  -0.2501160   0.7217599   0.7263989  )
        45        S      tau(  45) = (  -0.3749948   0.7938592   0.6019084  )
        46        S      tau(  46) = (  -0.2499995   0.7216903   0.3667578  )
        47        S      tau(  47) = (  -0.2499699   0.7216732   0.1180452  )
        48        S      tau(  48) = (  -0.3749951   0.7938590   0.8508262  )
        49        Mo     tau(  49) = (   0.2500010   0.1443372  -0.7272732  )
        50        Mo     tau(  50) = (   0.3750034   0.0721723  -0.2424032  )
        51        S      tau(  51) = (   0.2500017   0.1443391  -0.3667788  )
        52        S      tau(  52) = (   0.3750010   0.0721682  -0.6030489  )
        53        S      tau(  53) = (   0.3750010   0.0721683  -0.8514963  )
        54        S      tau(  54) = (   0.2500016   0.1443391  -0.1180271  )
        55        Mo     tau(  55) = (   0.2500050   0.1443618   0.2424356  )
        56        Mo     tau(  56) = (   0.3749291   0.0721273   0.7261578  )
        57        S      tau(  57) = (   0.2499446   0.1447002   0.6020022  )
        58        S      tau(  58) = (   0.3750312   0.0721852   0.3667808  )
        59        S      tau(  59) = (   0.3749943   0.0721639   0.1180502  )
        60        S      tau(  60) = (   0.2505615   0.1426764   0.8513103  )
        61        Mo     tau(  61) = (   0.1250012   0.3608437  -0.7272732  )
        62        Mo     tau(  62) = (   0.2500029   0.2886782  -0.2424031  )
        63        S      tau(  63) = (   0.1250024   0.3608455  -0.3667794  )
        64        S      tau(  64) = (   0.2500012   0.2886747  -0.6030489  )
        65        S      tau(  65) = (   0.2500012   0.2886748  -0.8514963  )
        66        S      tau(  66) = (   0.1250021   0.3608455  -0.1180270  )
        67        Mo     tau(  67) = (   0.1250036   0.3608788   0.2424134  )
        68        Mo     tau(  68) = (   0.2509342   0.2875650   0.7279417  )
        69        S      tau(  69) = (   0.1250047   0.3631022   0.6070003  )
        70        S      tau(  70) = (   0.2499595   0.2887248   0.3668321  )
        71        S      tau(  71) = (   0.2500069   0.2886879   0.1180551  )
        72        S      tau(  72) = (   0.1250048   0.3485809   0.8580653  )
        73        Mo     tau(  73) = (   0.0000014   0.5773502  -0.7272732  )
        74        Mo     tau(  74) = (   0.1250045   0.5051840  -0.2424036  )
        75        S      tau(  75) = (   0.0000030   0.5773520  -0.3667799  )
        76        S      tau(  76) = (   0.1250014   0.5051812  -0.6030489  )
        77        S      tau(  77) = (   0.1250014   0.5051813  -0.8514963  )
        78        S      tau(  78) = (   0.0000026   0.5773517  -0.1180274  )
        79        Mo     tau(  79) = (   0.0000336   0.5773337   0.2424134  )
        80        Mo     tau(  80) = (   0.1250049   0.5051837   0.7323431  )
        81        S      tau(  81) = (   0.0019589   0.5762246   0.6070004  )
        82        S      tau(  82) = (   0.1250038   0.5051820   0.3668453  )
        83        S      tau(  83) = (   0.1250038   0.5051819   0.1180162  )
        84        S      tau(  84) = (  -0.0106172   0.5834855   0.8580649  )
        85        Mo     tau(  85) = (  -0.1249984   0.7938567  -0.7272732  )
        86        Mo     tau(  86) = (   0.0000069   0.7216896  -0.2424039  )
        87        S      tau(  87) = (  -0.1249975   0.7938582  -0.3667782  )
        88        S      tau(  88) = (   0.0000016   0.7216877  -0.6030489  )
        89        S      tau(  89) = (   0.0000016   0.7216878  -0.8514963  )
        90        S      tau(  90) = (  -0.1249973   0.7938582  -0.1180279  )
        91        Mo     tau(  91) = (  -0.1249742   0.7938470   0.2424356  )
        92        Mo     tau(  92) = (  -0.0004933   0.7230516   0.7279416  )
        93        S      tau(  93) = (  -0.1247124   0.7936270   0.6020023  )
        94        S      tau(  94) = (   0.0000246   0.7216257   0.3668322  )
        95        S      tau(  95) = (   0.0000165   0.7216852   0.1180552  )
        96        S      tau(  96) = (  -0.1261568   0.7951731   0.8513104  )
        97        Mo     tau(  97) = (   0.5000010   0.1443372  -0.7272732  )
        98        Mo     tau(  98) = (   0.6250001   0.0721662  -0.2424040  )
        99        S      tau(  99) = (   0.5000017   0.1443386  -0.3667801  )
       100        S      tau( 100) = (   0.6250010   0.0721682  -0.6030489  )
       101        S      tau( 101) = (   0.6250010   0.0721683  -0.8514963  )
       102        S      tau( 102) = (   0.5000020   0.1443388  -0.1180261  )
       103        Mo     tau( 103) = (   0.5000076   0.1443402   0.2423934  )
       104        Mo     tau( 104) = (   0.6250040   0.0723531   0.7270557  )
       105        S      tau( 105) = (   0.5002419   0.1444767   0.6022126  )
       106        S      tau( 106) = (   0.6250031   0.0721699   0.3667634  )
       107        S      tau( 107) = (   0.6250031   0.0721381   0.1180360  )
       108        S      tau( 108) = (   0.4998195   0.1442328   0.8511552  )
       109        Mo     tau( 109) = (   0.3750012   0.3608437  -0.7272732  )
       110        Mo     tau( 110) = (   0.4999991   0.2886761  -0.2424038  )
       111        S      tau( 111) = (   0.3750012   0.3608452  -0.3667804  )
       112        S      tau( 112) = (   0.5000012   0.2886747  -0.6030489  )
       113        S      tau( 113) = (   0.5000012   0.2886748  -0.8514963  )
       114        S      tau( 114) = (   0.3750014   0.3608455  -0.1180261  )
       115        Mo     tau( 115) = (   0.3749823   0.3608562   0.2424462  )
       116        Mo     tau( 116) = (   0.5001624   0.2885857   0.7270558  )
       117        S      tau( 117) = (   0.3748813   0.3609171   0.6030850  )
       118        S      tau( 118) = (   0.5000041   0.2886750   0.3667632  )
       119        S      tau( 119) = (   0.4999767   0.2886908   0.1180361  )
       120        S      tau( 120) = (   0.3756080   0.3604978   0.8519227  )
       121        Mo     tau( 121) = (   0.2500014   0.5773502  -0.7272732  )
       122        Mo     tau( 122) = (   0.3749983   0.5051825  -0.2424043  )
       123        S      tau( 123) = (   0.2500017   0.5773519  -0.3667810  )
       124        S      tau( 124) = (   0.3750014   0.5051812  -0.6030489  )
       125        S      tau( 125) = (   0.3750014   0.5051813  -0.8514963  )
       126        S      tau( 126) = (   0.2500018   0.5773519  -0.1180256  )
       127        Mo     tau( 127) = (   0.2499737   0.5773335   0.2424135  )
       128        Mo     tau( 128) = (   0.3764328   0.5049349   0.7279416  )
       129        S      tau( 129) = (   0.2480514   0.5762247   0.6070002  )
       130        S      tau( 130) = (   0.3749389   0.5051953   0.3668317  )
       131        S      tau( 131) = (   0.3749944   0.5051727   0.1180554  )
       132        S      tau( 132) = (   0.2606253   0.5834843   0.8580650  )
       133        Mo     tau( 133) = (   0.1250016   0.7938567  -0.7272732  )
       134        Mo     tau( 134) = (   0.2499995   0.7216883  -0.2424036  )
       135        S      tau( 135) = (   0.1250024   0.7938578  -0.3667813  )
       136        S      tau( 136) = (   0.2500016   0.7216877  -0.6030489  )
       137        S      tau( 137) = (   0.2500016   0.7216878  -0.8514963  )
       138        S      tau( 138) = (   0.1250024   0.7938579  -0.1180253  )
       139        Mo     tau( 139) = (   0.1250038   0.7938330   0.2424463  )
       140        Mo     tau( 140) = (   0.2505035   0.7230514   0.7279415  )
       141        S      tau( 141) = (   0.1250048   0.7937168   0.6030849  )
       142        S      tau( 142) = (   0.2499835   0.7216255   0.3668318  )
       143        S      tau( 143) = (   0.2499914   0.7216850   0.1180556  )
       144        S      tau( 144) = (   0.1250053   0.7945558   0.8519227  )
       145        Mo     tau( 145) = (   0.7500010   0.1443372  -0.7272732  )
       146        Mo     tau( 146) = (   0.8750038   0.0721696  -0.2424038  )
       147        S      tau( 147) = (   0.7500016   0.1443382  -0.3667789  )
       148        S      tau( 148) = (   0.8750010   0.0721682  -0.6030489  )
       149        S      tau( 149) = (   0.8750010   0.0721683  -0.8514963  )
       150        S      tau( 150) = (   0.7500016   0.1443384  -0.1180279  )
       151        Mo     tau( 151) = (   0.7499988   0.1443404   0.2423934  )
       152        Mo     tau( 152) = (   0.8750792   0.0721276   0.7261574  )
       153        S      tau( 153) = (   0.7497661   0.1444769   0.6022124  )
       154        S      tau( 154) = (   0.8749753   0.0721851   0.3667807  )
       155        S      tau( 155) = (   0.8750121   0.0721637   0.1180502  )
       156        S      tau( 156) = (   0.7501887   0.1442327   0.8511550  )
       157        Mo     tau( 157) = (   0.6250012   0.3608437  -0.7272732  )
       158        Mo     tau( 158) = (   0.7500028   0.2886769  -0.2424041  )
       159        S      tau( 159) = (   0.6250015   0.3608451  -0.3667792  )
       160        S      tau( 160) = (   0.7500012   0.2886747  -0.6030489  )
       161        S      tau( 161) = (   0.7500012   0.2886748  -0.8514963  )
       162        S      tau( 162) = (   0.6250016   0.3608454  -0.1180280  )
       163        Mo     tau( 163) = (   0.6250035   0.3608392   0.2423934  )
       164        Mo     tau( 164) = (   0.7498463   0.2885859   0.7270559  )
       165        S      tau( 165) = (   0.6250044   0.3605709   0.6022125  )
       166        S      tau( 166) = (   0.7500026   0.2886750   0.3667635  )
       167        S      tau( 167) = (   0.7500299   0.2886908   0.1180357  )
       168        S      tau( 168) = (   0.6250043   0.3610591   0.8511551  )
       169        Mo     tau( 169) = (   0.5000014   0.5773502  -0.7272732  )
       170        Mo     tau( 170) = (   0.6250029   0.5051841  -0.2424047  )
       171        S      tau( 171) = (   0.5000014   0.5773518  -0.3667794  )
       172        S      tau( 172) = (   0.6250014   0.5051812  -0.6030489  )
       173        S      tau( 173) = (   0.6250014   0.5051813  -0.8514963  )
       174        S      tau( 174) = (   0.5000016   0.5773516  -0.1180277  )
       175        Mo     tau( 175) = (   0.4999838   0.5773372   0.2424356  )
       176        Mo     tau( 176) = (   0.6250048   0.5052701   0.7261575  )
       177        S      tau( 177) = (   0.4996630   0.5772238   0.6020019  )
       178        S      tau( 178) = (   0.6250037   0.5051496   0.3667806  )
       179        S      tau( 179) = (   0.6250036   0.5051921   0.1180503  )
       180        S      tau( 180) = (   0.5017240   0.5777016   0.8513099  )
       181        Mo     tau( 181) = (   0.3750016   0.7938567  -0.7272732  )
       182        Mo     tau( 182) = (   0.5000025   0.7216901  -0.2424039  )
       183        S      tau( 183) = (   0.3750019   0.7938578  -0.3667793  )
       184        S      tau( 184) = (   0.5000016   0.7216877  -0.6030489  )
       185        S      tau( 185) = (   0.5000016   0.7216878  -0.8514963  )
       186        S      tau( 186) = (   0.3750020   0.7938579  -0.1180272  )
       187        Mo     tau( 187) = (   0.3749825   0.7938468   0.2424356  )
       188        Mo     tau( 188) = (   0.5001261   0.7217601   0.7263985  )
       189        S      tau( 189) = (   0.3747228   0.7936274   0.6020018  )
       190        S      tau( 190) = (   0.5000073   0.7216903   0.3667579  )
       191        S      tau( 191) = (   0.4999777   0.7216732   0.1180450  )
       192        S      tau( 192) = (   0.3761670   0.7951734   0.8513099  )
       193        Pt     tau( 193) = (   0.1250041   0.5051825   0.9498857  )
       194        Pd     tau( 194) = (   0.6249921   0.0723525   0.9781071  )

     --------------------------------------------
     DFT-D3 Dispersion Correction (3-body terms):
     --------------------------------------------
       Reference C6 values for interpolation: 

         atom   Coordination number   C6
         S          0.000           268.01
         S          0.995           261.99
         S          1.990           251.62
         Mo         0.000          1691.79
         Mo         1.942          1004.01
         Mo        11.056           674.22
         Pd         0.000          1217.01
         Pd         1.863           573.90
         Pd         5.710           531.75
         Pt         0.000           782.29
         Pt         1.919           692.72
         Pt         6.667           673.75

       Values used:

         atom   Coordination number  R0_AB[au]  C6      C8
         Mo        10.208            3.547    674.22  77634.20
         Mo        10.221            3.547    674.22  77634.20
         S          3.858            3.128    251.62  12327.25
         S          3.859            3.128    251.62  12327.25
         S          3.758            3.128    251.62  12327.25
         S          3.859            3.128    251.62  12327.25
         Mo        10.220            3.547    674.22  77634.20
         Mo        10.236            3.547    674.22  77634.20
         S          3.844            3.128    251.62  12327.25
         S          3.861            3.128    251.62  12327.25
         S          3.859            3.128    251.62  12327.25
         S          3.829            3.128    251.62  12327.25
         Mo        10.208            3.547    674.22  77634.20
         Mo        10.221            3.547    674.22  77634.20
         S          3.858            3.128    251.62  12327.25
         S          3.859            3.128    251.62  12327.25
         S          3.758            3.128    251.62  12327.25
         S          3.859            3.128    251.62  12327.25
         Mo        10.221            3.547    674.22  77634.20
         Mo        10.192            3.547    674.22  77634.20
         S          3.857            3.128    251.62  12327.25
         S          3.855            3.128    251.62  12327.25
         S          3.859            3.128    251.62  12327.25
         S          3.758            3.128    251.62  12327.25
         Mo        10.208            3.547    674.22  77634.20
         Mo        10.221            3.547    674.22  77634.20
         S          3.858            3.128    251.62  12327.25
         S          3.859            3.128    251.62  12327.25
         S          3.758            3.128    251.62  12327.25
         S          3.859            3.128    251.62  12327.25
         Mo        10.220            3.547    674.22  77634.20
         Mo        10.192            3.547    674.22  77634.20
         S          3.844            3.128    251.62  12327.25
         S          3.855            3.128    251.62  12327.25
         S          3.859            3.128    251.62  12327.25
         S          3.828            3.128    251.62  12327.25
         Mo        10.208            3.547    674.22  77634.20
         Mo        10.221            3.547    674.22  77634.20
         S          3.858            3.128    251.62  12327.25
         S          3.859            3.128    251.62  12327.25
         S          3.758            3.128    251.62  12327.25
         S          3.859            3.128    251.62  12327.25
         Mo        10.219            3.547    674.22  77634.20
         Mo        10.236            3.547    674.22  77634.20
         S          3.852            3.128    251.62  12327.25
         S          3.861            3.128    251.62  12327.25
         S          3.859            3.128    251.62  12327.25
         S          3.792            3.128    251.62  12327.25
         Mo        10.208            3.547    674.22  77634.20
         Mo        10.221            3.547    674.22  77634.20
         S          3.858            3.128    251.62  12327.25
         S          3.859            3.128    251.62  12327.25
         S          3.758            3.128    251.62  12327.25
         S          3.859            3.128    251.62  12327.25
         Mo        10.220            3.547    674.22  77634.20
         Mo        10.257            3.547    674.22  77634.20
         S          3.844            3.128    251.62  12327.25
         S          3.860            3.128    251.62  12327.25
         S          3.859            3.128    251.62  12327.25
         S          3.829            3.128    251.62  12327.25
         Mo        10.208            3.547    674.22  77634.20
         Mo        10.221            3.547    674.22  77634.20
         S          3.858            3.128    251.62  12327.25
         S          3.859            3.128    251.62  12327.25
         S          3.758            3.128    251.62  12327.25
         S          3.859            3.128    251.62  12327.25
         Mo        10.222            3.547    674.22  77634.20
         Mo        10.192            3.547    674.22  77634.20
         S          3.865            3.128    251.62  12327.25
         S          3.855            3.128    251.62  12327.25
         S          3.859            3.128    251.62  12327.25
         S          4.660            3.128    251.62  12327.25
         Mo        10.208            3.547    674.22  77634.20
         Mo        10.221            3.547    674.22  77634.20
         S          3.858            3.128    251.62  12327.25
         S          3.859            3.128    251.62  12327.25
         S          3.758            3.128    251.62  12327.25
         S          3.859            3.128    251.62  12327.25
         Mo        10.222            3.547    674.22  77634.20
         Mo        10.909            3.547    674.22  77634.20
         S          3.865            3.128    251.62  12327.25
         S          3.851            3.128    251.62  12327.25
         S          3.859            3.128    251.62  12327.25
         S          4.660            3.128    251.62  12327.25
         Mo        10.208            3.547    674.22  77634.20
         Mo        10.221            3.547    674.22  77634.20
         S          3.858            3.128    251.62  12327.25
         S          3.859            3.128    251.62  12327.25
         S          3.758            3.128    251.62  12327.25
         S          3.859            3.128    251.62  12327.25
         Mo        10.220            3.547    674.22  77634.20
         Mo        10.199            3.547    674.22  77634.20
         S          3.844            3.128    251.62  12327.25
         S          3.855            3.128    251.62  12327.25
         S          3.859            3.128    251.62  12327.25
         S          3.836            3.128    251.62  12327.25
         Mo        10.208            3.547    674.22  77634.20
         Mo        10.221            3.547    674.22  77634.20
         S          3.858            3.128    251.62  12327.25
         S          3.859            3.128    251.62  12327.25
         S          3.758            3.128    251.62  12327.25
         S          3.859            3.128    251.62  12327.25
         Mo        10.220            3.547    674.22  77634.20
         Mo        10.647            3.547    674.22  77634.20
         S          3.860            3.128    251.62  12327.25
         S          3.860            3.128    251.62  12327.25
         S          3.859            3.128    251.62  12327.25
         S          4.692            3.128    251.62  12327.25
         Mo        10.208            3.547    674.22  77634.20
         Mo        10.221            3.547    674.22  77634.20
         S          3.858            3.128    251.62  12327.25
         S          3.859            3.128    251.62  12327.25
         S          3.758            3.128    251.62  12327.25
         S          3.859            3.128    251.62  12327.25
         Mo        10.221            3.547    674.22  77634.20
         Mo        10.243            3.547    674.22  77634.20
         S          3.857            3.128    251.62  12327.25
         S          3.860            3.128    251.62  12327.25
         S          3.859            3.128    251.62  12327.25
         S          3.759            3.128    251.62  12327.25
         Mo        10.208            3.547    674.22  77634.20
         Mo        10.221            3.547    674.22  77634.20
         S          3.858            3.128    251.62  12327.25
         S          3.859            3.128    251.62  12327.25
         S          3.758            3.128    251.62  12327.25
         S          3.859            3.128    251.62  12327.25
         Mo        10.222            3.547    674.22  77634.20
         Mo        10.192            3.547    674.22  77634.20
         S          3.865            3.128    251.62  12327.25
         S          3.855            3.128    251.62  12327.25
         S          3.859            3.128    251.62  12327.25
         S          4.660            3.128    251.62  12327.25
         Mo        10.208            3.547    674.22  77634.20
         Mo        10.221            3.547    674.22  77634.20
         S          3.858            3.128    251.62  12327.25
         S          3.859            3.128    251.62  12327.25
         S          3.758            3.128    251.62  12327.25
         S          3.859            3.128    251.62  12327.25
         Mo        10.221            3.547    674.22  77634.20
         Mo        10.199            3.547    674.22  77634.20
         S          3.858            3.128    251.62  12327.25
         S          3.855            3.128    251.62  12327.25
         S          3.859            3.128    251.62  12327.25
         S          4.687            3.128    251.62  12327.25
         Mo        10.208            3.547    674.22  77634.20
         Mo        10.221            3.547    674.22  77634.20
         S          3.858            3.128    251.62  12327.25
         S          3.859            3.128    251.62  12327.25
         S          3.758            3.128    251.62  12327.25
         S          3.859            3.128    251.62  12327.25
         Mo        10.220            3.547    674.22  77634.20
         Mo        10.257            3.547    674.22  77634.20
         S          3.860            3.128    251.62  12327.25
         S          3.860            3.128    251.62  12327.25
         S          3.859            3.128    251.62  12327.25
         S          4.692            3.128    251.62  12327.25
         Mo        10.208            3.547    674.22  77634.20
         Mo        10.220            3.547    674.22  77634.20
         S          3.858            3.128    251.62  12327.25
         S          3.859            3.128    251.62  12327.25
         S          3.758            3.128    251.62  12327.25
         S          3.859            3.128    251.62  12327.25
         Mo        10.220            3.547    674.22  77634.20
         Mo        10.243            3.547    674.22  77634.20
         S          3.860            3.128    251.62  12327.25
         S          3.860            3.128    251.62  12327.25
         S          3.859            3.128    251.62  12327.25
         S          3.777            3.128    251.62  12327.25
         Mo        10.208            3.547    674.22  77634.20
         Mo        10.221            3.547    674.22  77634.20
         S          3.858            3.128    251.62  12327.25
         S          3.859            3.128    251.62  12327.25
         S          3.758            3.128    251.62  12327.25
         S          3.859            3.128    251.62  12327.25
         Mo        10.220            3.547    674.22  77634.20
         Mo        10.250            3.547    674.22  77634.20
         S          3.844            3.128    251.62  12327.25
         S          3.860            3.128    251.62  12327.25
         S          3.859            3.128    251.62  12327.25
         S          3.828            3.128    251.62  12327.25
         Mo        10.208            3.547    674.22  77634.20
         Mo        10.221            3.547    674.22  77634.20
         S          3.858            3.128    251.62  12327.25
         S          3.859            3.128    251.62  12327.25
         S          3.758            3.128    251.62  12327.25
         S          3.859            3.128    251.62  12327.25
         Mo        10.220            3.547    674.22  77634.20
         Mo        10.236            3.547    674.22  77634.20
         S          3.844            3.128    251.62  12327.25
         S          3.861            3.128    251.62  12327.25
         S          3.859            3.128    251.62  12327.25
         S          3.836            3.128    251.62  12327.25
         Pt         4.026            3.168    692.72  72035.17
         Pd         3.273            3.168    573.90  52583.08

         Molecular C6 ( Ry / a.u.^6 ) =  13986061.06


     number of k points=     4  Gaussian smearing, width (Ry)=  0.0100
                       cart. coord. in units 2pi/alat
        k(    1) = (   0.0000000   0.0000000   0.0000000), wk =   0.5000000
        k(    2) = (   0.0000000  -0.5773499   0.0000000), wk =   0.5000000
        k(    3) = (  -0.5000000  -0.2886744   0.0000000), wk =   0.5000000
        k(    4) = (  -0.5000000  -0.8660242   0.0000000), wk =   0.5000000

     Dense  grid:  7154885 G-vectors     FFT dimensions: ( 180, 180, 512)

     Smooth grid:  3090769 G-vectors     FFT dimensions: ( 135, 135, 400)

     Estimated max dynamical RAM per process >       4.31 GB

     Estimated total dynamical RAM >     155.10 GB

     Initial potential from superposition of free atoms

     starting charge    1713.9389, renormalised to    1714.0000

     negative rho (up, down):  8.835E-04 0.000E+00
     Starting wfcs are 1179 randomized atomic wfcs
     Checking if some PAW data can be deallocated... 

     total cpu time spent up to now is      181.0 secs

     Self-consistent Calculation

     iteration #  1     ecut=    77.00 Ry     beta= 0.20
     Davidson diagonalization with overlap
     ethr =  1.00E-02,  avg # of iterations =  2.0

     Threshold (ethr) on eigenvalues was too large:
     Diagonalizing with lowered threshold

     Davidson diagonalization with overlap
     ethr =  1.64E-04,  avg # of iterations = 17.2

     negative rho (up, down):  2.410E-04 0.000E+00

     total cpu time spent up to now is     2237.3 secs

     total energy              =  -33980.24381027 Ry
     estimated scf accuracy    <       6.59893104 Ry

     iteration #  2     ecut=    77.00 Ry     beta= 0.20
     Davidson diagonalization with overlap
     ethr =  3.85E-04,  avg # of iterations =  4.0

     negative rho (up, down):  2.642E-05 0.000E+00

     total cpu time spent up to now is     2654.2 secs

     total energy              =  -33978.91220973 Ry
     estimated scf accuracy    <       3.42093512 Ry

     iteration #  3     ecut=    77.00 Ry     beta= 0.20
     Davidson diagonalization with overlap
     ethr =  2.00E-04,  avg # of iterations = 14.2

     negative rho (up, down):  1.982E-05 0.000E+00

     total cpu time spent up to now is     3169.6 secs

     total energy              =  -33979.20189789 Ry
     estimated scf accuracy    <       1.53141377 Ry

     iteration #  4     ecut=    77.00 Ry     beta= 0.20
     Davidson diagonalization with overlap
     c_bands:  1 eigenvalues not converged
     c_bands:  4 eigenvalues not converged
     c_bands:  1 eigenvalues not converged
     c_bands:  1 eigenvalues not converged
     ethr =  8.93E-05,  avg # of iterations = 20.0

     negative rho (up, down):  1.729E-05 0.000E+00

     total cpu time spent up to now is     3979.3 secs

     total energy              =  -33979.88614753 Ry
     estimated scf accuracy    <       0.48890463 Ry

     iteration #  5     ecut=    77.00 Ry     beta= 0.20
     Davidson diagonalization with overlap
     c_bands:  2 eigenvalues not converged
     c_bands:  1 eigenvalues not converged
     ethr =  2.85E-05,  avg # of iterations = 17.8

     negative rho (up, down):  2.949E-05 0.000E+00

     total cpu time spent up to now is     4936.8 secs

     total energy              =  -33980.19325216 Ry
     estimated scf accuracy    <       0.27709739 Ry

     iteration #  6     ecut=    77.00 Ry     beta= 0.20
     Davidson diagonalization with overlap
     ethr =  1.62E-05,  avg # of iterations = 10.5

     negative rho (up, down):  8.560E-05 0.000E+00

     total cpu time spent up to now is     5434.0 secs

     total energy              =  -33980.19213440 Ry
     estimated scf accuracy    <       0.19170334 Ry

     iteration #  7     ecut=    77.00 Ry     beta= 0.20
     Davidson diagonalization with overlap
     c_bands:  1 eigenvalues not converged
     ethr =  1.12E-05,  avg # of iterations = 14.8

     negative rho (up, down):  5.111E-04 0.000E+00

     total cpu time spent up to now is     5919.5 secs

     total energy              =  -33980.20292722 Ry
     estimated scf accuracy    <       0.07906073 Ry

     iteration #  8     ecut=    77.00 Ry     beta= 0.20
     Davidson diagonalization with overlap
     c_bands:  3 eigenvalues not converged
     c_bands:  1 eigenvalues not converged
     c_bands:  1 eigenvalues not converged
     ethr =  4.61E-06,  avg # of iterations = 45.5

     negative rho (up, down):  5.741E-04 0.000E+00

     total cpu time spent up to now is     7680.6 secs

     total energy              =  -33980.25174943 Ry
     estimated scf accuracy    <       0.13648198 Ry

     iteration #  9     ecut=    77.00 Ry     beta= 0.20
     Davidson diagonalization with overlap
     c_bands:  2 eigenvalues not converged
     c_bands:  1 eigenvalues not converged
     c_bands:  4 eigenvalues not converged
     ethr =  4.61E-06,  avg # of iterations = 22.2

     negative rho (up, down):  4.025E-04 0.000E+00

     total cpu time spent up to now is     8249.6 secs

     total energy              =  -33980.23710721 Ry
     estimated scf accuracy    <       0.03742923 Ry

     iteration # 10     ecut=    77.00 Ry     beta= 0.20
     Davidson diagonalization with overlap
     c_bands:  4 eigenvalues not converged
     c_bands:  3 eigenvalues not converged
     c_bands:  2 eigenvalues not converged
     ethr =  2.18E-06,  avg # of iterations = 39.5

     negative rho (up, down):  4.659E-04 0.000E+00

     total cpu time spent up to now is     9599.0 secs

     total energy              =  -33980.26852443 Ry
     estimated scf accuracy    <       0.01611575 Ry

     iteration # 11     ecut=    77.00 Ry     beta= 0.20
     Davidson diagonalization with overlap
     c_bands:  5 eigenvalues not converged
     c_bands:  3 eigenvalues not converged
     c_bands:  3 eigenvalues not converged
     ethr =  9.40E-07,  avg # of iterations = 18.0

     negative rho (up, down):  6.345E-04 0.000E+00

     total cpu time spent up to now is    10100.3 secs

     total energy              =  -33980.26466760 Ry
     estimated scf accuracy    <       0.01124088 Ry

     iteration # 12     ecut=    77.00 Ry     beta= 0.20
     Davidson diagonalization with overlap
     c_bands:  4 eigenvalues not converged
     c_bands:  1 eigenvalues not converged
     c_bands:  1 eigenvalues not converged
     ethr =  6.56E-07,  avg # of iterations = 16.8

     negative rho (up, down):  8.447E-04 0.000E+00

     total cpu time spent up to now is    10572.2 secs

     total energy              =  -33980.26368570 Ry
     estimated scf accuracy    <       0.00300289 Ry

     iteration # 13     ecut=    77.00 Ry     beta= 0.20
     Davidson diagonalization with overlap
     c_bands:  5 eigenvalues not converged
     c_bands:  1 eigenvalues not converged
     ethr =  1.75E-07,  avg # of iterations = 18.5

     negative rho (up, down):  7.918E-04 0.000E+00

     total cpu time spent up to now is    12009.7 secs

     total energy              =  -33980.26900539 Ry
     estimated scf accuracy    <       0.00337105 Ry

     iteration # 14     ecut=    77.00 Ry     beta= 0.20
     Davidson diagonalization with overlap
     c_bands:  2 eigenvalues not converged
     ethr =  1.75E-07,  avg # of iterations = 10.8

     negative rho (up, down):  8.276E-04 0.000E+00

     total cpu time spent up to now is    12515.3 secs

     total energy              =  -33980.27025042 Ry
     estimated scf accuracy    <       0.00225049 Ry

     iteration # 15     ecut=    77.00 Ry     beta= 0.20
     Davidson diagonalization with overlap
     ethr =  1.31E-07,  avg # of iterations =  3.8

     negative rho (up, down):  8.425E-04 0.000E+00

     total cpu time spent up to now is    12940.9 secs

     total energy              =  -33980.26834970 Ry
     estimated scf accuracy    <       0.00392659 Ry

     iteration # 16     ecut=    77.00 Ry     beta= 0.20
     Davidson diagonalization with overlap
     ethr =  1.31E-07,  avg # of iterations =  5.2

     negative rho (up, down):  8.598E-04 0.000E+00

     total cpu time spent up to now is    13370.6 secs

     total energy              =  -33980.26809926 Ry
     estimated scf accuracy    <       0.00101851 Ry

     iteration # 17     ecut=    77.00 Ry     beta= 0.20
     Davidson diagonalization with overlap
     c_bands:  5 eigenvalues not converged
     ethr =  5.94E-08,  avg # of iterations = 14.0

     negative rho (up, down):  8.810E-04 0.000E+00

     total cpu time spent up to now is    14195.0 secs

     total energy              =  -33980.26891001 Ry
     estimated scf accuracy    <       0.00003258 Ry

     iteration # 18     ecut=    77.00 Ry     beta= 0.20
     Davidson diagonalization with overlap
     ethr =  1.90E-09,  avg # of iterations = 40.0

     negative rho (up, down):  9.097E-04 0.000E+00

     total cpu time spent up to now is    17620.8 secs

     total energy              =  -33980.26920562 Ry
     estimated scf accuracy    <       0.00004886 Ry

     iteration # 19     ecut=    77.00 Ry     beta= 0.20
     Davidson diagonalization with overlap
     ethr =  1.90E-09,  avg # of iterations = 12.0

     negative rho (up, down):  9.009E-04 0.000E+00

     total cpu time spent up to now is    18070.5 secs

     total energy              =  -33980.26920039 Ry
     estimated scf accuracy    <       0.00002478 Ry

     iteration # 20     ecut=    77.00 Ry     beta= 0.20
     Davidson diagonalization with overlap
     ethr =  1.45E-09,  avg # of iterations =  9.5

     negative rho (up, down):  8.955E-04 0.000E+00

     total cpu time spent up to now is    18518.7 secs

     total energy              =  -33980.26920059 Ry
     estimated scf accuracy    <       0.00000714 Ry

     iteration # 21     ecut=    77.00 Ry     beta= 0.20
     Davidson diagonalization with overlap
     c_bands:  1 eigenvalues not converged
     ethr =  4.16E-10,  avg # of iterations = 16.5

     negative rho (up, down):  8.950E-04 0.000E+00

     total cpu time spent up to now is    20017.3 secs

     total energy              =  -33980.26921986 Ry
     estimated scf accuracy    <       0.00001350 Ry

     iteration # 22     ecut=    77.00 Ry     beta= 0.20
     Davidson diagonalization with overlap
     ethr =  4.16E-10,  avg # of iterations =  1.2

     negative rho (up, down):  8.931E-04 0.000E+00

     total cpu time spent up to now is    20395.9 secs

     total energy              =  -33980.26921583 Ry
     estimated scf accuracy    <       0.00000985 Ry

     iteration # 23     ecut=    77.00 Ry     beta= 0.20
     Davidson diagonalization with overlap
     ethr =  4.16E-10,  avg # of iterations =  6.0

     negative rho (up, down):  8.901E-04 0.000E+00

     total cpu time spent up to now is    20844.5 secs

     total energy              =  -33980.26921675 Ry
     estimated scf accuracy    <       0.00000219 Ry

     iteration # 24     ecut=    77.00 Ry     beta= 0.20
     Davidson diagonalization with overlap
     c_bands:  2 eigenvalues not converged
     ethr =  1.28E-10,  avg # of iterations = 14.8

     negative rho (up, down):  8.895E-04 0.000E+00

     total cpu time spent up to now is    21807.0 secs

     total energy              =  -33980.26922000 Ry
     estimated scf accuracy    <       0.00000131 Ry

     iteration # 25     ecut=    77.00 Ry     beta= 0.20
     Davidson diagonalization with overlap
     c_bands:  5 eigenvalues not converged
     ethr =  7.63E-11,  avg # of iterations = 12.0

     negative rho (up, down):  8.858E-04 0.000E+00

     total cpu time spent up to now is    22367.8 secs

     End of self-consistent calculation

          k = 0.0000 0.0000 0.0000 (386245 PWs)   bands (ev):

  -102.9223 -88.0509 -71.2346 -71.2191 -71.2119 -71.2108 -71.1967 -71.1962
   -71.1877 -66.5630 -66.5630 -66.5617 -66.5590 -66.5433 -66.5419 -66.5418
   -66.5417 -66.5417 -66.5417 -66.5417 -66.5417 -66.5417 -66.5417 -66.5417
   -66.5416 -66.5415 -66.5413 -66.5404 -66.5404 -66.5404 -66.5404 -66.5404
   -66.5404 -66.5381 -66.5350 -66.5326 -66.5253 -66.5206 -66.5204 -66.5204
   -66.5203 -66.5203 -66.5203 -66.5203 -66.5203 -66.5203 -66.5203 -66.5203
   -66.5203 -66.5203 -66.5203 -66.5203 -66.5203 -66.5202 -66.5201 -66.5200
   -66.5190 -66.5190 -66.5190 -66.5190 -66.5190 -66.5190 -66.5190 -66.5190
   -66.5190 -66.5121 -66.5117 -66.5024 -66.5017 -66.4969 -66.4901 -66.4849
   -66.4775 -57.1713 -57.1479 -57.1466 -53.8793 -53.8589 -53.8429 -40.8905
   -40.8904 -40.8904 -40.8904 -40.8904 -40.8903 -40.8898 -40.8898 -40.8898
   -40.8792 -40.8768 -40.8734 -40.8152 -40.8152 -40.8151 -40.8151 -40.8151
   -40.8151 -40.8151 -40.8151 -40.8151 -40.8151 -40.8150 -40.8150 -40.8144
   -40.8144 -40.8144 -40.8144 -40.8144 -40.8144 -40.8062 -40.8050 -40.8019
   -40.7970 -40.7842 -40.7822 -40.7630 -40.7238 -40.7227 -40.7226 -40.7220
   -40.7023 -40.6890 -40.6888 -40.6888 -40.6888 -40.6888 -40.6888 -40.6888
   -40.6887 -40.6887 -40.6887 -40.6886 -40.6886 -40.6879 -40.6879 -40.6879
   -40.6879 -40.6879 -40.6879 -40.6861 -40.6826 -40.6811 -40.6810 -40.6810
   -40.6810 -40.6809 -40.6809 -40.6809 -40.6809 -40.6809 -40.6809 -40.6809
   -40.6808 -40.6807 -40.6803 -40.6803 -40.6803 -40.6803 -40.6803 -40.6803
   -40.6793 -40.6788 -40.6758 -40.6736 -40.6703 -40.6676 -40.6540 -40.6538
   -40.6538 -40.6538 -40.6538 -40.6537 -40.6537 -40.6537 -40.6537 -40.6537
   -40.6536 -40.6536 -40.6528 -40.6528 -40.6528 -40.6528 -40.6528 -40.6528
   -40.6515 -40.6513 -40.6491 -40.6458 -40.6436 -40.6426 -40.6392 -40.6391
   -40.6391 -40.6390 -40.6390 -40.6390 -40.6390 -40.6390 -40.6390 -40.6390
   -40.6390 -40.6389 -40.6389 -40.6389 -40.6389 -40.6389 -40.6388 -40.6387
   -40.6383 -40.6383 -40.6383 -40.6383 -40.6383 -40.6383 -40.6382 -40.6382
   -40.6382 -40.6378 -40.6354 -40.6352 -40.6339 -40.6287 -40.6254 -40.6233
   -40.6200 -40.6186 -40.6173 -40.5754 -40.5754 -40.5754 -40.5754 -40.5754
   -40.5753 -40.5744 -40.5744 -40.5744 -40.5607 -40.5586 -40.5575 -40.5284
   -40.5284 -40.5284 -40.5283 -40.5283 -40.5283 -40.5283 -40.5283 -40.5283
   -40.5282 -40.5281 -40.5281 -40.5273 -40.5273 -40.5273 -40.5273 -40.5273
   -40.5273 -40.5147 -40.5110 -40.5084 -40.5068 -40.5060 -40.4956 -40.4807
   -40.4807 -40.4806 -40.4806 -40.4796 -40.4796 -40.4556 -40.4530 -20.0847
   -20.0251 -19.9252 -19.8240 -19.3232 -19.2647 -19.2362 -19.2101 -19.1935
   -19.1880 -19.1728 -19.1704 -19.1674 -19.1586 -19.1420 -19.1287 -19.0826
   -19.0799 -19.0773 -19.0709 -19.0588 -19.0453 -18.9802 -18.9793 -18.9782
   -18.9765 -18.9717 -18.9664 -18.8563 -18.7374 -18.5781 -18.5361 -18.5333
   -18.5160 -18.4503 -18.4359 -18.4246 -18.4160 -18.3779 -18.3707 -18.3606
   -18.3414 -18.3368 -18.3215 -18.2828 -18.2453 -18.2254 -18.2237 -18.2209
   -18.2103 -18.1882 -18.1538 -18.1415 -18.1351 -18.1235 -18.1202 -18.1131
   -18.1083 -18.1008 -18.0995 -18.0621 -18.0603 -18.0585 -18.0585 -18.0570
   -18.0568 -18.0340 -18.0286 -18.0238 -18.0235 -18.0218 -18.0162 -18.0153
   -18.0144 -18.0142 -18.0004 -17.9902 -17.9892 -17.9883 -17.9844 -17.9732
   -17.9728 -17.9699 -17.9585 -17.9552 -17.9474 -17.9444 -17.9408 -17.9379
   -17.9290 -17.9290 -17.9253 -17.8902 -17.8890 -17.8848 -17.8848 -17.8685
   -17.8591 -17.8581 -17.8573 -17.8559 -17.8350 -17.8333 -17.8293 -17.8221
   -17.8179 -17.8125 -17.8074 -17.8057 -17.8039 -17.7985 -17.7975 -17.7951
   -17.7799 -17.7796 -17.7789 -17.7700 -17.7684 -17.7655 -17.7614 -17.7610
   -17.7593 -17.7362 -17.7360 -17.7351 -17.7338 -17.7335 -17.7327 -11.9907
   -11.9217 -11.8205 -11.7931 -11.7408 -11.7304 -11.7164 -11.7043 -11.6172
   -11.6040 -11.5988 -11.4993 -11.4931 -11.4904 -11.4384 -11.3579 -11.3007
   -11.2684 -11.2054 -11.1837 -11.1774 -11.1766 -11.1714 -11.1667 -11.1401
   -11.0852 -11.0727 -11.0725 -11.0711 -11.0708 -11.0635 -11.0593 -11.0417
   -11.0267 -11.0163 -11.0097 -11.0077 -11.0011 -11.0002 -10.9944 -10.9939
   -10.9834 -10.9709 -10.9673 -10.9499 -10.9329 -10.9163 -10.9094 -10.8911
   -10.8820 -10.8816 -10.8688 -10.8687 -10.8433 -10.8426 -10.8295 -10.8292
   -10.8199 -10.8122 -10.7954 -10.7915 -10.7888 -10.7817 -10.7776 -10.7757
   -10.7734 -10.7700 -10.7671 -10.7639 -10.7620 -10.7534 -10.7525 -10.7511
   -10.7453 -10.7442 -10.7406 -10.7200 -10.7191 -10.7141 -10.7136 -10.7120
   -10.7112 -10.7050 -10.6973 -10.6923 -10.6769 -10.6766 -10.6755 -10.6753
   -10.6731 -10.6722 -10.5991 -10.5981 -10.5969 -10.5501 -10.5389 -10.5272
   -10.5240 -10.5220 -10.5181 -10.4289 -10.4057 -10.1809 -10.1488 -10.1262
   -10.0093 -10.0089  -9.9367  -9.9116  -9.8334  -9.8257  -9.7915  -9.7706
    -9.7529  -9.7492  -9.7394  -9.7391  -9.7247  -9.7132  -9.7105  -9.7085
    -9.7078  -9.7076  -9.7063  -9.6979  -9.6920  -9.6882  -9.6865  -9.6837
    -9.6834  -9.6732  -9.6361  -9.6335  -9.6134  -9.5796  -9.5771  -9.5702
    -9.5698  -9.5646  -9.5620  -9.5585  -9.5566  -9.5563  -9.5562  -9.5553
    -9.5530  -9.5497  -9.5449  -9.5101  -9.4889  -9.4878  -9.4804  -9.4802
    -9.4801  -9.4796  -9.4796  -9.4787  -9.4670  -9.4626  -9.4625  -9.4514
    -9.4431  -9.4352  -9.4239  -9.3972  -9.3838  -9.3194  -9.3179  -9.3107
    -9.3041  -9.2979  -9.2818  -9.2766  -9.2745  -9.2722  -9.2633  -9.2537
    -9.2501  -9.2080  -9.2053  -9.1839  -9.1802  -9.1733  -9.1607  -9.1314
    -9.1307  -9.1246  -9.1218  -9.1205  -9.1174  -9.1062  -9.1055  -9.1034
    -9.0841  -9.0774  -9.0686  -9.0478  -9.0447  -9.0065  -8.9590  -8.9449
    -8.9424  -8.9227  -8.9192  -8.9161  -8.9105  -8.9050  -8.8915  -8.8863
    -8.8841  -8.8821  -8.8562  -8.8557  -8.8551  -8.8518  -8.8402  -8.8384
    -8.8295  -8.8206  -8.8076  -8.7603  -8.7599  -8.7599  -8.7595  -8.7593
    -8.7591  -8.6940  -8.6940  -8.6873  -8.6852  -8.6832  -8.6684  -8.6102
    -8.6097  -8.6087  -8.6010  -8.6002  -8.5885  -8.5879  -8.5346  -8.5338
    -8.5299  -8.5297  -8.5288  -8.5273  -8.4511  -8.4326  -8.3833  -8.3683
    -8.3443  -8.3052  -8.3051  -8.3002  -8.3000  -8.2937  -8.2936  -8.2716
    -8.2604  -8.2380  -8.2192  -8.2147  -8.2145  -8.2142  -8.2133  -8.2120
    -8.2018  -8.1882  -8.1879  -8.1874  -8.1859  -8.1846  -8.1781  -8.1599
    -8.1597  -8.1595  -8.1588  -8.1583  -8.1565  -8.0718  -8.0579  -8.0173
    -7.9816  -7.9486  -7.8168  -7.7964  -7.7946  -7.7791  -7.7122  -7.7043
    -7.6969  -7.6381  -7.6238  -7.6231  -7.5854  -7.5841  -7.5789  -7.5755
    -7.5614  -7.5583  -7.5536  -7.5458  -7.5407  -7.5373  -7.5247  -7.5050
    -7.4956  -7.4848  -7.4813  -7.4769  -7.4755  -7.4725  -7.4724  -7.4720
    -7.4656  -7.4615  -7.4574  -7.4466  -7.4452  -7.4450  -7.4421  -7.4414
    -7.4365  -7.4221  -7.4211  -7.4209  -7.4206  -7.4198  -7.4194  -7.4152
    -7.4052  -7.3973  -7.3907  -7.3711  -7.3663  -7.3623  -7.3576  -7.3502
    -7.3447  -7.3398  -7.3171  -7.2920  -7.2858  -7.2804  -7.2745  -7.2525
    -7.2400  -7.2357  -7.2343  -7.2335  -7.2319  -7.2257  -7.2220  -7.2175
    -7.1890  -7.1890  -7.1705  -7.1705  -7.1587  -7.1523  -7.1523  -7.1008
    -7.0853  -7.0610  -7.0507  -7.0438  -6.9949  -6.9880  -6.9439  -6.8659
    -6.8351  -6.8280  -6.8186  -6.7931  -6.7844  -6.7484  -6.7321  -6.7218
    -6.7145  -6.7138  -6.6918  -6.6803  -6.6387  -6.6359  -6.6304  -6.6197
    -6.5789  -6.5782  -6.5697  -6.5618  -6.5603  -6.5514  -6.5508  -6.5313
    -6.5163  -6.5056  -6.5009  -6.4983  -6.4966  -6.4855  -6.4746  -6.4628
    -6.4540  -6.4533  -6.4520  -6.4493  -6.4488  -6.4464  -6.4444  -6.4419
    -6.4374  -6.4361  -6.4360  -6.4359  -6.4356  -6.4355  -6.4339  -6.4026
    -6.3919  -6.3852  -6.3685  -6.3544  -6.3491  -6.3460  -6.3417  -6.3266
    -6.2942  -6.2718  -6.2715  -6.2701  -6.2699  -6.2681  -6.2632  -6.2341
    -6.2332  -6.2305  -6.2300  -6.2272  -6.2233  -6.2021  -6.1943  -6.1941
    -6.1923  -6.1919  -6.1906  -6.1897  -6.1475  -6.1444  -6.0930  -6.0799
    -5.8701  -5.7213  -5.6626  -5.6533  -5.5362  -5.4144  -5.3980  -5.2529
    -5.0891  -4.1676  -3.9149  -3.7959  -3.7911  -3.7849  -3.7823  -3.7693
    -3.7672  -3.7657  -3.7610  -3.7606  -3.7603  -3.7417  -3.7157  -3.6456
    -3.6411  -3.6327  -3.6315  -3.6189  -3.6168  -3.6139  -3.6125  -3.6107
    -3.6068  -3.5159  -3.4879  -3.4530  -3.4508  -3.4482  -3.4456  -3.4402
    -3.4230  -3.4219  -3.4112  -3.4098  -3.4081  -3.4065  -3.4060  -3.3960
    -3.3923  -3.3871  -3.3844  -3.3814  -3.3806  -3.3806  -3.3779  -3.3663
    -3.3658  -3.3651  -3.3527  -3.3516  -3.3493  -3.3493  -3.3471  -3.3419
    -3.3398  -3.3377  -3.3370  -3.3322  -3.3302  -3.2999  -3.2923  -3.2896
    -3.2880  -3.2832  -3.2805  -3.2804  -3.2764  -3.2677  -3.2647  -3.2547
    -3.2493  -3.2300  -3.2263  -3.2211  -3.2196  -3.2147  -3.2098  -3.2043
    -3.1949  -3.1610  -3.1546  -3.1359  -3.1351  -3.0212  -3.0146  -3.0140
    -3.0021  -2.9983  -2.9966  -2.9903  -2.9836  -2.9802  -2.9743  -2.9503
    -2.9388  -2.9357  -2.9138  -2.9127  -2.9125  -2.9096  -2.9075  -2.9033
    -2.9019  -2.9019  -2.9008  -2.9008  -2.9003  -2.8921  -2.8913  -2.8847
    -2.8811  -2.8745  -2.8722  -2.8711  -2.8696  -2.8660  -2.8658  -2.8647
    -2.8645  -2.8572  -2.8547  -2.8276  -2.8232  -2.8228  -2.8167  -2.8091
    -2.8074  -2.7979  -2.7959  -2.7693  -2.7443  -2.7423  -2.7418  -2.7417
    -2.7412  -2.7409  -2.7407  -2.7405  -2.7401  -2.7241  -2.7239  -2.7212
    -2.7040  -2.6827  -2.6767  -2.6738  -2.6624  -2.6577  -2.6565  -2.6094
    -2.6041  -2.5786  -2.5771  -2.5685  -2.5596  -2.5592  -2.5551  -2.5534
    -2.5530  -2.5244  -2.5114  -2.4896  -2.4880  -2.4804  -2.4740  -2.3628
    -2.3595  -2.3508  -2.3486  -2.3442

          k = 0.0000-0.5773 0.0000 (386352 PWs)   bands (ev):

  -102.9223 -88.0509 -71.2346 -71.2191 -71.2119 -71.2108 -71.1967 -71.1962
   -71.1877 -66.5572 -66.5569 -66.5568 -66.5568 -66.5567 -66.5555 -66.5555
   -66.5486 -66.5462 -66.5462 -66.5462 -66.5461 -66.5448 -66.5448 -66.5396
   -66.5386 -66.5342 -66.5314 -66.5312 -66.5311 -66.5310 -66.5310 -66.5310
   -66.5310 -66.5309 -66.5309 -66.5297 -66.5297 -66.5297 -66.5297 -66.5267
   -66.5266 -66.5266 -66.5265 -66.5253 -66.5253 -66.5240 -66.5205 -66.5205
   -66.5203 -66.5203 -66.5203 -66.5203 -66.5203 -66.5203 -66.5200 -66.5190
   -66.5190 -66.5190 -66.5190 -66.5159 -66.5159 -66.5159 -66.5158 -66.5146
   -66.5146 -66.5129 -66.5121 -66.5024 -66.5013 -66.4968 -66.4903 -66.4853
   -66.4772 -57.1713 -57.1479 -57.1466 -53.8793 -53.8589 -53.8429 -40.8589
   -40.8589 -40.8589 -40.8588 -40.8588 -40.8588 -40.8588 -40.8586 -40.8581
   -40.8581 -40.8581 -40.8581 -40.8560 -40.8466 -40.8421 -40.8320 -40.8320
   -40.8320 -40.8319 -40.8313 -40.8313 -40.8313 -40.8280 -40.8200 -40.8199
   -40.8199 -40.8199 -40.8199 -40.8193 -40.8193 -40.8015 -40.7878 -40.7693
   -40.7692 -40.7692 -40.7692 -40.7692 -40.7692 -40.7692 -40.7692 -40.7685
   -40.7685 -40.7685 -40.7685 -40.7632 -40.7539 -40.7500 -40.7450 -40.7377
   -40.7200 -40.7105 -40.7105 -40.7104 -40.7104 -40.7098 -40.7098 -40.7093
   -40.7010 -40.7010 -40.7010 -40.7009 -40.7001 -40.7001 -40.6896 -40.6896
   -40.6896 -40.6896 -40.6896 -40.6889 -40.6889 -40.6852 -40.6831 -40.6762
   -40.6643 -40.6605 -40.6601 -40.6601 -40.6600 -40.6600 -40.6600 -40.6600
   -40.6599 -40.6599 -40.6593 -40.6593 -40.6593 -40.6593 -40.6559 -40.6525
   -40.6513 -40.6513 -40.6513 -40.6512 -40.6506 -40.6505 -40.6479 -40.6401
   -40.6395 -40.6395 -40.6395 -40.6394 -40.6391 -40.6390 -40.6390 -40.6390
   -40.6390 -40.6390 -40.6389 -40.6388 -40.6386 -40.6386 -40.6382 -40.6382
   -40.6382 -40.6382 -40.6368 -40.6350 -40.6303 -40.6303 -40.6303 -40.6303
   -40.6295 -40.6295 -40.6273 -40.6272 -40.6251 -40.6165 -40.6150 -40.6088
   -40.6086 -40.6085 -40.6085 -40.6085 -40.6085 -40.6084 -40.6083 -40.6076
   -40.6076 -40.6076 -40.6076 -40.5975 -40.5950 -40.5916 -40.5875 -40.5738
   -40.5738 -40.5738 -40.5738 -40.5738 -40.5738 -40.5737 -40.5737 -40.5728
   -40.5728 -40.5728 -40.5728 -40.5617 -40.5617 -40.5616 -40.5615 -40.5607
   -40.5607 -40.5597 -40.5552 -40.5520 -40.5516 -40.5441 -40.5425 -40.5423
   -40.5423 -40.5421 -40.5414 -40.5414 -40.5320 -40.5297 -40.5254 -40.5253
   -40.5253 -40.5253 -40.5243 -40.5243 -40.5141 -40.5026 -40.4948 -40.4947
   -40.4947 -40.4945 -40.4936 -40.4936 -40.4918 -40.4771 -40.4648 -19.8584
   -19.8448 -19.7940 -19.7871 -19.6951 -19.6894 -19.5921 -19.5896 -19.4182
   -19.4026 -19.3585 -19.3512 -19.2652 -19.2606 -19.1656 -19.1641 -18.8520
   -18.8244 -18.8059 -18.7430 -18.6943 -18.6669 -18.6601 -18.6587 -18.6582
   -18.6441 -18.6144 -18.6097 -18.5919 -18.5873 -18.5718 -18.5483 -18.5386
   -18.5340 -18.5098 -18.4930 -18.4929 -18.4838 -18.4760 -18.4691 -18.4523
   -18.4332 -18.4253 -18.4137 -18.4062 -18.3890 -18.3495 -18.3472 -18.3413
   -18.3351 -18.3070 -18.2880 -18.2692 -18.2643 -18.2552 -18.2152 -18.1963
   -18.1919 -18.1878 -18.1598 -18.1375 -18.1286 -18.1198 -18.1153 -18.1004
   -18.0740 -18.0572 -18.0475 -18.0433 -18.0407 -18.0364 -18.0334 -18.0309
   -18.0255 -18.0091 -18.0067 -18.0060 -18.0047 -17.9996 -17.9900 -17.9845
   -17.9841 -17.9828 -17.9785 -17.9481 -17.9456 -17.9443 -17.9426 -17.9399
   -17.9351 -17.9335 -17.9328 -17.9249 -17.9192 -17.8889 -17.8824 -17.8779
   -17.8735 -17.8704 -17.8664 -17.8319 -17.8311 -17.8255 -17.8188 -17.8004
   -17.7872 -17.7832 -17.7797 -17.7744 -17.7623 -17.7571 -17.7569 -17.7569
   -17.7559 -17.7547 -17.7537 -17.7434 -17.7408 -17.7245 -17.7202 -17.6998
   -17.6963 -17.6807 -17.6762 -17.6655 -17.6625 -17.6573 -17.6569 -11.8390
   -11.6900 -11.6519 -11.6151 -11.5374 -11.5304 -11.4792 -11.4650 -11.4444
   -11.4339 -11.4337 -11.4294 -11.4148 -11.4125 -11.3914 -11.3724 -11.3411
   -11.3275 -11.3156 -11.3050 -11.2952 -11.2704 -11.2699 -11.2591 -11.2511
   -11.2271 -11.2135 -11.2072 -11.2049 -11.1993 -11.1928 -11.1918 -11.1651
   -11.1551 -11.1425 -11.1419 -11.1301 -11.1285 -11.1137 -11.1071 -11.1049
   -11.1025 -11.0857 -11.0843 -11.0641 -11.0535 -11.0390 -11.0238 -11.0021
   -10.9929 -10.9811 -10.9256 -10.9046 -10.8890 -10.8839 -10.8764 -10.8627
   -10.8554 -10.8465 -10.8446 -10.8257 -10.8138 -10.7876 -10.7751 -10.7745
   -10.7665 -10.7567 -10.7545 -10.7499 -10.7495 -10.7483 -10.7480 -10.7461
   -10.7445 -10.7369 -10.7329 -10.7307 -10.7298 -10.7214 -10.7213 -10.7194
   -10.7169 -10.6814 -10.6813 -10.6806 -10.6802 -10.6156 -10.5650 -10.5008
   -10.4814 -10.4672 -10.4659 -10.4441 -10.4056 -10.3511 -10.3215 -10.2283
   -10.2170 -10.1444 -10.1309 -10.1052 -10.0890 -10.0757 -10.0654 -10.0551
   -10.0531 -10.0297 -10.0216 -10.0107  -9.9921  -9.9808  -9.9735  -9.9683
    -9.9665  -9.9445  -9.9386  -9.9336  -9.9268  -9.8966  -9.8722  -9.8664
    -9.8606  -9.8519  -9.8373  -9.8315  -9.8150  -9.8057  -9.7968  -9.7956
    -9.7630  -9.7529  -9.7509  -9.7262  -9.7199  -9.7111  -9.6957  -9.6951
    -9.6797  -9.6504  -9.6344  -9.6286  -9.6036  -9.5964  -9.5922  -9.5661
    -9.5643  -9.5594  -9.5313  -9.5241  -9.5131  -9.5088  -9.4828  -9.4790
    -9.4783  -9.4676  -9.4581  -9.4358  -9.4286  -9.4268  -9.4121  -9.4106
    -9.4055  -9.3984  -9.3934  -9.3910  -9.3803  -9.3712  -9.3581  -9.3378
    -9.3124  -9.2760  -9.2737  -9.2472  -9.1971  -9.1865  -9.1738  -9.1729
    -9.1620  -9.1402  -9.1369  -9.1232  -9.1091  -9.0958  -9.0929  -9.0681
    -9.0555  -9.0461  -9.0283  -9.0202  -9.0156  -9.0123  -8.9902  -8.9843
    -8.9771  -8.9749  -8.9605  -8.9293  -8.9251  -8.9228  -8.9088  -8.8944
    -8.8845  -8.8794  -8.8690  -8.8667  -8.8406  -8.8286  -8.8273  -8.8271
    -8.8231  -8.8190  -8.8186  -8.8111  -8.8101  -8.8074  -8.8051  -8.8035
    -8.7984  -8.7956  -8.7896  -8.7891  -8.7780  -8.7773  -8.7716  -8.7693
    -8.7477  -8.7307  -8.7306  -8.7296  -8.7245  -8.7225  -8.7192  -8.7001
    -8.6998  -8.6838  -8.6728  -8.6702  -8.6671  -8.6615  -8.6513  -8.6440
    -8.5999  -8.5934  -8.5856  -8.5295  -8.5091  -8.4541  -8.4385  -8.4382
    -8.3824  -8.3727  -8.3286  -8.3189  -8.2889  -8.2849  -8.2140  -8.2109
    -8.1818  -8.1345  -8.0819  -8.0653  -8.0649  -8.0564  -8.0555  -8.0450
    -8.0445  -8.0095  -8.0024  -7.9727  -7.9186  -7.9150  -7.9082  -7.9077
    -7.8732  -7.8641  -7.8210  -7.7898  -7.7873  -7.7791  -7.7751  -7.7642
    -7.7625  -7.7537  -7.7497  -7.7429  -7.7395  -7.7373  -7.7344  -7.7318
    -7.7282  -7.7259  -7.7221  -7.7186  -7.7184  -7.7156  -7.7144  -7.7072
    -7.7055  -7.7055  -7.7012  -7.7001  -7.6993  -7.6961  -7.6954  -7.6896
    -7.6693  -7.6686  -7.6661  -7.6653  -7.6650  -7.6349  -7.6347  -7.6343
    -7.6332  -7.6114  -7.6071  -7.6046  -7.6031  -7.6013  -7.5983  -7.5875
    -7.5858  -7.5727  -7.5517  -7.5478  -7.5456  -7.5400  -7.5376  -7.5369
    -7.5306  -7.5224  -7.5218  -7.5130  -7.5025  -7.5015  -7.4998  -7.4958
    -7.4885  -7.4768  -7.4093  -7.4021  -7.3946  -7.3941  -7.3768  -7.3609
    -7.3499  -7.2625  -7.2077  -7.1719  -7.1274  -7.1231  -7.1068  -7.1067
    -7.1022  -7.0973  -7.0637  -7.0593  -7.0467  -7.0429  -7.0422  -7.0184
    -7.0154  -6.9808  -6.9668  -6.9635  -6.9604  -6.9555  -6.9211  -6.9133
    -6.8887  -6.8805  -6.8523  -6.8519  -6.8443  -6.8339  -6.8175  -6.8155
    -6.7971  -6.7940  -6.7929  -6.7676  -6.7391  -6.7161  -6.7156  -6.6942
    -6.6677  -6.6614  -6.6261  -6.6017  -6.5807  -6.5776  -6.5638  -6.5557
    -6.5523  -6.5514  -6.5423  -6.5417  -6.5417  -6.5373  -6.5252  -6.5243
    -6.5242  -6.5225  -6.5165  -6.5163  -6.5163  -6.5160  -6.4996  -6.4854
    -6.4107  -6.3824  -6.3792  -6.3538  -6.3511  -6.3266  -6.2639  -6.2633
    -6.2567  -6.2541  -6.2482  -6.2397  -6.2153  -6.2151  -6.2136  -6.2104
    -6.2092  -6.2022  -6.1996  -6.1989  -6.1895  -6.1719  -6.1660  -6.1490
    -6.1478  -6.1404  -6.1371  -6.1229  -6.1167  -5.9843  -5.9386  -5.9293
    -5.9047  -5.9018  -5.8525  -5.8473  -5.8258  -5.7872  -5.7865  -5.7083
    -5.6665  -5.6345  -5.6160  -5.5709  -5.5509  -5.5228  -5.4880  -5.4046
    -5.3355  -4.1404  -4.0320  -4.0316  -4.0188  -4.0168  -3.9357  -3.8787
    -3.8616  -3.8584  -3.8365  -3.8328  -3.7788  -3.7778  -3.7639  -3.7613
    -3.7476  -3.7460  -3.7355  -3.7349  -3.7274  -3.7236  -3.6417  -3.6280
    -3.6236  -3.6163  -3.5442  -3.5414  -3.5385  -3.5384  -3.5328  -3.5077
    -3.4894  -3.4880  -3.4738  -3.4616  -3.4603  -3.4552  -3.4497  -3.4433
    -3.4344  -3.4222  -3.4162  -3.4124  -3.4109  -3.4090  -3.4076  -3.4070
    -3.3835  -3.3820  -3.3680  -3.3667  -3.3607  -3.3565  -3.3372  -3.3284
    -3.3146  -3.2907  -3.2854  -3.2824  -3.2815  -3.2766  -3.2761  -3.2710
    -3.2578  -3.2370  -3.2353  -3.2289  -3.2276  -3.2199  -3.2166  -3.2146
    -3.2100  -3.2097  -3.2062  -3.1832  -3.1828  -3.1761  -3.1699  -3.1656
    -3.1644  -3.1515  -3.1481  -3.1470  -3.1441  -3.1312  -3.1226  -3.1174
    -3.1148  -3.1096  -3.0982  -3.0977  -3.0977  -3.0958  -3.0738  -3.0565
    -3.0390  -3.0248  -3.0103  -3.0034  -3.0034  -3.0001  -2.9917  -2.9633
    -2.9624  -2.9589  -2.9572  -2.9571  -2.9560  -2.9492  -2.9486  -2.9445
    -2.9409  -2.9394  -2.9381  -2.9271  -2.9234  -2.9198  -2.9189  -2.9124
    -2.9116  -2.9059  -2.9025  -2.8942  -2.8942  -2.8840  -2.8829  -2.8792
    -2.8774  -2.8685  -2.8660  -2.8596  -2.8445  -2.8364  -2.8347  -2.8249
    -2.8187  -2.8176  -2.8080  -2.8027  -2.7881  -2.7325  -2.7297  -2.7260
    -2.7255  -2.6897  -2.6629  -2.6457  -2.6445  -2.5594  -2.5438  -2.5266
    -2.5129  -2.5075  -2.4978  -2.4917  -2.4807  -2.4681  -2.4627  -2.4620
    -2.4609  -2.4575  -2.4343  -2.3893  -2.3435  -2.3349  -2.3339  -2.3294
    -2.3239  -2.3178  -2.2931  -2.2807

          k =-0.5000-0.2887 0.0000 (386352 PWs)   bands (ev):

  -102.9223 -88.0509 -71.2346 -71.2191 -71.2119 -71.2108 -71.1967 -71.1962
   -71.1877 -66.5575 -66.5568 -66.5568 -66.5568 -66.5567 -66.5555 -66.5555
   -66.5472 -66.5462 -66.5462 -66.5462 -66.5461 -66.5448 -66.5448 -66.5412
   -66.5385 -66.5341 -66.5316 -66.5311 -66.5310 -66.5310 -66.5310 -66.5310
   -66.5310 -66.5310 -66.5310 -66.5297 -66.5297 -66.5297 -66.5297 -66.5266
   -66.5266 -66.5266 -66.5265 -66.5253 -66.5253 -66.5230 -66.5207 -66.5204
   -66.5203 -66.5203 -66.5203 -66.5203 -66.5203 -66.5203 -66.5202 -66.5190
   -66.5190 -66.5190 -66.5190 -66.5159 -66.5159 -66.5159 -66.5158 -66.5146
   -66.5146 -66.5132 -66.5116 -66.5031 -66.5008 -66.4973 -66.4900 -66.4852
   -66.4773 -57.1713 -57.1479 -57.1466 -53.8793 -53.8589 -53.8429 -40.8590
   -40.8588 -40.8588 -40.8588 -40.8588 -40.8588 -40.8587 -40.8587 -40.8581
   -40.8581 -40.8581 -40.8581 -40.8568 -40.8510 -40.8434 -40.8320 -40.8320
   -40.8320 -40.8319 -40.8313 -40.8313 -40.8272 -40.8219 -40.8199 -40.8199
   -40.8199 -40.8199 -40.8193 -40.8193 -40.8185 -40.8037 -40.7885 -40.7693
   -40.7693 -40.7692 -40.7692 -40.7692 -40.7692 -40.7692 -40.7692 -40.7685
   -40.7685 -40.7685 -40.7685 -40.7633 -40.7553 -40.7496 -40.7465 -40.7394
   -40.7193 -40.7110 -40.7105 -40.7105 -40.7105 -40.7104 -40.7098 -40.7098
   -40.7010 -40.7010 -40.7010 -40.7009 -40.7001 -40.7001 -40.6912 -40.6896
   -40.6896 -40.6896 -40.6896 -40.6889 -40.6889 -40.6822 -40.6783 -40.6769
   -40.6721 -40.6602 -40.6600 -40.6600 -40.6600 -40.6600 -40.6600 -40.6600
   -40.6600 -40.6599 -40.6593 -40.6593 -40.6593 -40.6593 -40.6560 -40.6513
   -40.6513 -40.6513 -40.6512 -40.6506 -40.6505 -40.6505 -40.6442 -40.6428
   -40.6395 -40.6395 -40.6395 -40.6394 -40.6391 -40.6390 -40.6390 -40.6390
   -40.6389 -40.6389 -40.6389 -40.6389 -40.6386 -40.6386 -40.6382 -40.6382
   -40.6382 -40.6382 -40.6369 -40.6350 -40.6303 -40.6303 -40.6303 -40.6303
   -40.6295 -40.6295 -40.6291 -40.6247 -40.6231 -40.6182 -40.6157 -40.6086
   -40.6086 -40.6086 -40.6085 -40.6085 -40.6085 -40.6085 -40.6084 -40.6076
   -40.6076 -40.6076 -40.6076 -40.5986 -40.5974 -40.5863 -40.5848 -40.5738
   -40.5738 -40.5738 -40.5738 -40.5738 -40.5738 -40.5738 -40.5737 -40.5728
   -40.5728 -40.5728 -40.5728 -40.5617 -40.5617 -40.5616 -40.5615 -40.5608
   -40.5607 -40.5607 -40.5555 -40.5529 -40.5494 -40.5443 -40.5424 -40.5423
   -40.5423 -40.5422 -40.5414 -40.5414 -40.5305 -40.5280 -40.5254 -40.5253
   -40.5253 -40.5253 -40.5243 -40.5243 -40.5189 -40.5035 -40.4947 -40.4947
   -40.4947 -40.4946 -40.4936 -40.4936 -40.4934 -40.4805 -40.4601 -19.8772
   -19.8313 -19.7979 -19.7749 -19.6972 -19.6819 -19.5923 -19.5875 -19.4312
   -19.4031 -19.3616 -19.3517 -19.2673 -19.2611 -19.1664 -19.1644 -18.8439
   -18.8130 -18.7871 -18.7324 -18.7010 -18.6778 -18.6601 -18.6586 -18.6581
   -18.6506 -18.6267 -18.6194 -18.5883 -18.5872 -18.5786 -18.5668 -18.5351
   -18.5203 -18.5101 -18.4930 -18.4891 -18.4845 -18.4799 -18.4700 -18.4451
   -18.4258 -18.4179 -18.4151 -18.4066 -18.3808 -18.3494 -18.3486 -18.3404
   -18.3222 -18.3062 -18.2970 -18.2764 -18.2654 -18.2590 -18.2224 -18.2018
   -18.1943 -18.1858 -18.1732 -18.1516 -18.1297 -18.1169 -18.1098 -18.0861
   -18.0740 -18.0631 -18.0511 -18.0426 -18.0397 -18.0366 -18.0354 -18.0271
   -18.0142 -18.0119 -18.0084 -18.0048 -18.0012 -17.9995 -17.9970 -17.9881
   -17.9842 -17.9779 -17.9704 -17.9483 -17.9463 -17.9424 -17.9411 -17.9382
   -17.9366 -17.9344 -17.9287 -17.9241 -17.9179 -17.8874 -17.8821 -17.8759
   -17.8737 -17.8678 -17.8598 -17.8332 -17.8273 -17.8267 -17.8158 -17.8095
   -17.7872 -17.7840 -17.7793 -17.7765 -17.7683 -17.7572 -17.7571 -17.7569
   -17.7559 -17.7553 -17.7549 -17.7432 -17.7414 -17.7239 -17.7208 -17.6993
   -17.6967 -17.6802 -17.6767 -17.6652 -17.6630 -17.6573 -17.6570 -11.8419
   -11.6926 -11.6532 -11.6127 -11.5690 -11.5037 -11.4705 -11.4621 -11.4406
   -11.4338 -11.4303 -11.4203 -11.4161 -11.4059 -11.3975 -11.3512 -11.3462
   -11.3263 -11.3199 -11.3163 -11.3016 -11.2746 -11.2696 -11.2604 -11.2477
   -11.2308 -11.2118 -11.2090 -11.2044 -11.1971 -11.1949 -11.1915 -11.1696
   -11.1574 -11.1441 -11.1418 -11.1301 -11.1275 -11.1088 -11.1073 -11.1061
   -11.1009 -11.0869 -11.0839 -11.0731 -11.0615 -11.0307 -11.0279 -11.0032
   -11.0001 -10.9779 -10.9274 -10.9210 -10.8976 -10.8781 -10.8754 -10.8653
   -10.8509 -10.8477 -10.8373 -10.8283 -10.7993 -10.7920 -10.7744 -10.7684
   -10.7657 -10.7631 -10.7562 -10.7494 -10.7491 -10.7483 -10.7451 -10.7426
   -10.7403 -10.7354 -10.7330 -10.7302 -10.7290 -10.7217 -10.7211 -10.7192
   -10.7142 -10.6815 -10.6812 -10.6806 -10.6799 -10.5946 -10.5734 -10.5054
   -10.4789 -10.4676 -10.4659 -10.4421 -10.4018 -10.3530 -10.3105 -10.2298
   -10.2003 -10.1759 -10.1400 -10.1096 -10.0900 -10.0725 -10.0638 -10.0554
   -10.0461 -10.0350 -10.0243  -9.9972  -9.9946  -9.9902  -9.9742  -9.9719
    -9.9611  -9.9498  -9.9405  -9.9363  -9.9221  -9.8854  -9.8738  -9.8638
    -9.8555  -9.8527  -9.8462  -9.8312  -9.8247  -9.8095  -9.7982  -9.7909
    -9.7687  -9.7566  -9.7458  -9.7260  -9.7186  -9.7096  -9.7031  -9.6773
    -9.6755  -9.6604  -9.6407  -9.6319  -9.6203  -9.5940  -9.5923  -9.5745
    -9.5598  -9.5530  -9.5382  -9.5168  -9.5146  -9.5006  -9.4888  -9.4816
    -9.4808  -9.4723  -9.4592  -9.4285  -9.4275  -9.4262  -9.4115  -9.4097
    -9.4015  -9.3968  -9.3932  -9.3916  -9.3831  -9.3704  -9.3678  -9.3237
    -9.3003  -9.2667  -9.2590  -9.2458  -9.2296  -9.1887  -9.1668  -9.1581
    -9.1491  -9.1428  -9.1334  -9.1269  -9.1250  -9.0867  -9.0848  -9.0755
    -9.0606  -9.0430  -9.0316  -9.0252  -9.0115  -8.9960  -8.9913  -8.9823
    -8.9787  -8.9709  -8.9686  -8.9421  -8.9257  -8.9122  -8.9042  -8.8934
    -8.8861  -8.8818  -8.8762  -8.8639  -8.8492  -8.8367  -8.8321  -8.8269
    -8.8251  -8.8235  -8.8220  -8.8202  -8.8122  -8.8101  -8.8064  -8.8053
    -8.7972  -8.7922  -8.7838  -8.7797  -8.7778  -8.7772  -8.7674  -8.7653
    -8.7465  -8.7313  -8.7306  -8.7281  -8.7231  -8.7220  -8.7192  -8.7011
    -8.6977  -8.6730  -8.6713  -8.6696  -8.6657  -8.6618  -8.6502  -8.6417
    -8.6066  -8.5932  -8.5873  -8.5341  -8.5089  -8.4433  -8.4384  -8.4316
    -8.3948  -8.3774  -8.3728  -8.3047  -8.2903  -8.2616  -8.2165  -8.1971
    -8.1679  -8.1184  -8.0655  -8.0653  -8.0582  -8.0565  -8.0510  -8.0450
    -8.0437  -8.0121  -8.0006  -7.9994  -7.9766  -7.9406  -7.9140  -7.9060
    -7.9035  -7.8281  -7.8054  -7.7863  -7.7800  -7.7764  -7.7696  -7.7636
    -7.7595  -7.7536  -7.7523  -7.7437  -7.7411  -7.7400  -7.7349  -7.7309
    -7.7292  -7.7256  -7.7237  -7.7228  -7.7189  -7.7174  -7.7073  -7.7066
    -7.7043  -7.7026  -7.7020  -7.7016  -7.6963  -7.6958  -7.6884  -7.6861
    -7.6765  -7.6706  -7.6674  -7.6667  -7.6595  -7.6362  -7.6352  -7.6339
    -7.6329  -7.6213  -7.6045  -7.6040  -7.6029  -7.6021  -7.5951  -7.5903
    -7.5820  -7.5768  -7.5530  -7.5454  -7.5454  -7.5415  -7.5382  -7.5344
    -7.5309  -7.5228  -7.5214  -7.5024  -7.5016  -7.4994  -7.4974  -7.4882
    -7.4843  -7.4814  -7.4029  -7.3992  -7.3951  -7.3898  -7.3850  -7.3590
    -7.3414  -7.2904  -7.2605  -7.1518  -7.1312  -7.1199  -7.1070  -7.1045
    -7.1019  -7.0943  -7.0608  -7.0530  -7.0493  -7.0419  -7.0245  -7.0200
    -6.9878  -6.9780  -6.9680  -6.9645  -6.9535  -6.9461  -6.9187  -6.9132
    -6.8950  -6.8830  -6.8611  -6.8525  -6.8472  -6.8418  -6.8192  -6.8122
    -6.7973  -6.7953  -6.7929  -6.7759  -6.7498  -6.7136  -6.7063  -6.6909
    -6.6640  -6.6381  -6.6218  -6.6059  -6.5997  -6.5901  -6.5675  -6.5597
    -6.5553  -6.5430  -6.5421  -6.5417  -6.5408  -6.5256  -6.5250  -6.5243
    -6.5239  -6.5197  -6.5166  -6.5164  -6.5163  -6.5162  -6.4833  -6.4735
    -6.4169  -6.4007  -6.3915  -6.3691  -6.3482  -6.3002  -6.2727  -6.2636
    -6.2585  -6.2554  -6.2503  -6.2333  -6.2305  -6.2199  -6.2148  -6.2140
    -6.2103  -6.2094  -6.2010  -6.1981  -6.1897  -6.1788  -6.1689  -6.1511
    -6.1465  -6.1399  -6.1386  -6.1310  -6.1189  -5.9557  -5.9366  -5.9251
    -5.9132  -5.8869  -5.8531  -5.8385  -5.8183  -5.7888  -5.7824  -5.7176
    -5.6790  -5.6461  -5.5999  -5.5740  -5.5489  -5.5214  -5.4769  -5.4023
    -5.3473  -4.1670  -4.0511  -4.0308  -4.0251  -3.9990  -3.9226  -3.8702
    -3.8631  -3.8568  -3.8471  -3.8014  -3.7805  -3.7778  -3.7676  -3.7608
    -3.7513  -3.7450  -3.7408  -3.7353  -3.7332  -3.6957  -3.6600  -3.6246
    -3.6219  -3.5871  -3.5541  -3.5455  -3.5407  -3.5382  -3.5345  -3.5108
    -3.4903  -3.4883  -3.4800  -3.4625  -3.4576  -3.4539  -3.4508  -3.4464
    -3.4358  -3.4208  -3.4197  -3.4148  -3.4119  -3.4109  -3.4048  -3.3979
    -3.3864  -3.3836  -3.3830  -3.3675  -3.3602  -3.3561  -3.3466  -3.3297
    -3.3163  -3.2942  -3.2850  -3.2837  -3.2808  -3.2797  -3.2747  -3.2732
    -3.2647  -3.2406  -3.2305  -3.2249  -3.2244  -3.2182  -3.2163  -3.2135
    -3.2111  -3.2083  -3.2007  -3.1809  -3.1803  -3.1744  -3.1676  -3.1659
    -3.1632  -3.1529  -3.1477  -3.1442  -3.1415  -3.1229  -3.1218  -3.1207
    -3.1079  -3.1045  -3.1009  -3.0978  -3.0977  -3.0950  -3.0804  -3.0503
    -3.0369  -3.0180  -3.0159  -3.0062  -3.0025  -2.9998  -2.9946  -2.9640
    -2.9622  -2.9589  -2.9586  -2.9570  -2.9558  -2.9490  -2.9478  -2.9461
    -2.9393  -2.9388  -2.9373  -2.9261  -2.9227  -2.9205  -2.9167  -2.9157
    -2.9108  -2.9064  -2.9029  -2.8979  -2.8948  -2.8831  -2.8827  -2.8784
    -2.8769  -2.8709  -2.8656  -2.8597  -2.8485  -2.8385  -2.8326  -2.8231
    -2.8202  -2.8165  -2.8105  -2.8027  -2.7862  -2.7347  -2.7329  -2.7253
    -2.7218  -2.6831  -2.6665  -2.6495  -2.6478  -2.5590  -2.5464  -2.5296
    -2.5168  -2.5119  -2.4946  -2.4911  -2.4813  -2.4698  -2.4657  -2.4628
    -2.4625  -2.4572  -2.4404  -2.3610  -2.3434  -2.3383  -2.3327  -2.3262
    -2.3245  -2.3169  -2.2857  -2.2789

          k =-0.5000-0.8660 0.0000 (386352 PWs)   bands (ev):

  -102.9223 -88.0509 -71.2346 -71.2191 -71.2119 -71.2108 -71.1967 -71.1962
   -71.1877 -66.5575 -66.5568 -66.5568 -66.5568 -66.5567 -66.5555 -66.5555
   -66.5472 -66.5462 -66.5462 -66.5462 -66.5461 -66.5448 -66.5448 -66.5412
   -66.5385 -66.5341 -66.5316 -66.5311 -66.5310 -66.5310 -66.5310 -66.5310
   -66.5310 -66.5310 -66.5310 -66.5297 -66.5297 -66.5297 -66.5297 -66.5266
   -66.5266 -66.5266 -66.5265 -66.5253 -66.5253 -66.5230 -66.5207 -66.5204
   -66.5203 -66.5203 -66.5203 -66.5203 -66.5203 -66.5203 -66.5202 -66.5190
   -66.5190 -66.5190 -66.5190 -66.5159 -66.5159 -66.5159 -66.5158 -66.5146
   -66.5146 -66.5132 -66.5116 -66.5031 -66.5008 -66.4973 -66.4900 -66.4852
   -66.4773 -57.1713 -57.1479 -57.1466 -53.8793 -53.8589 -53.8429 -40.8590
   -40.8588 -40.8588 -40.8588 -40.8588 -40.8588 -40.8587 -40.8587 -40.8581
   -40.8581 -40.8581 -40.8581 -40.8568 -40.8510 -40.8434 -40.8320 -40.8320
   -40.8320 -40.8319 -40.8313 -40.8313 -40.8272 -40.8219 -40.8199 -40.8199
   -40.8199 -40.8199 -40.8193 -40.8193 -40.8185 -40.8037 -40.7885 -40.7693
   -40.7692 -40.7692 -40.7692 -40.7692 -40.7692 -40.7692 -40.7692 -40.7685
   -40.7685 -40.7685 -40.7685 -40.7633 -40.7553 -40.7496 -40.7465 -40.7394
   -40.7193 -40.7110 -40.7105 -40.7105 -40.7105 -40.7104 -40.7098 -40.7098
   -40.7010 -40.7010 -40.7010 -40.7009 -40.7001 -40.7001 -40.6912 -40.6896
   -40.6896 -40.6896 -40.6896 -40.6889 -40.6889 -40.6822 -40.6783 -40.6769
   -40.6721 -40.6602 -40.6600 -40.6600 -40.6600 -40.6600 -40.6600 -40.6600
   -40.6600 -40.6599 -40.6593 -40.6593 -40.6593 -40.6593 -40.6560 -40.6513
   -40.6513 -40.6513 -40.6512 -40.6506 -40.6505 -40.6505 -40.6442 -40.6429
   -40.6395 -40.6395 -40.6395 -40.6394 -40.6391 -40.6390 -40.6390 -40.6390
   -40.6389 -40.6389 -40.6389 -40.6389 -40.6386 -40.6386 -40.6382 -40.6382
   -40.6382 -40.6382 -40.6369 -40.6350 -40.6303 -40.6303 -40.6303 -40.6303
   -40.6295 -40.6295 -40.6291 -40.6247 -40.6231 -40.6182 -40.6157 -40.6086
   -40.6086 -40.6085 -40.6085 -40.6085 -40.6085 -40.6085 -40.6084 -40.6076
   -40.6076 -40.6076 -40.6076 -40.5986 -40.5974 -40.5863 -40.5848 -40.5738
   -40.5738 -40.5738 -40.5738 -40.5738 -40.5738 -40.5737 -40.5737 -40.5728
   -40.5728 -40.5728 -40.5728 -40.5617 -40.5617 -40.5616 -40.5615 -40.5608
   -40.5607 -40.5607 -40.5555 -40.5529 -40.5494 -40.5443 -40.5424 -40.5423
   -40.5423 -40.5422 -40.5414 -40.5414 -40.5305 -40.5280 -40.5254 -40.5253
   -40.5253 -40.5253 -40.5243 -40.5243 -40.5189 -40.5035 -40.4947 -40.4947
   -40.4947 -40.4946 -40.4937 -40.4936 -40.4934 -40.4805 -40.4601 -19.8772
   -19.8313 -19.7979 -19.7749 -19.6972 -19.6819 -19.5923 -19.5875 -19.4312
   -19.4030 -19.3616 -19.3517 -19.2673 -19.2611 -19.1664 -19.1644 -18.8439
   -18.8130 -18.7871 -18.7324 -18.7010 -18.6778 -18.6601 -18.6586 -18.6581
   -18.6506 -18.6267 -18.6195 -18.5883 -18.5872 -18.5786 -18.5668 -18.5351
   -18.5203 -18.5101 -18.4930 -18.4891 -18.4845 -18.4799 -18.4700 -18.4451
   -18.4258 -18.4179 -18.4151 -18.4066 -18.3808 -18.3494 -18.3486 -18.3404
   -18.3222 -18.3062 -18.2970 -18.2764 -18.2654 -18.2590 -18.2224 -18.2018
   -18.1943 -18.1858 -18.1732 -18.1516 -18.1297 -18.1170 -18.1098 -18.0861
   -18.0740 -18.0631 -18.0511 -18.0426 -18.0397 -18.0366 -18.0355 -18.0271
   -18.0142 -18.0119 -18.0084 -18.0048 -18.0012 -17.9995 -17.9970 -17.9881
   -17.9843 -17.9779 -17.9704 -17.9483 -17.9463 -17.9424 -17.9411 -17.9382
   -17.9366 -17.9344 -17.9287 -17.9241 -17.9179 -17.8874 -17.8821 -17.8759
   -17.8737 -17.8677 -17.8598 -17.8332 -17.8273 -17.8267 -17.8158 -17.8095
   -17.7872 -17.7840 -17.7793 -17.7765 -17.7683 -17.7572 -17.7571 -17.7569
   -17.7559 -17.7553 -17.7549 -17.7432 -17.7414 -17.7239 -17.7208 -17.6993
   -17.6967 -17.6802 -17.6767 -17.6652 -17.6630 -17.6573 -17.6570 -11.8419
   -11.6925 -11.6532 -11.6127 -11.5690 -11.5037 -11.4705 -11.4621 -11.4406
   -11.4338 -11.4303 -11.4203 -11.4161 -11.4059 -11.3975 -11.3512 -11.3462
   -11.3263 -11.3199 -11.3163 -11.3016 -11.2746 -11.2696 -11.2604 -11.2477
   -11.2308 -11.2118 -11.2090 -11.2044 -11.1971 -11.1949 -11.1915 -11.1696
   -11.1574 -11.1441 -11.1418 -11.1301 -11.1275 -11.1088 -11.1073 -11.1061
   -11.1009 -11.0869 -11.0839 -11.0731 -11.0615 -11.0307 -11.0279 -11.0032
   -11.0001 -10.9779 -10.9274 -10.9210 -10.8976 -10.8781 -10.8754 -10.8653
   -10.8509 -10.8477 -10.8374 -10.8283 -10.7993 -10.7920 -10.7744 -10.7684
[...]
     atom  170 type  1   force =    -0.00001273   -0.00001804    0.00000564
     atom  171 type  2   force =    -0.00000416   -0.00000100    0.00000471
     atom  172 type  2   force =    -0.00000044   -0.00000072    0.00161531
     atom  173 type  2   force =    -0.00000057   -0.00000124   -0.00235921
     atom  174 type  2   force =    -0.00000170   -0.00000197   -0.00000368
     atom  175 type  1   force =    -0.00001056   -0.00002480    0.00002257
     atom  176 type  1   force =    -0.00000051   -0.00011397   -0.00019982
     atom  177 type  2   force =    -0.00024033   -0.00020580   -0.00018386
     atom  178 type  2   force =     0.00000016   -0.00000265    0.00003799
     atom  179 type  2   force =     0.00000001    0.00000038    0.00002457
     atom  180 type  2   force =     0.00002058   -0.00001795   -0.00022134
     atom  181 type  1   force =     0.00000133   -0.00000165    0.00068845
     atom  182 type  1   force =    -0.00001210   -0.00001038   -0.00000010
     atom  183 type  2   force =    -0.00000273   -0.00000219    0.00000520
     atom  184 type  2   force =    -0.00000043   -0.00000067    0.00161532
     atom  185 type  2   force =    -0.00000063   -0.00000117   -0.00235924
     atom  186 type  2   force =    -0.00000457   -0.00000172   -0.00000893
     atom  187 type  1   force =     0.00000205   -0.00000298   -0.00001781
     atom  188 type  1   force =    -0.00003363    0.00002560   -0.00021429
     atom  189 type  2   force =    -0.00067070    0.00038292    0.00078622
     atom  190 type  2   force =     0.00000226    0.00000223    0.00003391
     atom  191 type  2   force =    -0.00000027    0.00000369    0.00001952
     atom  192 type  2   force =    -0.00003972    0.00004104   -0.00004848
     atom  193 type  3   force =     0.00000118   -0.00013859   -0.00019999
     atom  194 type  4   force =     0.00000089   -0.00007470    0.00024436

     Total force =     0.003355     Total SCF correction =     0.000429
     SCF correction compared to forces is large: reduce conv_thr to get better values
     Energy error            =      1.6E-05 Ry
     Gradient error          =      9.1E-04 Ry/Bohr

     bfgs converged in  17 scf cycles and  16 bfgs steps
     (criteria: energy <  1.0E-04 Ry, force <  1.0E-03 Ry/Bohr)

     End of BFGS Geometry Optimization

     Final energy             =  -33980.2851336295 Ry

     File ./outdir/pwscf.bfgs deleted, as requested
Begin final coordinates

ATOMIC_POSITIONS (angstrom)
Mo               0.0000119917        1.8193638619       -9.1672481230    0   0   0
Mo               1.5756136568        0.9097075315       -3.0554901653    0   0   0
S                0.0000188998        1.8193822938       -4.6232556019    0   0   0
S                1.5756321638        0.9096773839       -7.6014065489    0   0   0
S                1.5756326175        0.9096785128      -10.7330757790    0   0   0
S                0.0000189190        1.8193860094       -1.4877129945    0   0   0
Mo              -0.0001232327        1.8194977435        3.0564542371
Mo               1.5756707815        0.9091925164        9.1485595730
S                0.0002718392        1.8252210515        7.5812120929
S                1.5756607553        0.9093992989        4.6233585802
S                1.5756591511        0.9099627404        1.4884487567
S                0.0089941249        1.8014809628       10.7301551665
Mo              -1.5756053507        4.5484193819       -9.1672481230    0   0   0
Mo               0.0000378379        3.6387394919       -3.0554952701    0   0   0
S               -1.5755913433        4.5484363582       -4.6232494962    0   0   0
S                0.0000148214        3.6387329039       -7.6014065489    0   0   0
S                0.0000152751        3.6387340328      -10.7330757790    0   0   0
S               -1.5755906502        4.5484413613       -1.4877305502    0   0   0
Mo              -1.5755438850        4.5484440370        3.0565788647
Mo              -0.0100441966        3.6265417497        9.1714188327
S               -1.5733001343        4.5479099140        7.5931122345
S                0.0005924840        3.6393391464        4.6239477695
S               -0.0001659569        3.6387331628        1.4884427294
S               -1.5738896515        4.5555744544       10.7373094803
Mo              -3.1512226931        7.2774749019       -9.1672481230    0   0   0
Mo              -1.5755910988        6.3678216792       -3.0555115988    0   0   0
S               -3.1512162438        7.2774954350       -4.6232578178    0   0   0
S               -1.5756025210        6.3677884239       -7.6014065489    0   0   0
S               -1.5756020673        6.3677895528      -10.7330757790    0   0   0
S               -3.1512127704        7.2774877076       -1.4877200710    0   0   0
Mo              -3.1510283484        7.2773717186        3.0560445422
Mo              -1.5933579719        6.3632302506        9.1674111176
S               -3.1497716605        7.2776240339        7.5836782597
S               -1.5750905009        6.3680961443        4.6241233295
S               -1.5754561282        6.3676534212        1.4884670298
S               -3.1722064606        7.2813693087       10.7276504214
Mo              -4.7268400355       10.0065304219       -9.1672481230    0   0   0
Mo              -3.1512405618        9.0968403586       -3.0554816746    0   0   0
S               -4.7268341792       10.0065523623       -4.6232463762    0   0   0
S               -3.1512198634        9.0968439439       -7.6014065489    0   0   0
S               -3.1512194097        9.0968450728      -10.7330757790    0   0   0
S               -4.7268370797       10.0065537885       -1.4877176751    0   0   0
Mo              -4.7268084011       10.0064616702        3.0556098093
Mo              -3.1546886960        9.0967151208        9.1551386936
S               -4.7267991808       10.0039479254        7.5824667105
S               -3.1512282118        9.0967617690        4.6232867853
S               -3.1506940882        9.0968947831        1.4884080658
S               -4.7267968548       10.0079126936       10.7214750309
Mo               3.1512517547        1.8193638619       -9.1672481230    0   0   0
Mo               4.7269020221        0.9097289540       -3.0554823951    0   0   0
S                3.1512612351        1.8193882564       -4.6232320683    0   0   0
S                4.7268719268        0.9096773839       -7.6014065489    0   0   0
S                4.7268723805        0.9096785128      -10.7330757790    0   0   0
S                3.1512592485        1.8193890201       -1.4877261251    0   0   0
Mo               3.1514449836        1.8195002243        3.0564549366
Mo               4.7104991981        0.9077302055        9.1580676318
S                3.1510679151        1.8252207523        7.5812118870
S                4.7277164088        0.9101350359        4.6244058071
S                4.7269041578        0.9094867942        1.4886911931
S                3.1423495506        1.8014816419       10.7301538501
Mo               1.5756344123        4.5484193819       -9.1672481230    0   0   0
Mo               3.1512756394        3.6387769522       -3.0554814834    0   0   0
S                1.5756504879        4.5484423799       -4.6232390542    0   0   0
S                3.1512545844        3.6387329039       -7.6014065489    0   0   0
S                3.1512550381        3.6387340328      -10.7330757790    0   0   0
S                1.5756466253        4.5484431864       -1.4877251801    0   0   0
Mo               1.5756637211        4.5487927407        3.0556984667
Mo               3.1613891470        3.6265418894        9.1714174459
S                1.5756716256        4.5774714702        7.6455781390
S                3.1507302513        3.6393367000        4.6239506718
S                3.1514870345        3.6387315694        1.4884408922
S                1.5756735655        4.4041638909       10.8097490623
Mo               0.0000170699        7.2774749019       -9.1672481230    0   0   0
Mo               1.5756764447        6.3678236689       -3.0554877708    0   0   0
S                0.0000381981        7.2774979204       -4.6232454413    0   0   0
S                1.5756372420        6.3677884239       -7.6014065489    0   0   0
S                1.5756376957        6.3677895528      -10.7330757790    0   0   0
S                0.0000328088        7.2774946042       -1.4877307940    0   0   0
Mo               0.0003285834        7.2774974483        3.0561124644
Mo               1.5756774477        6.3693106396        9.2227408091
S                0.0236226502        7.2632907410        7.6416875402
S                1.5756669433        6.3677986785        4.6239292834
S                1.5756663930        6.3679803661        1.4879365913
S               -0.1435104677        7.3402693862       10.8141768364
Mo              -1.5756002725       10.0065304219       -9.1672481230    0   0   0
Mo               0.0000873425        9.0968676911       -3.0554912329    0   0   0
S               -1.5755883952       10.0065504530       -4.6232240150    0   0   0
S                0.0000198996        9.0968439439       -7.6014065489    0   0   0
S                0.0000203533        9.0968450728      -10.7330757790    0   0   0
S               -1.5755859047       10.0065492576       -1.4877362381    0   0   0
Mo              -1.5751035701       10.0065312437        3.0568502709
Mo              -0.0173957102        9.1000705414        9.1795159567
S               -1.5753732498       10.0031657890        7.5860995146
S                0.0008813335        9.0964353755        4.6249266355
S                0.0000347142        9.0969425461        1.4886106390
S               -1.5956487829       10.0200771930       10.7308715188
Mo               6.3024915177        1.8193638619       -9.1672481230    0   0   0
Mo               7.8781001445        0.9096521684       -3.0554919963    0   0   0
S                6.3025008696        1.8193826232       -4.6232480596    0   0   0
S                7.8781116898        0.9096773839       -7.6014065489    0   0   0
S                7.8781121435        0.9096785128      -10.7330757790    0   0   0
S                6.3025042007        1.8193849068       -1.4877147524    0   0   0
Mo               6.3027483208        1.8192643140        3.0559201657
Mo               7.8781493941        0.9103406326        9.2252064598
S                6.3261216968        1.8085797527        7.6342437448
S                7.8781386702        0.9094833868        4.6238103823
S                7.8781389285        0.9094422127        1.4880509381
S                6.2080045835        1.8713667746       10.7795962355
Mo               4.7268741753        4.5484193819       -9.1672481230    0   0   0
Mo               6.3024679138        3.6387501714       -3.0554895197    0   0   0
S                4.7268748770        4.5484386753       -4.6232519432    0   0   0
S                6.3024943474        3.6387329039       -7.6014065489    0   0   0
S                6.3024948011        3.6387340328      -10.7330757790    0   0   0
S                4.7268770533        4.5484432419       -1.4877137856    0   0   0
Mo               4.7268726856        4.5484532657        3.0565792662
Mo               6.2979201778        3.6514487895        9.1683050244
S                4.7246480457        4.5479101231        7.5931108323
S                6.3023942048        3.6380376107        4.6243901918
S                6.3025187026        3.6388604770        1.4886127522
S                4.7252368495        4.5555741564       10.7373055546
Mo               3.1512568329        7.2774749019       -9.1672481230    0   0   0
Mo               4.7268384135        6.3678043337       -3.0554959052    0   0   0
S                3.1512606125        7.2774972547       -4.6232589675    0   0   0
S                4.7268770050        6.3677884239       -7.6014065489    0   0   0
S                4.7268774587        6.3677895528      -10.7330757790    0   0   0
S                3.1512629079        7.2774963749       -1.4877081835    0   0   0
Mo               3.1510052495        7.2775001280        3.0561137159
Mo               4.7447144700        6.3632306335        9.1674093134
S                3.1277304598        7.2632925591        7.6416876662
S                4.7264231550        6.3680929117        4.6241258779
S                4.7267877107        6.3676514236        1.4884689892
S                3.2948724093        7.3402730809       10.8141752674
Mo               1.5756394905       10.0065304219       -9.1672481230    0   0   0
Mo               3.1512330605        9.0968514907       -3.0554878870    0   0   0
S                1.5756499830       10.0065443759       -4.6232632674    0   0   0
S                3.1512596626        9.0968439439       -7.6014065489    0   0   0
S                3.1512601163        9.0968450728      -10.7330757790    0   0   0
S                1.5756503041       10.0065459699       -1.4877044377    0   0   0
Mo               1.5756716489       10.0064227569        3.0562907035
Mo               3.1687566235        9.1000724531        9.1795154445
S                1.5756804536       10.0254917811        7.6446218035
S                3.1504561825        9.0964359619        4.6249309899
S                3.1513036392        9.0969440218        1.4886091017
S                1.5756800819        9.8998748935       10.7890620543
Mo               9.4537312807        1.8193638619       -9.1672481230    0   0   0
Mo              11.0293863460        0.9096952246       -3.0554894007    0   0   0
S                9.4537395970        1.8193770750       -4.6232328036    0   0   0
S               11.0293514528        0.9096773839       -7.6014065489    0   0   0
S               11.0293519066        0.9096785128      -10.7330757790    0   0   0
S                9.4537393632        1.8193794783       -1.4877366147    0   0   0
Mo               9.4535285696        1.8192626631        3.0559207317
Mo              11.0458007484        0.9077278263        9.1580694009
S                9.4301794005        1.8085804944        7.6342467841
S               11.0285606011        0.9101359806        4.6244056327
S               11.0293708064        0.9094871865        1.4886922444
S                9.5482887419        1.8713625177       10.7795989678
Mo               7.8781139383        4.5484193819       -9.1672481230    0   0   0
Mo               9.4537539161        3.6387607911       -3.0554933032    0   0   0
S                7.8781175448        4.5484378232       -4.6232366318    0   0   0
S                9.4537341104        3.6387329039       -7.6014065489    0   0   0
S                9.4537345641        3.6387340328      -10.7330757790    0   0   0
S                7.8781194018        4.5484411585       -1.4877377057    0   0   0
Mo               7.8781428751        4.5480469725        3.0566449509
Mo               9.4583842207        3.6514486273        9.1683072372
S                7.8781528296        4.5470675335        7.5891417521
S                9.4538892653        3.6380396450        4.6243885872
S                9.4537629773        3.6388604844        1.4886121725
S                7.8781530907        4.5563063699       10.7283855665
Mo               6.3024965959        7.2774749019       -9.1672481230    0   0   0
Mo               7.8781361655        6.3678242352       -3.0555014130    0   0   0
S                6.3024973331        7.2774953556       -4.6232392528    0   0   0
S                7.8781167680        6.3677884239       -7.6014065489    0   0   0
S                7.8781172217        6.3677895528      -10.7330757790    0   0   0
S                6.3024989866        7.2774929744       -1.4877349119    0   0   0
Mo               6.3023598449        7.2773712202        3.0560471664
Mo               7.8781574405        6.3708521066        9.1518902265
S                6.3011305175        7.2776261831        7.5836789941
S                7.8781454046        6.3676352142        4.6235592868
S                7.8781436040        6.3674402605        1.4885256209
S                6.3235635938        7.2813689037       10.7276510542
Mo               4.7268792535       10.0065304219       -9.1672481230    0   0   0
Mo               6.3025111524        9.0968738021       -3.0554915260    0   0   0
S                4.7268840634       10.0065452125       -4.6232380477    0   0   0
S                6.3024994256        9.0968439439       -7.6014065489    0   0   0
S                6.3024998793        9.0968450728      -10.7330757790    0   0   0
S                4.7268847312       10.0065459141       -1.4877283294    0   0   0
Mo               4.7264400545       10.0065289459        3.0568520028
Mo               6.3060506742        9.0967150525        9.1551408708
S                4.7267348923       10.0031629780        7.5861014952
S                6.3025679326        9.0967617618        4.6232866723
S                6.3020312308        9.0968950486        1.4884113198
S                4.7470112281       10.0200751183       10.7308740038
Pt               1.5756813557        6.3852545749       11.9714192193
Pd               7.8781407735        0.9007978998       12.1021401029
End final coordinates



     Writing all to output data dir ./outdir/pwscf.save/ :
     XML data file, charge density, pseudopotentials, collected wavefunctions
 
     init_run     :    177.24s CPU    180.50s WALL (       1 calls)
     electrons    : 123222.41s CPU 124717.49s WALL (      17 calls)
     update_pot   :     27.10s CPU     28.08s WALL (      16 calls)
     forces       :   2242.18s CPU   2280.74s WALL (      17 calls)
     force_dftd3  :     11.43s CPU     11.95s WALL (      17 calls)

     Called by init_run:
     wfcinit      :    153.46s CPU    155.26s WALL (       1 calls)
     potinit      :      1.31s CPU      1.40s WALL (       1 calls)
     hinit0       :     12.83s CPU     12.90s WALL (       1 calls)

     Called by electrons:
     c_bands      : 109161.19s CPU 110157.95s WALL (     196 calls)
     sum_band     :  12579.05s CPU  12835.90s WALL (     196 calls)
     v_of_rho     :     70.72s CPU     79.80s WALL (     199 calls)
     newd         :   1256.03s CPU   1493.53s WALL (     199 calls)
     PAW_pot      :    191.32s CPU    193.20s WALL (     215 calls)
     mix_rho      :     17.87s CPU     20.84s WALL (     196 calls)
     energy_dftd3 :      6.66s CPU      6.70s WALL (      17 calls)

     Called by c_bands:
     init_us_2    :    425.94s CPU    427.84s WALL (    1704 calls)
     init_us_2:cp :    425.93s CPU    427.82s WALL (    1704 calls)
     cegterg      : 107327.75s CPU 108313.14s WALL (     807 calls)

     Called by *egterg:
     cdiaghg      :   5956.15s CPU   6162.07s WALL (    9553 calls)
     h_psi        :  54336.25s CPU  54663.25s WALL (    9680 calls)
     s_psi        :  12622.01s CPU  12698.04s WALL (    9680 calls)
     g_psi        :     97.36s CPU     97.72s WALL (    8869 calls)

     Called by h_psi:
     h_psi:calbec :  12480.21s CPU  12519.59s WALL (    9680 calls)
     vloc_psi     :  28967.50s CPU  29103.68s WALL (    9680 calls)
     add_vuspsi   :  12667.57s CPU  12744.90s WALL (    9680 calls)

     General routines
     calbec       :  18039.10s CPU  18096.05s WALL (   10800 calls)
     fft          :     67.97s CPU     75.92s WALL (    2770 calls)
     ffts         :      3.60s CPU      3.83s WALL (     395 calls)
     fftw         :  21880.49s CPU  21982.96s WALL ( 5700108 calls)
     interpolate  :      6.41s CPU      6.99s WALL (     199 calls)
 
     Parallel routines
 
     PWSCF        :   1d11h 5m CPU   1d11h32m WALL

 
   This run was terminated on:  18: 3:29  14Mar2024            

=------------------------------------------------------------------------------=
   JOB DONE.
=------------------------------------------------------------------------------=
