
     Program PWSCF v.7.3 starts on  8Mar2024 at 15:49:47 

     This program is part of the open-source Quantum ESPRESSO suite
     for quantum simulation of materials; please cite
         "P. Giannozzi et al., J. Phys.:Condens. Matter 21 395502 (2009);
         "P. Giannozzi et al., J. Phys.:Condens. Matter 29 465901 (2017);
         "P. Giannozzi et al., J. Chem. Phys. 152 154105 (2020);
          URL http://www.quantum-espresso.org", 
     in publications or presentations arising from this work. More details at
     http://www.quantum-espresso.org/quote

     Parallel version (MPI & OpenMP), running on      36 processor cores
     Number of MPI processes:                36
     Threads/MPI process:                     1

     MPI processes distributed on     1 nodes
     554854 MiB available memory on the printing compute node when the environment starts
 
     Waiting for input...
     Reading input from standard input
Warning: card &CELL ignored
Warning: card / ignored

     Current dimensions of program PWSCF are:
     Max number of different atomic species (ntypx) = 10
     Max number of k-points (npk) =  40000
     Max angular momentum in pseudopotentials (lmaxx) =  4
     file Mo.pbe-spn-kjpaw_psl.1.0.0.UPF: wavefunction(s)  4S 4D renormalized
     file S.pbe-n-kjpaw_psl.1.0.0.UPF: wavefunction(s)  3S 3P renormalized
     file Pt.pbe-spfn-kjpaw_psl.1.0.0.UPF: wavefunction(s)  5P 4F renormalized
     file Pd.pbe-spn-kjpaw_psl.1.0.0.UPF: wavefunction(s)  4S 5S 4D renormalized
 
     R & G space division:  proc/nbgrp/npool/nimage =      36
     Subspace diagonalization in iterative solution of the eigenvalue problem:
     one sub-group per band group will be used
     scalapack distributed-memory algorithm (size of sub-group:  6*  6 procs)

 
     Parallelization info
     --------------------
     sticks:   dense  smooth     PW     G-vecs:    dense   smooth      PW
     Min         586     335     89               165416    71459    9765
     Max         587     337     90               165425    71461    9778
     Sum       21109   12085   3205              5955087  2572543  351657
 
     Using Slab Decomposition
 


     bravais-lattice index     =            0
     lattice parameter (alat)  =      23.8395  a.u.
     unit-cell volume          =   28182.8498 (a.u.)^3
     number of atoms/cell      =          146
     number of atomic types    =            4
     number of electrons       =      1298.00
     number of Kohn-Sham states=          779
     kinetic-energy cutoff     =      77.0000  Ry
     charge density cutoff     =     539.0000  Ry
     scf convergence threshold =      1.0E-06
     mixing beta               =       0.2000
     number of iterations used =            8  plain     mixing
     energy convergence thresh.=      1.0E-04
     force convergence thresh. =      1.0E-03
     Exchange-correlation= SLA  PW   PBX  PBC
                           (   1   4   3   4   0   0   0)
     nstep                     =         1000


     Effective Screening Medium Method
     =================================
     Boundary Conditions: Vacuum-Slab-Vacuum
     total charge in unit cell        =   0.0000
     grid points for fit at edges     =        4 
 

     celldm(1)=  23.839504  celldm(2)=   0.000000  celldm(3)=   0.000000
     celldm(4)=   0.000000  celldm(5)=   0.000000  celldm(6)=   0.000000

     crystal axes: (cart. coord. in units of alat)
               a(1) = (   1.000000   0.000000   0.000000 )  
               a(2) = (  -0.500001   0.866026   0.000000 )  
               a(3) = (   0.000000   0.000000   2.401941 )  

     reciprocal axes: (cart. coord. in units 2 pi/alat)
               b(1) = (  1.000000  0.577351  0.000000 )  
               b(2) = (  0.000000  1.154700  0.000000 )  
               b(3) = (  0.000000  0.000000  0.416330 )  


     PseudoPot. # 1 for Mo read from file:
     ./pseudo/Mo.pbe-spn-kjpaw_psl.1.0.0.UPF
     MD5 check sum: 317bf72632116215fd98f72de1686f13
     Pseudo is Projector augmented-wave + core cor, Zval = 14.0
     Generated using 'atomic' code by A. Dal Corso  v.7.2
     Shape of augmentation charge: PSQ
     Using radial grid of 1229 points,  6 beta functions with: 
                l(1) =   0
                l(2) =   0
                l(3) =   1
                l(4) =   1
                l(5) =   2
                l(6) =   2
     Q(r) pseudized with 0 coefficients 


     PseudoPot. # 2 for S  read from file:
     ./pseudo/S.pbe-n-kjpaw_psl.1.0.0.UPF
     MD5 check sum: 8b7b5302570d38d5e87fed6a1065abda
     Pseudo is Projector augmented-wave + core cor, Zval =  6.0
     Generated using 'atomic' code by A. Dal Corso  v.7.2
     Shape of augmentation charge: PSQ
     Using radial grid of 1151 points,  6 beta functions with: 
                l(1) =   0
                l(2) =   0
                l(3) =   1
                l(4) =   1
                l(5) =   2
                l(6) =   2
     Q(r) pseudized with 0 coefficients 


     PseudoPot. # 3 for Pt read from file:
     ./pseudo/Pt.pbe-spfn-kjpaw_psl.1.0.0.UPF
     MD5 check sum: 620096ebf4e6ebacc94de60fd67efcb5
     Pseudo is Projector augmented-wave + core cor, Zval = 32.0
     Generated using 'atomic' code by A. Dal Corso  v.7.2
     Shape of augmentation charge: PSQ
     Using radial grid of 1277 points,  8 beta functions with: 
                l(1) =   0
                l(2) =   0
                l(3) =   1
                l(4) =   1
                l(5) =   2
                l(6) =   2
                l(7) =   3
                l(8) =   3
     Q(r) pseudized with 0 coefficients 


     PseudoPot. # 4 for Pd read from file:
     ./pseudo/Pd.pbe-spn-kjpaw_psl.1.0.0.UPF
     MD5 check sum: a60571a671f2502b8a6a4569d20a6edb
     Pseudo is Projector augmented-wave + core cor, Zval = 18.0
     Generated using 'atomic' code by A. Dal Corso  v.7.2
     Shape of augmentation charge: PSQ
     Using radial grid of 1235 points,  6 beta functions with: 
                l(1) =   0
                l(2) =   0
                l(3) =   1
                l(4) =   1
                l(5) =   2
                l(6) =   2
     Q(r) pseudized with 0 coefficients 


     atomic species   valence    mass     pseudopotential
     Mo               14.00    95.95000     Mo( 1.00)
     S                 6.00    32.06000     S ( 1.00)
     Pt               32.00   195.08400     Pt( 1.00)
     Pd               18.00   106.42000     Pd( 1.00)

     No symmetry found



   Cartesian axes

     site n.     atom                  positions (alat units)
         1        Mo     tau(   1) = (   0.1245066   0.2151403   0.4829270  )
         2        Mo     tau(   2) = (   0.1250004   0.0721694  -0.4825273  )
         3        Mo     tau(   3) = (   0.0000143   0.1443586  -0.0000404  )
         4        S      tau(   4) = (   0.0000004   0.0000006  -0.6064556  )
         5        S      tau(   5) = (   0.1249859   0.0722111  -0.1241825  )
         6        S      tau(   6) = (   0.0002990   0.1445714   0.3572522  )
         7        S      tau(   7) = (   0.0000004   0.0000005  -0.3584711  )
         8        S      tau(   8) = (   0.1250243   0.0721377   0.1241202  )
         9        S      tau(   9) = (  -0.0011552   0.1430195   0.6061730  )
        10        Mo     tau(  10) = (  -0.0014303   0.4332690   0.4829269  )
        11        Mo     tau(  11) = (   0.0000001   0.2886759  -0.4825273  )
        12        Mo     tau(  12) = (  -0.1249759   0.3608474  -0.0000404  )
        13        S      tau(  13) = (  -0.1249999   0.2165071  -0.6064556  )
        14        S      tau(  14) = (   0.0000250   0.2886908  -0.1241273  )
        15        S      tau(  15) = (  -0.1246483   0.3609863   0.3572522  )
        16        S      tau(  16) = (  -0.1249998   0.2165070  -0.3584711  )
        17        S      tau(  17) = (   0.0000923   0.2887297   0.1242244  )
        18        S      tau(  18) = (  -0.1267194   0.3605027   0.6061730  )
        19        Mo     tau(  19) = (  -0.1251617   0.6496109   0.4820319  )
        20        Mo     tau(  20) = (  -0.1250002   0.5051824  -0.4825273  )
        21        Mo     tau(  21) = (  -0.2500022   0.5773395  -0.0001503  )
        22        S      tau(  22) = (  -0.2500002   0.4330136  -0.6064556  )
        23        S      tau(  23) = (  -0.1249718   0.5051500  -0.1241823  )
        24        S      tau(  24) = (  -0.2500018   0.5776353   0.3574746  )
        25        S      tau(  25) = (  -0.2500001   0.4330135  -0.3584711  )
        26        S      tau(  26) = (  -0.1250162   0.5052198   0.1241203  )
        27        S      tau(  27) = (  -0.2500018   0.5771316   0.6060170  )
        28        Mo     tau(  28) = (   0.2499988  -0.0001852   0.4820322  )
        29        Mo     tau(  29) = (  -0.2500004   0.7216889  -0.4825273  )
        30        Mo     tau(  30) = (  -0.3750121   0.7938628  -0.0001504  )
        31        S      tau(  31) = (  -0.3750004   0.6495201  -0.6064556  )
        32        S      tau(  32) = (  -0.2500022   0.7216884  -0.1242395  )
        33        S      tau(  33) = (  -0.3747547   0.7937137   0.3574746  )
        34        S      tau(  34) = (  -0.3750004   0.6495200  -0.3584711  )
        35        S      tau(  35) = (  -0.2500023   0.7216883   0.1240244  )
        36        S      tau(  36) = (  -0.3751912   0.7939655   0.6060169  )
        37        Mo     tau(  37) = (   0.3754907   0.2151405   0.4829271  )
        38        Mo     tau(  38) = (   0.3750004   0.0721694  -0.4825273  )
        39        Mo     tau(  39) = (   0.2499984   0.1443573  -0.0000731  )
        40        S      tau(  40) = (   0.2500004   0.0000006  -0.6064556  )
        41        S      tau(  41) = (   0.3750112   0.0722112  -0.1241824  )
        42        S      tau(  42) = (   0.2499987   0.1444686   0.3583292  )
        43        S      tau(  43) = (   0.2500004   0.0000005  -0.3584711  )
        44        S      tau(  44) = (   0.3749727   0.0721378   0.1241202  )
        45        S      tau(  45) = (   0.2499989   0.1436262   0.6067914  )
        46        Mo     tau(  46) = (   0.2499982   0.4330120   0.4873213  )
        47        Mo     tau(  47) = (   0.2500001   0.2886759  -0.4825273  )
        48        Mo     tau(  48) = (   0.1250313   0.3608632  -0.0000369  )
        49        S      tau(  49) = (   0.1250001   0.2165071  -0.6064556  )
        50        S      tau(  50) = (   0.2499984   0.2886902  -0.1241509  )
        51        S      tau(  51) = (   0.1269276   0.3619573   0.3622727  )
        52        S      tau(  52) = (   0.1250002   0.2165070  -0.3584711  )
        53        S      tau(  53) = (   0.2499983   0.2886817   0.1242427  )
        54        S      tau(  54) = (   0.1143670   0.3547054   0.6129634  )
        55        Mo     tau(  55) = (   0.1240620   0.6506275   0.4829270  )
        56        Mo     tau(  56) = (   0.1249998   0.5051824  -0.4825273  )
        57        Mo     tau(  57) = (   0.0000150   0.5773409  -0.0000731  )
        58        S      tau(  58) = (  -0.0000002   0.4330136  -0.6064556  )
        59        S      tau(  59) = (   0.1250108   0.5051746  -0.1241509  )
        60        S      tau(  60) = (   0.0001121   0.5772840   0.3583290  )
        61        S      tau(  61) = (  -0.0000001   0.4330135  -0.3584711  )
        62        S      tau(  62) = (   0.1250034   0.5051788   0.1242428  )
        63        S      tau(  63) = (  -0.0006172   0.5777056   0.6067911  )
        64        Mo     tau(  64) = (   0.5000733   0.0000423   0.4811256  )
        65        Mo     tau(  65) = (  -0.0000004   0.7216889  -0.4825273  )
        66        Mo     tau(  66) = (  -0.1249927   0.7938628  -0.0001503  )
        67        S      tau(  67) = (  -0.1250004   0.6495201  -0.6064556  )
        68        S      tau(  68) = (   0.0000406   0.7216783  -0.1241824  )
        69        S      tau(  69) = (  -0.1252496   0.7937135   0.3574746  )
        70        S      tau(  70) = (  -0.1250004   0.6495200  -0.3584711  )
        71        S      tau(  71) = (  -0.0000422   0.7216817   0.1241204  )
        72        S      tau(  72) = (  -0.1248129   0.7939655   0.6060170  )
        73        Mo     tau(  73) = (   0.6251034   0.2164454   0.4813717  )
        74        Mo     tau(  74) = (   0.6250004   0.0721694  -0.4825273  )
        75        Mo     tau(  75) = (   0.4999826   0.1443587  -0.0000403  )
        76        S      tau(  76) = (   0.5000004   0.0000006  -0.6064556  )
        77        S      tau(  77) = (   0.6249765   0.0721563  -0.1241436  )
        78        S      tau(  78) = (   0.4996985   0.1445712   0.3572516  )
        79        S      tau(  79) = (   0.5000004   0.0000005  -0.3584711  )
        80        S      tau(  80) = (   0.6250052   0.0721729   0.1241442  )
        81        S      tau(  81) = (   0.5011529   0.1430194   0.6061729  )
        82        Mo     tau(  82) = (   0.5014272   0.4332689   0.4829269  )
        83        Mo     tau(  83) = (   0.5000001   0.2886759  -0.4825273  )
        84        Mo     tau(  84) = (   0.3749652   0.3608633  -0.0000370  )
        85        S      tau(  85) = (   0.3750001   0.2165071  -0.6064556  )
        86        S      tau(  86) = (   0.4999715   0.2886908  -0.1241272  )
        87        S      tau(  87) = (   0.3730698   0.3619571   0.3622724  )
        88        S      tau(  88) = (   0.3750002   0.2165070  -0.3584711  )
        89        S      tau(  89) = (   0.4999043   0.2887298   0.1242243  )
        90        S      tau(  90) = (   0.3856284   0.3547066   0.6129638  )
        91        Mo     tau(  91) = (   0.3759345   0.6506277   0.4829270  )
        92        Mo     tau(  92) = (   0.3749998   0.5051824  -0.4825273  )
        93        Mo     tau(  93) = (   0.2499980   0.5773127  -0.0000370  )
        94        S      tau(  94) = (   0.2499998   0.4330136  -0.6064556  )
        95        S      tau(  95) = (   0.3749852   0.5051745  -0.1241508  )
        96        S      tau(  96) = (   0.2499983   0.5751230   0.3622722  )
        97        S      tau(  97) = (   0.2499999   0.4330135  -0.3584711  )
        98        S      tau(  98) = (   0.3749925   0.5051788   0.1242430  )
        99        S      tau(  99) = (   0.2499985   0.5896211   0.6129642  )
       100        Mo     tau( 100) = (   0.7499990   0.0001203   0.4813716  )
       101        Mo     tau( 101) = (   0.2499996   0.7216889  -0.4825273  )
       102        Mo     tau( 102) = (   0.1250080   0.7938333  -0.0000403  )
       103        S      tau( 103) = (   0.1249996   0.6495201  -0.6064556  )
       104        S      tau( 104) = (   0.2499977   0.7216576  -0.1241273  )
       105        S      tau( 105) = (   0.1250507   0.7934796   0.3572514  )
       106        S      tau( 106) = (   0.1249996   0.6495200  -0.3584711  )
       107        S      tau( 107) = (   0.2499978   0.7215798   0.1242243  )
       108        S      tau( 108) = (   0.1244341   0.7955149   0.6061727  )
       109        Mo     tau( 109) = (  -0.1251058   0.2164455   0.4813720  )
       110        Mo     tau( 110) = (   0.8750004   0.0721694  -0.4825273  )
       111        Mo     tau( 111) = (   0.7499984   0.1443377  -0.0000951  )
       112        S      tau( 112) = (   0.7500004   0.0000006  -0.6064556  )
       113        S      tau( 113) = (   0.8750204   0.0721563  -0.1241436  )
       114        S      tau( 114) = (   0.7499989   0.1443372   0.3571897  )
       115        S      tau( 115) = (   0.7500004   0.0000005  -0.3584711  )
       116        S      tau( 116) = (   0.8749917   0.0721728   0.1241442  )
       117        S      tau( 117) = (   0.7499986   0.1443371   0.6056765  )
       118        Mo     tau( 118) = (  -0.2500015   0.4329261   0.4811261  )
       119        Mo     tau( 119) = (   0.7500001   0.2886759  -0.4825273  )
       120        Mo     tau( 120) = (   0.6249722   0.3608476  -0.0000403  )
       121        S      tau( 121) = (   0.6250001   0.2165071  -0.6064556  )
       122        S      tau( 122) = (   0.7499981   0.2887008  -0.1241435  )
       123        S      tau( 123) = (   0.6246456   0.3609863   0.3572519  )
       124        S      tau( 124) = (   0.6250002   0.2165070  -0.3584711  )
       125        S      tau( 125) = (   0.7499982   0.2886677   0.1241441  )
       126        S      tau( 126) = (   0.6267164   0.3605023   0.6061731  )
       127        Mo     tau( 127) = (  -0.3748420   0.6496111   0.4820319  )
       128        Mo     tau( 128) = (   0.6249998   0.5051824  -0.4825273  )
       129        Mo     tau( 129) = (   0.4999808   0.5773409  -0.0000733  )
       130        S      tau( 130) = (   0.4999998   0.4330136  -0.6064556  )
       131        S      tau( 131) = (   0.6249676   0.5051499  -0.1241823  )
       132        S      tau( 132) = (   0.4998845   0.5772841   0.3583289  )
       133        S      tau( 133) = (   0.4999999   0.4330135  -0.3584711  )
       134        S      tau( 134) = (   0.6250119   0.5052197   0.1241202  )
       135        S      tau( 135) = (   0.5006138   0.5777054   0.6067911  )
       136        Mo     tau( 136) = (  -0.0000756   0.0000425   0.4811258  )
       137        Mo     tau( 137) = (   0.4999996   0.7216889  -0.4825273  )
       138        Mo     tau( 138) = (   0.3749875   0.7938333  -0.0000404  )
       139        S      tau( 139) = (   0.3749996   0.6495201  -0.6064556  )
       140        S      tau( 140) = (   0.4999549   0.7216781  -0.1241825  )
       141        S      tau( 141) = (   0.3749453   0.7934797   0.3572516  )
       142        S      tau( 142) = (   0.3749996   0.6495200  -0.3584711  )
       143        S      tau( 143) = (   0.5000375   0.7216816   0.1241203  )
       144        S      tau( 144) = (   0.3755618   0.7955149   0.6061729  )
       145        Pt     tau( 145) = (   0.2499972   0.4330095   0.7045710  )
       146        Pd     tau( 146) = (   0.2500134   0.4330448   0.9027118  )

     --------------------------------------------
     DFT-D3 Dispersion Correction (3-body terms):
     --------------------------------------------
       Reference C6 values for interpolation: 

         atom   Coordination number   C6
         S          0.000           268.01
         S          0.995           261.99
         S          1.990           251.62
         Mo         0.000          1691.79
         Mo         1.942          1004.01
         Mo        11.056           674.22
         Pd         0.000          1217.01
         Pd         1.863           573.90
         Pd         5.710           531.75
         Pt         0.000           782.29
         Pt         1.919           692.72
         Pt         6.667           673.75

       Values used:

         atom   Coordination number  R0_AB[au]  C6      C8
         Mo        10.173            3.547    674.22  77634.20
         Mo        10.189            3.547    674.22  77634.20
         Mo        10.200            3.547    674.22  77634.20
         S          3.753            3.128    251.62  12327.25
         S          3.858            3.128    251.62  12327.25
         S          3.845            3.128    251.62  12327.25
         S          3.859            3.128    251.62  12327.25
         S          3.860            3.128    251.62  12327.25
         S          3.821            3.128    251.62  12327.25
         Mo        10.173            3.547    674.22  77634.20
         Mo        10.189            3.547    674.22  77634.20
         Mo        10.200            3.547    674.22  77634.20
         S          3.753            3.128    251.62  12327.25
         S          3.859            3.128    251.62  12327.25
         S          3.845            3.128    251.62  12327.25
         S          3.858            3.128    251.62  12327.25
         S          3.855            3.128    251.62  12327.25
         S          3.821            3.128    251.62  12327.25
         Mo        10.217            3.547    674.22  77634.20
         Mo        10.189            3.547    674.22  77634.20
         Mo        10.200            3.547    674.22  77634.20
         S          3.753            3.128    251.62  12327.25
         S          3.858            3.128    251.62  12327.25
         S          3.861            3.128    251.62  12327.25
         S          3.859            3.128    251.62  12327.25
         S          3.860            3.128    251.62  12327.25
         S          3.762            3.128    251.62  12327.25
         Mo        10.217            3.547    674.22  77634.20
         Mo        10.189            3.547    674.22  77634.20
         Mo        10.200            3.547    674.22  77634.20
         S          3.753            3.128    251.62  12327.25
         S          3.858            3.128    251.62  12327.25
         S          3.861            3.128    251.62  12327.25
         S          3.859            3.128    251.62  12327.25
         S          3.863            3.128    251.62  12327.25
         S          3.762            3.128    251.62  12327.25
         Mo        10.173            3.547    674.22  77634.20
         Mo        10.189            3.547    674.22  77634.20
         Mo        10.201            3.547    674.22  77634.20
         S          3.753            3.128    251.62  12327.25
         S          3.858            3.128    251.62  12327.25
         S          3.858            3.128    251.62  12327.25
         S          3.859            3.128    251.62  12327.25
         S          3.860            3.128    251.62  12327.25
         S          3.752            3.128    251.62  12327.25
         Mo        10.889            3.547    674.22  77634.20
         Mo        10.189            3.547    674.22  77634.20
         Mo        10.203            3.547    674.22  77634.20
         S          3.753            3.128    251.62  12327.25
         S          3.859            3.128    251.62  12327.25
         S          3.864            3.128    251.62  12327.25
         S          3.859            3.128    251.62  12327.25
         S          3.851            3.128    251.62  12327.25
         S          4.658            3.128    251.62  12327.25
         Mo        10.173            3.547    674.22  77634.20
         Mo        10.189            3.547    674.22  77634.20
         Mo        10.201            3.547    674.22  77634.20
         S          3.753            3.128    251.62  12327.25
         S          3.859            3.128    251.62  12327.25
         S          3.858            3.128    251.62  12327.25
         S          3.859            3.128    251.62  12327.25
         S          3.851            3.128    251.62  12327.25
         S          3.752            3.128    251.62  12327.25
         Mo        10.230            3.547    674.22  77634.20
         Mo        10.189            3.547    674.22  77634.20
         Mo        10.200            3.547    674.22  77634.20
         S          3.753            3.128    251.62  12327.25
         S          3.858            3.128    251.62  12327.25
         S          3.861            3.128    251.62  12327.25
         S          3.859            3.128    251.62  12327.25
         S          3.860            3.128    251.62  12327.25
         S          3.762            3.128    251.62  12327.25
         Mo        10.215            3.547    674.22  77634.20
         Mo        10.189            3.547    674.22  77634.20
         Mo        10.200            3.547    674.22  77634.20
         S          3.753            3.128    251.62  12327.25
         S          3.858            3.128    251.62  12327.25
         S          3.845            3.128    251.62  12327.25
         S          3.859            3.128    251.62  12327.25
         S          3.860            3.128    251.62  12327.25
         S          3.821            3.128    251.62  12327.25
         Mo        10.173            3.547    674.22  77634.20
         Mo        10.189            3.547    674.22  77634.20
         Mo        10.203            3.547    674.22  77634.20
         S          3.753            3.128    251.62  12327.25
         S          3.859            3.128    251.62  12327.25
         S          3.864            3.128    251.62  12327.25
         S          3.859            3.128    251.62  12327.25
         S          3.855            3.128    251.62  12327.25
         S          4.658            3.128    251.62  12327.25
         Mo        10.173            3.547    674.22  77634.20
         Mo        10.189            3.547    674.22  77634.20
         Mo        10.203            3.547    674.22  77634.20
         S          3.753            3.128    251.62  12327.25
         S          3.859            3.128    251.62  12327.25
         S          3.864            3.128    251.62  12327.25
         S          3.859            3.128    251.62  12327.25
         S          3.851            3.128    251.62  12327.25
         S          4.658            3.128    251.62  12327.25
         Mo        10.215            3.547    674.22  77634.20
         Mo        10.189            3.547    674.22  77634.20
         Mo        10.200            3.547    674.22  77634.20
         S          3.753            3.128    251.62  12327.25
         S          3.859            3.128    251.62  12327.25
         S          3.845            3.128    251.62  12327.25
         S          3.859            3.128    251.62  12327.25
         S          3.855            3.128    251.62  12327.25
         S          3.821            3.128    251.62  12327.25
         Mo        10.215            3.547    674.22  77634.20
         Mo        10.189            3.547    674.22  77634.20
         Mo        10.200            3.547    674.22  77634.20
         S          3.753            3.128    251.62  12327.25
         S          3.858            3.128    251.62  12327.25
         S          3.853            3.128    251.62  12327.25
         S          3.858            3.128    251.62  12327.25
         S          3.860            3.128    251.62  12327.25
         S          3.785            3.128    251.62  12327.25
         Mo        10.230            3.547    674.22  77634.20
         Mo        10.189            3.547    674.22  77634.20
         Mo        10.200            3.547    674.22  77634.20
         S          3.753            3.128    251.62  12327.25
         S          3.858            3.128    251.62  12327.25
         S          3.845            3.128    251.62  12327.25
         S          3.858            3.128    251.62  12327.25
         S          3.860            3.128    251.62  12327.25
         S          3.821            3.128    251.62  12327.25
         Mo        10.217            3.547    674.22  77634.20
         Mo        10.189            3.547    674.22  77634.20
         Mo        10.201            3.547    674.22  77634.20
         S          3.753            3.128    251.62  12327.25
         S          3.858            3.128    251.62  12327.25
         S          3.858            3.128    251.62  12327.25
         S          3.859            3.128    251.62  12327.25
         S          3.860            3.128    251.62  12327.25
         S          3.752            3.128    251.62  12327.25
         Mo        10.230            3.547    674.22  77634.20
         Mo        10.189            3.547    674.22  77634.20
         Mo        10.200            3.547    674.22  77634.20
         S          3.753            3.128    251.62  12327.25
         S          3.858            3.128    251.62  12327.25
         S          3.845            3.128    251.62  12327.25
         S          3.859            3.128    251.62  12327.25
         S          3.860            3.128    251.62  12327.25
         S          3.821            3.128    251.62  12327.25
         Pt         4.967            3.168    673.75  70061.90
         Pd         0.969            3.168    774.87  70996.69

         Molecular C6 ( Ry / a.u.^6 ) =   7955887.32


     number of k points=     4  Gaussian smearing, width (Ry)=  0.0100
                       cart. coord. in units 2pi/alat
        k(    1) = (   0.0000000   0.0000000   0.0000000), wk =   0.5000000
        k(    2) = (   0.0000000  -0.5773499   0.0000000), wk =   0.5000000
        k(    3) = (  -0.5000000  -0.2886755   0.0000000), wk =   0.5000000
        k(    4) = (  -0.5000000  -0.8660254   0.0000000), wk =   0.5000000

     Dense  grid:  5955087 G-vectors     FFT dimensions: ( 180, 180, 432)

     Smooth grid:  2572543 G-vectors     FFT dimensions: ( 135, 135, 320)

     Estimated max dynamical RAM per process >       3.07 GB

     Estimated total dynamical RAM >     110.53 GB

     Initial potential from superposition of free atoms

     starting charge    1297.9541, renormalised to    1298.0000

     negative rho (up, down):  8.107E-04 0.000E+00
     Starting wfcs are  891 randomized atomic wfcs
     Checking if some PAW data can be deallocated... 

     total cpu time spent up to now is       98.8 secs

     Self-consistent Calculation

     iteration #  1     ecut=    77.00 Ry     beta= 0.20
     Davidson diagonalization with overlap
     ethr =  1.00E-02,  avg # of iterations =  2.0

     Threshold (ethr) on eigenvalues was too large:
     Diagonalizing with lowered threshold

     Davidson diagonalization with overlap
     ethr =  1.83E-04,  avg # of iterations = 14.2

     negative rho (up, down):  2.713E-04 0.000E+00

     total cpu time spent up to now is     1095.9 secs

     total energy              =  -26031.68697543 Ry
     estimated scf accuracy    <       5.07117215 Ry

     iteration #  2     ecut=    77.00 Ry     beta= 0.20
     Davidson diagonalization with overlap
     ethr =  3.91E-04,  avg # of iterations =  8.0

     negative rho (up, down):  5.853E-05 0.000E+00

     total cpu time spent up to now is     1326.6 secs

     total energy              =  -26030.84544991 Ry
     estimated scf accuracy    <       2.58876547 Ry

     iteration #  3     ecut=    77.00 Ry     beta= 0.20
     Davidson diagonalization with overlap
     ethr =  1.99E-04,  avg # of iterations =  9.2

     negative rho (up, down):  3.322E-05 0.000E+00

     total cpu time spent up to now is     1570.4 secs

     total energy              =  -26030.66947262 Ry
     estimated scf accuracy    <       1.94894782 Ry

     iteration #  4     ecut=    77.00 Ry     beta= 0.20
     Davidson diagonalization with overlap
     ethr =  1.50E-04,  avg # of iterations = 10.2

     negative rho (up, down):  4.209E-05 0.000E+00

     total cpu time spent up to now is     1815.0 secs

     total energy              =  -26029.97338401 Ry
     estimated scf accuracy    <      63.50172822 Ry

     iteration #  5     ecut=    77.00 Ry     beta= 0.20
     Davidson diagonalization with overlap
     ethr =  1.50E-04,  avg # of iterations =  8.5

     negative rho (up, down):  3.403E-05 0.000E+00

     total cpu time spent up to now is     2047.4 secs

     total energy              =  -26031.09974371 Ry
     estimated scf accuracy    <       0.51070330 Ry

     iteration #  6     ecut=    77.00 Ry     beta= 0.20
     Davidson diagonalization with overlap
     c_bands:  1 eigenvalues not converged
     ethr =  3.93E-05,  avg # of iterations = 17.8

     negative rho (up, down):  4.303E-05 0.000E+00

     total cpu time spent up to now is     2731.5 secs

     total energy              =  -26031.63599342 Ry
     estimated scf accuracy    <       0.40905956 Ry

     iteration #  7     ecut=    77.00 Ry     beta= 0.20
     Davidson diagonalization with overlap
     ethr =  3.15E-05,  avg # of iterations =  3.0

     negative rho (up, down):  6.370E-05 0.000E+00

     total cpu time spent up to now is     2948.8 secs

     total energy              =  -26031.63038158 Ry
     estimated scf accuracy    <       0.28869469 Ry

     iteration #  8     ecut=    77.00 Ry     beta= 0.20
     Davidson diagonalization with overlap
     c_bands:  3 eigenvalues not converged
     ethr =  2.22E-05,  avg # of iterations =  7.2

     negative rho (up, down):  3.688E-04 0.000E+00

     total cpu time spent up to now is     3179.2 secs

     total energy              =  -26031.58239076 Ry
     estimated scf accuracy    <       0.28596238 Ry

     iteration #  9     ecut=    77.00 Ry     beta= 0.20
     Davidson diagonalization with overlap
     ethr =  2.20E-05,  avg # of iterations = 13.8

     negative rho (up, down):  3.054E-04 0.000E+00

     total cpu time spent up to now is     3584.3 secs

     total energy              =  -26031.68074188 Ry
     estimated scf accuracy    <       0.22279439 Ry

     iteration # 10     ecut=    77.00 Ry     beta= 0.20
     Davidson diagonalization with overlap
     ethr =  1.72E-05,  avg # of iterations =  5.0

     negative rho (up, down):  2.380E-04 0.000E+00

     total cpu time spent up to now is     3800.5 secs

     total energy              =  -26031.66188995 Ry
     estimated scf accuracy    <       0.10657520 Ry

     iteration # 11     ecut=    77.00 Ry     beta= 0.20
     Davidson diagonalization with overlap
     c_bands:  3 eigenvalues not converged
     ethr =  8.21E-06,  avg # of iterations = 29.5

     negative rho (up, down):  2.386E-04 0.000E+00

     total cpu time spent up to now is     4284.2 secs

     total energy              =  -26031.67991122 Ry
     estimated scf accuracy    <       0.04067727 Ry

     iteration # 12     ecut=    77.00 Ry     beta= 0.20
     Davidson diagonalization with overlap
     c_bands:  3 eigenvalues not converged
     c_bands:  4 eigenvalues not converged
     c_bands:  1 eigenvalues not converged
     c_bands:  3 eigenvalues not converged
     ethr =  3.13E-06,  avg # of iterations = 25.0

     negative rho (up, down):  2.679E-04 0.000E+00

     total cpu time spent up to now is     4929.5 secs

     total energy              =  -26031.71486413 Ry
     estimated scf accuracy    <       0.04507428 Ry

     iteration # 13     ecut=    77.00 Ry     beta= 0.20
     Davidson diagonalization with overlap
     c_bands:  1 eigenvalues not converged
     c_bands:  3 eigenvalues not converged
     ethr =  3.13E-06,  avg # of iterations = 11.2

     negative rho (up, down):  7.062E-04 0.000E+00

     total cpu time spent up to now is     5163.9 secs

     total energy              =  -26031.69729909 Ry
     estimated scf accuracy    <       0.03529292 Ry

     iteration # 14     ecut=    77.00 Ry     beta= 0.20
     Davidson diagonalization with overlap
     c_bands:  4 eigenvalues not converged
     c_bands:  5 eigenvalues not converged
     c_bands:  1 eigenvalues not converged
     ethr =  2.72E-06,  avg # of iterations = 22.2

     negative rho (up, down):  7.915E-04 0.000E+00

     total cpu time spent up to now is     5642.3 secs

     total energy              =  -26031.71698010 Ry
     estimated scf accuracy    <       0.03168316 Ry

     iteration # 15     ecut=    77.00 Ry     beta= 0.20
     Davidson diagonalization with overlap
     c_bands:  4 eigenvalues not converged
     c_bands:  4 eigenvalues not converged
     ethr =  2.44E-06,  avg # of iterations = 13.0

     negative rho (up, down):  7.280E-04 0.000E+00

     total cpu time spent up to now is     5881.6 secs

     total energy              =  -26031.70576827 Ry
     estimated scf accuracy    <       0.01882107 Ry

     iteration # 16     ecut=    77.00 Ry     beta= 0.20
     Davidson diagonalization with overlap
     c_bands:  3 eigenvalues not converged
     c_bands:  2 eigenvalues not converged
     c_bands:  2 eigenvalues not converged
     ethr =  1.45E-06,  avg # of iterations = 21.8

     negative rho (up, down):  7.562E-04 0.000E+00

     total cpu time spent up to now is     6196.3 secs

     total energy              =  -26031.70731083 Ry
     estimated scf accuracy    <       0.00213733 Ry

     iteration # 17     ecut=    77.00 Ry     beta= 0.20
     Davidson diagonalization with overlap
     c_bands:  3 eigenvalues not converged
     c_bands:  3 eigenvalues not converged
     ethr =  1.65E-07,  avg # of iterations = 29.8

     negative rho (up, down):  7.186E-04 0.000E+00

     total cpu time spent up to now is     6966.8 secs

     total energy              =  -26031.71095648 Ry
     estimated scf accuracy    <       0.00037531 Ry

     iteration # 18     ecut=    77.00 Ry     beta= 0.20
     Davidson diagonalization with overlap
     c_bands:  1 eigenvalues not converged
     c_bands:  4 eigenvalues not converged
     ethr =  2.89E-08,  avg # of iterations = 17.5

     negative rho (up, down):  7.516E-04 0.000E+00

     total cpu time spent up to now is     7519.2 secs

     total energy              =  -26031.71141767 Ry
     estimated scf accuracy    <       0.00027730 Ry

     iteration # 19     ecut=    77.00 Ry     beta= 0.20
     Davidson diagonalization with overlap
     ethr =  2.14E-08,  avg # of iterations = 10.8

     negative rho (up, down):  7.663E-04 0.000E+00

     total cpu time spent up to now is     7764.0 secs

     total energy              =  -26031.71148428 Ry
     estimated scf accuracy    <       0.00026262 Ry

     iteration # 20     ecut=    77.00 Ry     beta= 0.20
     Davidson diagonalization with overlap
     ethr =  2.02E-08,  avg # of iterations =  8.5

     negative rho (up, down):  7.849E-04 0.000E+00

     total cpu time spent up to now is     8028.3 secs

     total energy              =  -26031.71136894 Ry
     estimated scf accuracy    <       0.00041619 Ry

     iteration # 21     ecut=    77.00 Ry     beta= 0.20
     Davidson diagonalization with overlap
     ethr =  2.02E-08,  avg # of iterations =  5.2

     negative rho (up, down):  7.956E-04 0.000E+00

     total cpu time spent up to now is     8250.4 secs

     total energy              =  -26031.71132922 Ry
     estimated scf accuracy    <       0.00012875 Ry

     iteration # 22     ecut=    77.00 Ry     beta= 0.20
     Davidson diagonalization with overlap
     ethr =  9.92E-09,  avg # of iterations = 11.2

     negative rho (up, down):  7.912E-04 0.000E+00

     total cpu time spent up to now is     8601.8 secs

     total energy              =  -26031.71140254 Ry
     estimated scf accuracy    <       0.00001200 Ry

     iteration # 23     ecut=    77.00 Ry     beta= 0.20
     Davidson diagonalization with overlap
     c_bands:  5 eigenvalues not converged
     c_bands:  5 eigenvalues not converged
     ethr =  9.25E-10,  avg # of iterations = 24.8

     negative rho (up, down):  7.913E-04 0.000E+00

     total cpu time spent up to now is     9450.8 secs

     total energy              =  -26031.71144180 Ry
     estimated scf accuracy    <       0.00001136 Ry

     iteration # 24     ecut=    77.00 Ry     beta= 0.20
     Davidson diagonalization with overlap
     c_bands:  4 eigenvalues not converged
     ethr =  8.75E-10,  avg # of iterations = 12.8

     negative rho (up, down):  7.913E-04 0.000E+00

     total cpu time spent up to now is     9735.5 secs

     total energy              =  -26031.71144176 Ry
     estimated scf accuracy    <       0.00001422 Ry

     iteration # 25     ecut=    77.00 Ry     beta= 0.20
     Davidson diagonalization with overlap
     c_bands:  3 eigenvalues not converged
     ethr =  8.75E-10,  avg # of iterations =  5.8

     negative rho (up, down):  7.928E-04 0.000E+00

     total cpu time spent up to now is     9945.5 secs

     total energy              =  -26031.71143895 Ry
     estimated scf accuracy    <       0.00001316 Ry

     iteration # 26     ecut=    77.00 Ry     beta= 0.20
     Davidson diagonalization with overlap
     c_bands:  2 eigenvalues not converged
     ethr =  8.75E-10,  avg # of iterations =  5.8

     negative rho (up, down):  8.009E-04 0.000E+00

     total cpu time spent up to now is    10158.0 secs

     total energy              =  -26031.71143030 Ry
     estimated scf accuracy    <       0.00000938 Ry

     iteration # 27     ecut=    77.00 Ry     beta= 0.20
     Davidson diagonalization with overlap
     c_bands:  3 eigenvalues not converged
     ethr =  7.23E-10,  avg # of iterations = 10.8

     negative rho (up, down):  8.025E-04 0.000E+00

     total cpu time spent up to now is    10494.8 secs

     total energy              =  -26031.71143329 Ry
     estimated scf accuracy    <       0.00000166 Ry

     iteration # 28     ecut=    77.00 Ry     beta= 0.20
     Davidson diagonalization with overlap
     ethr =  1.28E-10,  avg # of iterations = 18.5

     negative rho (up, down):  8.038E-04 0.000E+00

     total cpu time spent up to now is    10985.4 secs

     total energy              =  -26031.71143400 Ry
     estimated scf accuracy    <       0.00000185 Ry

     iteration # 29     ecut=    77.00 Ry     beta= 0.20
     Davidson diagonalization with overlap
     ethr =  1.28E-10,  avg # of iterations =  1.0

     negative rho (up, down):  8.060E-04 0.000E+00

     total cpu time spent up to now is    11180.4 secs

     End of self-consistent calculation

          k = 0.0000 0.0000 0.0000 (321495 PWs)   bands (ev):

  -103.0544 -87.3230 -71.3915 -71.3733 -71.3733 -71.3450 -71.3450 -71.3316
   -71.3212 -66.5961 -66.5750 -66.5750 -66.5750 -66.5750 -66.5750 -66.5750
   -66.5538 -66.5538 -66.5538 -66.5538 -66.5538 -66.5538 -66.5538 -66.5538
   -66.5538 -66.5254 -66.5047 -66.5047 -66.5045 -66.5040 -66.5040 -66.5040
   -66.4838 -66.4836 -66.4835 -66.4834 -66.4831 -66.4831 -66.4826 -66.4826
   -66.4825 -66.4371 -66.4252 -66.4182 -66.4182 -66.4113 -66.4112 -66.4018
   -66.4018 -66.4003 -66.3739 -66.3670 -66.3669 -66.3576 -66.3575 -66.3542
   -66.3238 -57.3416 -57.2110 -57.2110 -53.3928 -53.0092 -53.0091 -40.9225
   -40.9225 -40.9225 -40.8506 -40.8503 -40.8503 -40.8477 -40.8477 -40.8477
   -40.8477 -40.8477 -40.8477 -40.7759 -40.7759 -40.7756 -40.7755 -40.7755
   -40.7754 -40.7563 -40.7522 -40.7522 -40.7515 -40.7221 -40.7221 -40.7221
   -40.7221 -40.7221 -40.7221 -40.7148 -40.7148 -40.7148 -40.7148 -40.7148
   -40.7148 -40.6873 -40.6873 -40.6873 -40.6873 -40.6873 -40.6873 -40.6863
   -40.6826 -40.6824 -40.6732 -40.6732 -40.6731 -40.6731 -40.6731 -40.6731
   -40.6731 -40.6731 -40.6731 -40.6726 -40.6726 -40.6509 -40.6508 -40.6506
   -40.6503 -40.6503 -40.6501 -40.6501 -40.6500 -40.6453 -40.6453 -40.6452
   -40.6448 -40.6447 -40.6446 -40.6157 -40.6157 -40.6154 -40.6154 -40.6153
   -40.6152 -40.6095 -40.6095 -40.6095 -40.6039 -40.6038 -40.6036 -40.6035
   -40.6034 -40.6033 -40.6029 -40.6029 -40.6027 -40.5987 -40.5669 -40.5627
   -40.5627 -40.5627 -40.5627 -40.5627 -40.5626 -40.5610 -40.5609 -40.5608
   -40.5567 -40.5567 -40.5484 -40.5484 -40.5481 -40.5389 -40.5389 -40.5378
   -40.5377 -40.5377 -40.5310 -40.5242 -40.5240 -40.5240 -40.5193 -40.5154
   -40.5154 -40.5095 -40.5094 -40.5091 -40.5021 -40.4976 -40.4976 -40.4964
   -40.4964 -40.4925 -40.4914 -40.4910 -40.4910 -40.4909 -40.4908 -40.4906
   -40.4868 -40.4868 -40.4437 -40.4437 -40.4382 -40.4350 -40.4350 -40.3844
   -40.3837 -40.3837 -40.3743 -40.3743 -40.3712 -40.3119 -40.3118 -20.0252
   -19.9123 -19.7924 -19.1688 -19.1620 -19.1620 -19.1580 -19.1576 -19.1576
   -19.1186 -19.0925 -19.0925 -19.0389 -19.0370 -19.0369 -18.9857 -18.9782
   -18.9782 -18.9038 -18.9030 -18.9030 -18.7696 -18.6003 -18.4434 -18.4331
   -18.4331 -18.3644 -18.3586 -18.3586 -18.3583 -18.3045 -18.3044 -18.2619
   -18.2015 -18.1999 -18.1999 -18.1417 -18.1417 -18.1109 -18.0585 -18.0544
   -18.0544 -18.0543 -18.0542 -18.0539 -18.0539 -18.0536 -18.0536 -18.0142
   -18.0142 -18.0142 -17.9937 -17.9937 -17.9719 -17.9692 -17.9666 -17.9666
   -17.9599 -17.9599 -17.9359 -17.9356 -17.9356 -17.8842 -17.8724 -17.8709
   -17.8709 -17.8633 -17.8633 -17.8612 -17.8492 -17.8492 -17.8319 -17.8232
   -17.8232 -17.8210 -17.8183 -17.8169 -17.8169 -17.7837 -17.7837 -17.7767
   -17.7585 -17.7585 -17.7477 -17.7460 -17.7439 -17.7439 -17.7067 -17.7067
   -17.6863 -17.6683 -17.6682 -17.6598 -17.6521 -17.6452 -17.6452 -11.8795
   -11.8076 -11.6708 -11.6708 -11.6674 -11.6074 -11.6074 -11.5809 -11.5490
   -11.5490 -11.4720 -11.2110 -11.1411 -11.1410 -11.1136 -11.1111 -11.1111
   -11.0916 -11.0817 -11.0817 -11.0406 -11.0392 -11.0388 -11.0388 -11.0344
   -11.0344 -11.0130 -10.9166 -10.9062 -10.9062 -10.9023 -10.9023 -10.8897
   -10.8386 -10.8304 -10.8304 -10.8150 -10.8129 -10.8129 -10.8127 -10.7975
   -10.7974 -10.7767 -10.7767 -10.7507 -10.7482 -10.7482 -10.7470 -10.7438
   -10.7438 -10.7239 -10.7188 -10.7188 -10.7140 -10.7089 -10.7089 -10.6953
   -10.6850 -10.6850 -10.6713 -10.6695 -10.6695 -10.6267 -10.6266 -10.6266
   -10.6162 -10.5802 -10.5602 -10.5602 -10.5314 -10.5093 -10.5093 -10.4937
   -10.4937 -10.4936 -10.2438 -10.2437  -9.9635  -9.9603  -9.9603  -9.8311
    -9.8102  -9.7986  -9.7986  -9.7221  -9.6881  -9.6881  -9.6797  -9.6797
    -9.6779  -9.6681  -9.6205  -9.6205  -9.6089  -9.5917  -9.5916  -9.5815
    -9.5792  -9.5792  -9.5404  -9.5352  -9.5352  -9.5271  -9.5248  -9.5248
    -9.4873  -9.4869  -9.4869  -9.4865  -9.4829  -9.4829  -9.4665  -9.4520
    -9.4381  -9.4381  -9.4123  -9.4123  -9.4054  -9.4054  -9.4016  -9.3546
    -9.3546  -9.3462  -9.3383  -9.3374  -9.3374  -9.2620  -9.2607  -9.2607
    -9.2316  -9.2316  -9.2085  -9.1866  -9.1866  -9.1386  -9.1230  -9.1230
    -9.1118  -9.1030  -9.0893  -9.0893  -9.0844  -9.0844  -9.0621  -8.9876
    -8.9578  -8.9514  -8.9514  -8.9336  -8.9332  -8.9332  -8.9202  -8.9202
    -8.9109  -8.9109  -8.9071  -8.8549  -8.8504  -8.8504  -8.8243  -8.7754
    -8.7754  -8.7475  -8.7475  -8.7395  -8.7135  -8.7095  -8.7095  -8.7094
    -8.7069  -8.7069  -8.7055  -8.6756  -8.6756  -8.6496  -8.6496  -8.6259
    -8.6251  -8.6247  -8.6247  -8.5766  -8.5766  -8.5747  -8.4680  -8.3452
    -8.3452  -8.2905  -8.2905  -8.2697  -8.2672  -8.2672  -8.2327  -8.2327
    -8.2327  -8.2326  -8.2326  -8.2326  -8.1656  -8.1656  -8.1577  -8.1550
    -8.1549  -8.1544  -8.1458  -8.1457  -8.0965  -8.0916  -8.0916  -8.0517
    -7.9201  -7.9200  -7.8723  -7.8318  -7.8318  -7.6323  -7.6115  -7.6115
    -7.6035  -7.5097  -7.5096  -7.4973  -7.4971  -7.4971  -7.4971  -7.4951
    -7.4951  -7.4515  -7.4508  -7.4508  -7.4507  -7.4500  -7.4500  -7.4204
    -7.4204  -7.4199  -7.4165  -7.4118  -7.4118  -7.4070  -7.4058  -7.4058
    -7.3744  -7.3727  -7.3727  -7.3712  -7.3702  -7.3702  -7.3418  -7.3322
    -7.3271  -7.3271  -7.3249  -7.3224  -7.3224  -7.3143  -7.3142  -7.3012
    -7.2980  -7.2629  -7.2629  -7.2438  -7.2163  -7.2163  -7.1585  -7.1585
    -7.1415  -7.1415  -7.1299  -7.1299  -7.0913  -7.0723  -7.0723  -7.0585
    -6.9551  -6.9550  -6.8529  -6.8201  -6.8201  -6.7641  -6.7641  -6.7418
    -6.7260  -6.7164  -6.7121  -6.7121  -6.6105  -6.5959  -6.5959  -6.5533
    -6.5533  -6.5291  -6.5239  -6.5239  -6.5196  -6.5044  -6.4985  -6.4985
    -6.4336  -6.4304  -6.4304  -6.4185  -6.4185  -6.4141  -6.4085  -6.4085
    -6.4037  -6.3617  -6.3617  -6.3389  -6.3273  -6.3273  -6.3234  -6.3121
    -6.3121  -6.3066  -6.2642  -6.2642  -6.2641  -6.2641  -6.2641  -6.2641
    -6.2502  -6.2501  -6.2470  -6.1837  -6.1837  -6.1816  -6.1813  -6.1813
    -6.1810  -6.1605  -6.1605  -6.0912  -6.0780  -6.0779  -6.0759  -6.0726
    -5.9747  -5.9746  -5.5146  -5.5146  -5.5092  -5.2338  -5.0629  -5.0628
    -5.0170  -4.7958  -3.7423  -3.7423  -3.7398  -3.7354  -3.7354  -3.7254
    -3.7076  -3.7076  -3.7068  -3.7051  -3.7051  -3.6956  -3.4967  -3.4966
    -3.4850  -3.4849  -3.4827  -3.4802  -3.4687  -3.4687  -3.4681  -3.4626
    -3.4625  -3.4048  -3.4048  -3.4048  -3.3871  -3.3843  -3.3838  -3.3838
    -3.3822  -3.3822  -3.3722  -3.3324  -3.3321  -3.3321  -3.3030  -3.2814
    -3.2814  -3.2790  -3.2739  -3.2739  -3.2716  -3.2716  -3.2624  -3.2623
    -3.2533  -3.2292  -3.2275  -3.2163  -3.2163  -3.1947  -3.1603  -3.1603
    -3.1578  -3.1551  -3.1551  -3.1414  -3.1287  -3.1287  -3.0889  -3.0888
    -3.0014  -2.9372  -2.9361  -2.9358  -2.9321  -2.9321  -2.8655  -2.8652
    -2.8651  -2.8650  -2.8648  -2.8646  -2.8595  -2.8595  -2.8382  -2.8366
    -2.8366  -2.8299  -2.8298  -2.8159  -2.8009  -2.8007  -2.7946  -2.7945
    -2.7938  -2.7852  -2.7823  -2.7819  -2.7794  -2.7621  -2.7620  -2.7295
    -2.7293  -2.6946  -2.6901  -2.6890  -2.6814  -2.6809  -2.6676  -2.6645
    -2.6644  -2.6572  -2.6499  -2.6494  -2.6474  -2.6431  -2.6336  -2.6172
    -2.5953  -2.5952  -2.5674  -2.5426  -2.5425  -2.5273  -2.5271  -2.5117
    -2.4993  -2.4988  -2.4261  -2.4176  -2.4156  -2.3939  -2.3659  -2.3647
    -2.3469  -2.3458  -2.3389

          k = 0.0000-0.5773 0.0000 (321564 PWs)   bands (ev):

  -103.0544 -87.3230 -71.3915 -71.3733 -71.3733 -71.3450 -71.3450 -71.3316
   -71.3213 -66.5899 -66.5899 -66.5794 -66.5794 -66.5644 -66.5644 -66.5644
   -66.5644 -66.5600 -66.5600 -66.5538 -66.5538 -66.5538 -66.5538 -66.5494
   -66.5494 -66.5194 -66.5190 -66.5088 -66.5086 -66.4939 -66.4939 -66.4937
   -66.4935 -66.4896 -66.4891 -66.4834 -66.4834 -66.4832 -66.4826 -66.4787
   -66.4787 -66.4342 -66.4308 -66.4190 -66.4150 -66.4109 -66.4097 -66.4025
   -66.4022 -66.4009 -66.3736 -66.3668 -66.3666 -66.3586 -66.3579 -66.3534
   -66.3238 -57.3416 -57.2110 -57.2110 -53.3928 -53.0092 -53.0091 -40.8911
   -40.8911 -40.8911 -40.8911 -40.8645 -40.8644 -40.8525 -40.8525 -40.8192
   -40.8192 -40.8190 -40.8186 -40.8021 -40.8021 -40.8021 -40.8021 -40.7926
   -40.7923 -40.7805 -40.7804 -40.7442 -40.7441 -40.7366 -40.7342 -40.7341
   -40.7302 -40.7301 -40.7301 -40.7300 -40.7235 -40.7234 -40.7234 -40.7181
   -40.7022 -40.7009 -40.6951 -40.6940 -40.6940 -40.6940 -40.6940 -40.6853
   -40.6853 -40.6780 -40.6744 -40.6741 -40.6732 -40.6731 -40.6731 -40.6731
   -40.6731 -40.6731 -40.6645 -40.6645 -40.6623 -40.6622 -40.6573 -40.6536
   -40.6536 -40.6424 -40.6424 -40.6424 -40.6424 -40.6288 -40.6243 -40.6243
   -40.6240 -40.6240 -40.6228 -40.6192 -40.6157 -40.6153 -40.6079 -40.6079
   -40.6079 -40.6079 -40.6036 -40.6035 -40.6033 -40.6028 -40.6013 -40.6013
   -40.5958 -40.5958 -40.5947 -40.5947 -40.5939 -40.5903 -40.5839 -40.5766
   -40.5766 -40.5709 -40.5709 -40.5705 -40.5702 -40.5642 -40.5609 -40.5597
   -40.5597 -40.5497 -40.5493 -40.5406 -40.5402 -40.5385 -40.5362 -40.5361
   -40.5361 -40.5360 -40.5307 -40.5293 -40.5293 -40.5272 -40.5243 -40.5239
   -40.5238 -40.5135 -40.5094 -40.5052 -40.5046 -40.5020 -40.4996 -40.4974
   -40.4966 -40.4959 -40.4892 -40.4881 -40.4880 -40.4737 -40.4730 -40.4692
   -40.4617 -40.4578 -40.4573 -40.4404 -40.4277 -40.4270 -40.4210 -40.4081
   -40.4074 -40.3970 -40.3915 -40.3774 -40.3564 -40.3354 -40.3163 -19.7903
   -19.7878 -19.6978 -19.6653 -19.5800 -19.5367 -19.3540 -19.3538 -19.2493
   -19.2484 -19.1403 -19.1386 -18.7203 -18.6931 -18.6581 -18.6452 -18.6451
   -18.6449 -18.6284 -18.6244 -18.5815 -18.5346 -18.5277 -18.5161 -18.5103
   -18.4510 -18.4501 -18.4431 -18.4290 -18.4085 -18.3983 -18.3977 -18.3483
   -18.3300 -18.3040 -18.3002 -18.2914 -18.2798 -18.2547 -18.1964 -18.1849
   -18.1576 -18.1268 -18.1209 -18.1181 -18.1164 -18.0573 -18.0548 -18.0347
   -18.0345 -18.0345 -18.0342 -18.0129 -18.0072 -18.0029 -17.9897 -17.9595
   -17.9553 -17.9543 -17.9521 -17.9463 -17.9439 -17.9106 -17.9007 -17.8920
   -17.8705 -17.8650 -17.8642 -17.8618 -17.8614 -17.8411 -17.8344 -17.8235
   -17.8232 -17.8208 -17.7983 -17.7776 -17.7719 -17.7719 -17.7670 -17.7599
   -17.7592 -17.7098 -17.7097 -17.7029 -17.6930 -17.6920 -17.6864 -17.6688
   -17.6686 -17.6472 -17.6466 -17.6220 -17.6065 -17.5667 -17.5576 -11.7403
   -11.5758 -11.5643 -11.4361 -11.4078 -11.3807 -11.3803 -11.3771 -11.3739
   -11.3547 -11.3474 -11.2934 -11.2929 -11.2794 -11.2793 -11.2449 -11.2349
   -11.2169 -11.1946 -11.1922 -11.1821 -11.1810 -11.1684 -11.1651 -11.1650
   -11.1210 -11.1161 -11.1138 -11.1133 -11.0587 -11.0535 -11.0535 -11.0533
   -11.0524 -10.9550 -10.8862 -10.8731 -10.8686 -10.8679 -10.8493 -10.8467
   -10.8213 -10.8191 -10.8017 -10.7772 -10.7756 -10.7591 -10.7469 -10.7412
   -10.7374 -10.7362 -10.7359 -10.7315 -10.7163 -10.7016 -10.6941 -10.6810
   -10.6729 -10.6694 -10.6645 -10.6599 -10.6535 -10.6409 -10.5625 -10.4752
   -10.4569 -10.4327 -10.4044 -10.3945 -10.3842 -10.2803 -10.2569 -10.1587
   -10.0942 -10.0353 -10.0280 -10.0225 -10.0198  -9.9628  -9.9364  -9.9241
    -9.9129  -9.8584  -9.8576  -9.8473  -9.8403  -9.8370  -9.8346  -9.8158
    -9.8032  -9.8005  -9.7964  -9.7824  -9.7742  -9.7438  -9.7010  -9.6903
    -9.6756  -9.6572  -9.6554  -9.6465  -9.6317  -9.6281  -9.6143  -9.6111
    -9.6027  -9.5973  -9.5623  -9.5461  -9.5316  -9.5286  -9.5096  -9.5064
    -9.5019  -9.5003  -9.4911  -9.4472  -9.4359  -9.4331  -9.4254  -9.3952
    -9.3712  -9.3707  -9.3672  -9.3209  -9.3040  -9.2384  -9.2035  -9.1629
    -9.1570  -9.1327  -9.1091  -9.0859  -9.0551  -9.0502  -9.0380  -9.0349
    -9.0290  -9.0278  -9.0250  -9.0069  -8.9726  -8.9527  -8.9440  -8.9360
    -8.9234  -8.9075  -8.9012  -8.8828  -8.8818  -8.8644  -8.8582  -8.8515
    -8.8420  -8.8386  -8.8378  -8.8313  -8.8184  -8.8082  -8.7981  -8.7873
    -8.7788  -8.7646  -8.7632  -8.7569  -8.7474  -8.7473  -8.7425  -8.7322
    -8.7202  -8.7161  -8.7079  -8.7034  -8.6842  -8.6693  -8.6647  -8.6633
    -8.6464  -8.6322  -8.6267  -8.5901  -8.5817  -8.5509  -8.4374  -8.4211
    -8.4189  -8.3682  -8.3310  -8.3171  -8.3019  -8.2791  -8.1914  -8.1038
    -8.1016  -8.1016  -8.0248  -8.0236  -7.9998  -7.9704  -7.9600  -7.8847
    -7.8595  -7.8474  -7.8391  -7.8360  -7.7690  -7.7675  -7.7623  -7.7564
    -7.7548  -7.7548  -7.7506  -7.7483  -7.7443  -7.7392  -7.7076  -7.7076
    -7.7073  -7.7066  -7.6796  -7.6794  -7.6744  -7.6640  -7.6631  -7.6623
    -7.6376  -7.6352  -7.6305  -7.6289  -7.6211  -7.6077  -7.5996  -7.5897
    -7.5870  -7.5868  -7.5814  -7.5697  -7.5694  -7.5666  -7.5507  -7.5463
    -7.5438  -7.5371  -7.5076  -7.5067  -7.4940  -7.4936  -7.4921  -7.4755
    -7.4613  -7.4540  -7.4373  -7.4255  -7.3949  -7.3883  -7.3473  -7.3442
    -7.2725  -7.2361  -7.1623  -7.1506  -7.1437  -7.1411  -7.1111  -7.0840
    -7.0642  -7.0386  -7.0167  -7.0109  -6.9939  -6.9775  -6.9329  -6.9184
    -6.9167  -6.8982  -6.8655  -6.8613  -6.8432  -6.8432  -6.8380  -6.8266
    -6.8087  -6.7877  -6.7640  -6.7366  -6.7328  -6.6960  -6.6923  -6.6188
    -6.6051  -6.5963  -6.5665  -6.5664  -6.5663  -6.5663  -6.5578  -6.5445
    -6.5259  -6.4944  -6.4934  -6.4924  -6.4890  -6.4838  -6.4814  -6.4125
    -6.4093  -6.3958  -6.3859  -6.3590  -6.3227  -6.3202  -6.2351  -6.2347
    -6.2345  -6.2345  -6.2101  -6.1679  -6.1669  -6.1530  -6.1504  -6.1500
    -6.1494  -6.1226  -6.1177  -6.0802  -6.0722  -6.0698  -6.0440  -6.0381
    -6.0274  -5.9929  -5.8862  -5.8862  -5.8059  -5.8057  -5.7359  -5.7165
    -5.6875  -5.6367  -5.5157  -5.5157  -5.4941  -5.4530  -5.1466  -5.0516
    -5.0500  -4.7926  -3.9208  -3.9188  -3.9117  -3.9023  -3.8020  -3.8019
    -3.7750  -3.7675  -3.7321  -3.7320  -3.6695  -3.6661  -3.6543  -3.6411
    -3.6269  -3.6136  -3.5669  -3.5428  -3.4999  -3.4995  -3.4980  -3.4961
    -3.4864  -3.4863  -3.4406  -3.4375  -3.4364  -3.4053  -3.4036  -3.4014
    -3.3799  -3.3789  -3.3738  -3.3702  -3.3633  -3.3609  -3.3595  -3.3258
    -3.3012  -3.2905  -3.2530  -3.2529  -3.2491  -3.2484  -3.2406  -3.2252
    -3.2223  -3.2168  -3.2141  -3.2106  -3.1769  -3.1766  -3.1761  -3.1760
    -3.1676  -3.1584  -3.1408  -3.1356  -3.1308  -3.1270  -3.1024  -3.0989
    -3.0968  -3.0950  -3.0870  -3.0836  -3.0678  -3.0364  -3.0145  -3.0045
    -2.9843  -2.9837  -2.9725  -2.9703  -2.9686  -2.9503  -2.9310  -2.9280
    -2.9186  -2.9137  -2.9132  -2.9129  -2.9126  -2.8744  -2.8641  -2.8631
    -2.8618  -2.8482  -2.8299  -2.8227  -2.8133  -2.8111  -2.8036  -2.8002
    -2.7906  -2.7778  -2.7716  -2.7606  -2.7605  -2.7447  -2.7434  -2.7203
    -2.7075  -2.7003  -2.6921  -2.6780  -2.6765  -2.6654  -2.6308  -2.6291
    -2.6019  -2.5850  -2.5501  -2.5491  -2.5376  -2.5264  -2.5179  -2.5156
    -2.4638  -2.4591  -2.4013  -2.3935  -2.3792  -2.3659  -2.3634  -2.3259
    -2.2380  -2.2255  -2.1879

          k =-0.5000-0.2887 0.0000 (321564 PWs)   bands (ev):

  -103.0544 -87.3230 -71.3915 -71.3733 -71.3733 -71.3450 -71.3450 -71.3316
   -71.3213 -66.5899 -66.5899 -66.5794 -66.5794 -66.5644 -66.5644 -66.5644
   -66.5644 -66.5600 -66.5600 -66.5538 -66.5538 -66.5538 -66.5538 -66.5494
   -66.5494 -66.5194 -66.5191 -66.5088 -66.5086 -66.4939 -66.4939 -66.4937
   -66.4935 -66.4896 -66.4891 -66.4834 -66.4833 -66.4832 -66.4826 -66.4787
   -66.4787 -66.4342 -66.4309 -66.4190 -66.4150 -66.4109 -66.4097 -66.4025
   -66.4022 -66.4009 -66.3736 -66.3668 -66.3666 -66.3586 -66.3580 -66.3534
   -66.3238 -57.3416 -57.2110 -57.2110 -53.3928 -53.0092 -53.0091 -40.8911
   -40.8911 -40.8911 -40.8911 -40.8645 -40.8644 -40.8525 -40.8525 -40.8192
   -40.8192 -40.8190 -40.8186 -40.8021 -40.8021 -40.8021 -40.8021 -40.7925
   -40.7923 -40.7805 -40.7804 -40.7442 -40.7441 -40.7366 -40.7342 -40.7342
   -40.7302 -40.7301 -40.7301 -40.7300 -40.7235 -40.7234 -40.7234 -40.7181
   -40.7022 -40.7009 -40.6951 -40.6940 -40.6940 -40.6940 -40.6940 -40.6853
   -40.6853 -40.6780 -40.6744 -40.6741 -40.6732 -40.6731 -40.6731 -40.6731
   -40.6731 -40.6731 -40.6645 -40.6645 -40.6623 -40.6622 -40.6573 -40.6536
   -40.6536 -40.6424 -40.6424 -40.6424 -40.6424 -40.6288 -40.6243 -40.6243
   -40.6240 -40.6240 -40.6228 -40.6192 -40.6157 -40.6153 -40.6079 -40.6079
   -40.6079 -40.6079 -40.6036 -40.6035 -40.6034 -40.6028 -40.6013 -40.6013
   -40.5958 -40.5958 -40.5947 -40.5947 -40.5939 -40.5903 -40.5839 -40.5766
   -40.5766 -40.5708 -40.5708 -40.5705 -40.5702 -40.5642 -40.5609 -40.5597
   -40.5597 -40.5497 -40.5493 -40.5406 -40.5402 -40.5385 -40.5362 -40.5361
   -40.5361 -40.5360 -40.5307 -40.5293 -40.5293 -40.5272 -40.5242 -40.5239
   -40.5238 -40.5135 -40.5094 -40.5051 -40.5046 -40.5020 -40.4996 -40.4974
   -40.4966 -40.4959 -40.4892 -40.4881 -40.4880 -40.4737 -40.4730 -40.4692
   -40.4617 -40.4578 -40.4574 -40.4404 -40.4277 -40.4270 -40.4210 -40.4081
   -40.4074 -40.3970 -40.3915 -40.3774 -40.3564 -40.3354 -40.3164 -19.7903
   -19.7878 -19.6978 -19.6653 -19.5800 -19.5367 -19.3540 -19.3538 -19.2493
   -19.2484 -19.1403 -19.1386 -18.7203 -18.6931 -18.6581 -18.6452 -18.6451
   -18.6449 -18.6284 -18.6244 -18.5815 -18.5346 -18.5277 -18.5161 -18.5103
   -18.4510 -18.4501 -18.4431 -18.4290 -18.4085 -18.3983 -18.3977 -18.3483
   -18.3300 -18.3040 -18.3002 -18.2914 -18.2798 -18.2547 -18.1964 -18.1849
   -18.1576 -18.1268 -18.1209 -18.1181 -18.1164 -18.0573 -18.0548 -18.0347
   -18.0345 -18.0345 -18.0342 -18.0129 -18.0072 -18.0029 -17.9897 -17.9595
   -17.9553 -17.9543 -17.9521 -17.9463 -17.9439 -17.9106 -17.9007 -17.8920
   -17.8705 -17.8650 -17.8642 -17.8618 -17.8614 -17.8411 -17.8345 -17.8235
   -17.8232 -17.8208 -17.7983 -17.7776 -17.7719 -17.7719 -17.7670 -17.7599
   -17.7592 -17.7098 -17.7097 -17.7029 -17.6930 -17.6920 -17.6864 -17.6688
   -17.6686 -17.6472 -17.6466 -17.6220 -17.6065 -17.5667 -17.5576 -11.7403
   -11.5758 -11.5643 -11.4361 -11.4078 -11.3807 -11.3804 -11.3771 -11.3739
   -11.3547 -11.3474 -11.2934 -11.2929 -11.2794 -11.2793 -11.2449 -11.2349
   -11.2169 -11.1946 -11.1922 -11.1821 -11.1810 -11.1684 -11.1651 -11.1651
   -11.1210 -11.1161 -11.1138 -11.1133 -11.0587 -11.0536 -11.0535 -11.0533
   -11.0524 -10.9550 -10.8862 -10.8731 -10.8686 -10.8679 -10.8493 -10.8467
   -10.8213 -10.8191 -10.8017 -10.7772 -10.7756 -10.7591 -10.7469 -10.7412
   -10.7374 -10.7362 -10.7359 -10.7315 -10.7162 -10.7016 -10.6941 -10.6810
   -10.6729 -10.6694 -10.6645 -10.6599 -10.6535 -10.6409 -10.5625 -10.4752
   -10.4569 -10.4327 -10.4044 -10.3945 -10.3842 -10.2803 -10.2569 -10.1587
   -10.0942 -10.0353 -10.0280 -10.0225 -10.0198  -9.9628  -9.9364  -9.9241
    -9.9129  -9.8584  -9.8577  -9.8473  -9.8403  -9.8370  -9.8346  -9.8158
    -9.8032  -9.8005  -9.7964  -9.7824  -9.7742  -9.7438  -9.7010  -9.6903
    -9.6756  -9.6572  -9.6554  -9.6465  -9.6317  -9.6281  -9.6143  -9.6111
    -9.6027  -9.5973  -9.5623  -9.5461  -9.5316  -9.5286  -9.5096  -9.5065
    -9.5019  -9.5003  -9.4911  -9.4472  -9.4359  -9.4331  -9.4254  -9.3952
    -9.3712  -9.3707  -9.3672  -9.3209  -9.3040  -9.2384  -9.2035  -9.1630
    -9.1570  -9.1327  -9.1091  -9.0858  -9.0551  -9.0502  -9.0380  -9.0349
    -9.0290  -9.0278  -9.0250  -9.0069  -8.9726  -8.9527  -8.9439  -8.9360
    -8.9234  -8.9075  -8.9012  -8.8828  -8.8818  -8.8644  -8.8582  -8.8515
    -8.8420  -8.8386  -8.8378  -8.8313  -8.8184  -8.8082  -8.7981  -8.7873
    -8.7788  -8.7646  -8.7632  -8.7569  -8.7474  -8.7474  -8.7425  -8.7322
    -8.7202  -8.7161  -8.7079  -8.7034  -8.6842  -8.6693  -8.6647  -8.6633
    -8.6464  -8.6322  -8.6267  -8.5901  -8.5817  -8.5509  -8.4374  -8.4211
    -8.4189  -8.3682  -8.3310  -8.3171  -8.3019  -8.2791  -8.1914  -8.1038
    -8.1016  -8.1016  -8.0248  -8.0236  -7.9998  -7.9704  -7.9600  -7.8847
    -7.8595  -7.8474  -7.8391  -7.8360  -7.7690  -7.7675  -7.7623  -7.7564
    -7.7548  -7.7548  -7.7506  -7.7483  -7.7442  -7.7392  -7.7076  -7.7076
    -7.7073  -7.7066  -7.6796  -7.6794  -7.6744  -7.6640  -7.6631  -7.6623
    -7.6376  -7.6352  -7.6305  -7.6289  -7.6211  -7.6077  -7.5996  -7.5897
    -7.5870  -7.5868  -7.5814  -7.5698  -7.5694  -7.5666  -7.5507  -7.5463
    -7.5438  -7.5371  -7.5076  -7.5067  -7.4940  -7.4936  -7.4921  -7.4755
    -7.4614  -7.4540  -7.4373  -7.4255  -7.3949  -7.3883  -7.3473  -7.3442
    -7.2725  -7.2361  -7.1623  -7.1506  -7.1437  -7.1411  -7.1111  -7.0839
    -7.0642  -7.0386  -7.0166  -7.0109  -6.9939  -6.9775  -6.9329  -6.9185
    -6.9167  -6.8982  -6.8655  -6.8613  -6.8432  -6.8432  -6.8380  -6.8266
    -6.8088  -6.7877  -6.7640  -6.7366  -6.7328  -6.6960  -6.6922  -6.6189
    -6.6051  -6.5963  -6.5665  -6.5664  -6.5663  -6.5663  -6.5578  -6.5445
    -6.5259  -6.4944  -6.4934  -6.4924  -6.4890  -6.4838  -6.4814  -6.4125
    -6.4093  -6.3958  -6.3859  -6.3590  -6.3227  -6.3202  -6.2351  -6.2347
    -6.2345  -6.2345  -6.2101  -6.1679  -6.1669  -6.1530  -6.1504  -6.1500
    -6.1494  -6.1226  -6.1177  -6.0802  -6.0722  -6.0698  -6.0440  -6.0381
    -6.0274  -5.9930  -5.8862  -5.8862  -5.8059  -5.8057  -5.7359  -5.7165
    -5.6875  -5.6367  -5.5157  -5.5157  -5.4941  -5.4530  -5.1466  -5.0516
    -5.0500  -4.7926  -3.9209  -3.9188  -3.9116  -3.9025  -3.8019  -3.8019
    -3.7751  -3.7675  -3.7320  -3.7320  -3.6695  -3.6661  -3.6542  -3.6409
    -3.6269  -3.6136  -3.5669  -3.5428  -3.4999  -3.4995  -3.4981  -3.4962
    -3.4863  -3.4861  -3.4406  -3.4375  -3.4364  -3.4055  -3.4035  -3.4013
    -3.3799  -3.3789  -3.3739  -3.3703  -3.3633  -3.3609  -3.3595  -3.3258
    -3.3011  -3.2904  -3.2530  -3.2529  -3.2491  -3.2483  -3.2406  -3.2251
    -3.2222  -3.2166  -3.2140  -3.2106  -3.1768  -3.1766  -3.1762  -3.1760
    -3.1675  -3.1585  -3.1409  -3.1354  -3.1308  -3.1272  -3.1024  -3.0988
    -3.0968  -3.0950  -3.0871  -3.0836  -3.0678  -3.0364  -3.0145  -3.0046
    -2.9842  -2.9838  -2.9725  -2.9705  -2.9687  -2.9506  -2.9311  -2.9281
    -2.9186  -2.9138  -2.9134  -2.9131  -2.9128  -2.8745  -2.8642  -2.8632
    -2.8618  -2.8487  -2.8299  -2.8229  -2.8135  -2.8112  -2.8041  -2.8004
    -2.7908  -2.7779  -2.7717  -2.7606  -2.7605  -2.7447  -2.7436  -2.7206
    -2.7073  -2.7005  -2.6917  -2.6782  -2.6767  -2.6654  -2.6300  -2.6189
    -2.5942  -2.5835  -2.5500  -2.5491  -2.5377  -2.5263  -2.5179  -2.5162
    -2.4638  -2.4591  -2.4013  -2.3935  -2.3792  -2.3663  -2.3634  -2.3258
    -2.2424  -2.2093  -2.1823

          k =-0.5000-0.8660 0.0000 (321564 PWs)   bands (ev):

  -103.0544 -87.3230 -71.3915 -71.3733 -71.3733 -71.3450 -71.3450 -71.3316
   -71.3213 -66.5899 -66.5899 -66.5794 -66.5794 -66.5644 -66.5644 -66.5644
   -66.5644 -66.5600 -66.5600 -66.5538 -66.5538 -66.5538 -66.5538 -66.5494
   -66.5494 -66.5194 -66.5190 -66.5088 -66.5086 -66.4939 -66.4939 -66.4937
   -66.4935 -66.4896 -66.4891 -66.4834 -66.4834 -66.4832 -66.4826 -66.4787
   -66.4787 -66.4342 -66.4309 -66.4190 -66.4150 -66.4109 -66.4097 -66.4025
   -66.4022 -66.4009 -66.3736 -66.3668 -66.3666 -66.3586 -66.3580 -66.3534
   -66.3238 -57.3416 -57.2110 -57.2110 -53.3928 -53.0092 -53.0091 -40.8911
   -40.8911 -40.8911 -40.8911 -40.8644 -40.8644 -40.8525 -40.8525 -40.8192
   -40.8192 -40.8190 -40.8186 -40.8021 -40.8021 -40.8021 -40.8021 -40.7926
   -40.7922 -40.7805 -40.7804 -40.7442 -40.7441 -40.7366 -40.7342 -40.7342
   -40.7302 -40.7301 -40.7301 -40.7300 -40.7235 -40.7234 -40.7234 -40.7181
   -40.7022 -40.7009 -40.6951 -40.6940 -40.6940 -40.6940 -40.6940 -40.6853
   -40.6853 -40.6780 -40.6744 -40.6741 -40.6731 -40.6731 -40.6731 -40.6731
   -40.6731 -40.6731 -40.6645 -40.6645 -40.6623 -40.6622 -40.6573 -40.6536
   -40.6536 -40.6424 -40.6424 -40.6424 -40.6424 -40.6287 -40.6243 -40.6243
   -40.6240 -40.6240 -40.6228 -40.6192 -40.6157 -40.6153 -40.6079 -40.6079
   -40.6079 -40.6079 -40.6035 -40.6035 -40.6034 -40.6028 -40.6013 -40.6013
   -40.5958 -40.5958 -40.5947 -40.5947 -40.5939 -40.5903 -40.5839 -40.5766
   -40.5766 -40.5709 -40.5708 -40.5705 -40.5702 -40.5642 -40.5609 -40.5597
   -40.5597 -40.5497 -40.5493 -40.5406 -40.5402 -40.5385 -40.5362 -40.5361
   -40.5361 -40.5360 -40.5307 -40.5293 -40.5293 -40.5272 -40.5243 -40.5239
   -40.5238 -40.5135 -40.5094 -40.5052 -40.5046 -40.5020 -40.4996 -40.4974
   -40.4966 -40.4959 -40.4892 -40.4881 -40.4880 -40.4737 -40.4730 -40.4692
   -40.4617 -40.4578 -40.4573 -40.4404 -40.4277 -40.4270 -40.4210 -40.4081
   -40.4074 -40.3970 -40.3914 -40.3774 -40.3564 -40.3354 -40.3164 -19.7903
   -19.7878 -19.6978 -19.6653 -19.5800 -19.5367 -19.3540 -19.3538 -19.2493
   -19.2484 -19.1403 -19.1386 -18.7203 -18.6931 -18.6581 -18.6452 -18.6451
   -18.6449 -18.6284 -18.6244 -18.5815 -18.5346 -18.5277 -18.5161 -18.5103
   -18.4510 -18.4501 -18.4431 -18.4290 -18.4085 -18.3983 -18.3977 -18.3484
   -18.3300 -18.3041 -18.3002 -18.2914 -18.2797 -18.2547 -18.1964 -18.1849
   -18.1576 -18.1268 -18.1209 -18.1181 -18.1164 -18.0573 -18.0548 -18.0347
   -18.0345 -18.0345 -18.0342 -18.0129 -18.0072 -18.0029 -17.9897 -17.9595
   -17.9553 -17.9543 -17.9522 -17.9463 -17.9439 -17.9106 -17.9007 -17.8920
   -17.8705 -17.8651 -17.8642 -17.8618 -17.8614 -17.8411 -17.8344 -17.8235
   -17.8232 -17.8208 -17.7983 -17.7776 -17.7719 -17.7719 -17.7670 -17.7600
   -17.7592 -17.7098 -17.7097 -17.7029 -17.6930 -17.6920 -17.6864 -17.6689
   -17.6686 -17.6472 -17.6466 -17.6220 -17.6065 -17.5667 -17.5576 -11.7403
   -11.5758 -11.5643 -11.4361 -11.4078 -11.3807 -11.3804 -11.3771 -11.3739
   -11.3547 -11.3474 -11.2934 -11.2929 -11.2794 -11.2793 -11.2449 -11.2349
   -11.2169 -11.1946 -11.1922 -11.1821 -11.1810 -11.1683 -11.1651 -11.1650
   -11.1210 -11.1161 -11.1138 -11.1133 -11.0587 -11.0535 -11.0535 -11.0533
   -11.0524 -10.9550 -10.8862 -10.8731 -10.8686 -10.8679 -10.8493 -10.8467
   -10.8213 -10.8191 -10.8017 -10.7772 -10.7756 -10.7591 -10.7469 -10.7412
   -10.7374 -10.7362 -10.7359 -10.7315 -10.7162 -10.7016 -10.6941 -10.6810
   -10.6729 -10.6694 -10.6645 -10.6598 -10.6535 -10.6409 -10.5625 -10.4752
   -10.4569 -10.4327 -10.4044 -10.3945 -10.3842 -10.2803 -10.2569 -10.1587
   -10.0942 -10.0353 -10.0280 -10.0225 -10.0198  -9.9628  -9.9364  -9.9241
    -9.9129  -9.8584  -9.8577  -9.8473  -9.8403  -9.8369  -9.8346  -9.8158
    -9.8032  -9.8005  -9.7964  -9.7824  -9.7742  -9.7438  -9.7010  -9.6902
    -9.6756  -9.6572  -9.6555  -9.6465  -9.6317  -9.6281  -9.6143  -9.6111
    -9.6027  -9.5973  -9.5623  -9.5461  -9.5316  -9.5286  -9.5096  -9.5065
    -9.5019  -9.5003  -9.4911  -9.4472  -9.4359  -9.4331  -9.4254  -9.3952
    -9.3712  -9.3707  -9.3672  -9.3209  -9.3040  -9.2383  -9.2035  -9.1629
    -9.1570  -9.1327  -9.1091  -9.0859  -9.0551  -9.0502  -9.0380  -9.0349
    -9.0290  -9.0278  -9.0250  -9.0069  -8.9726  -8.9527  -8.9440  -8.9360
    -8.9234  -8.9075  -8.9012  -8.8828  -8.8818  -8.8644  -8.8582  -8.8515
    -8.8420  -8.8386  -8.8378  -8.8313  -8.8184  -8.8082  -8.7981  -8.7873
    -8.7788  -8.7646  -8.7632  -8.7569  -8.7474  -8.7473  -8.7425  -8.7322
    -8.7202  -8.7161  -8.7079  -8.7034  -8.6842  -8.6692  -8.6647  -8.6633
    -8.6464  -8.6322  -8.6267  -8.5901  -8.5817  -8.5509  -8.4374  -8.4211
    -8.4189  -8.3682  -8.3310  -8.3171  -8.3019  -8.2791  -8.1914  -8.1038
    -8.1016  -8.1016  -8.0247  -8.0236  -7.9998  -7.9704  -7.9600  -7.8847
    -7.8595  -7.8474  -7.8391  -7.8360  -7.7690  -7.7675  -7.7623  -7.7564
    -7.7548  -7.7548  -7.7506  -7.7483  -7.7443  -7.7392  -7.7076  -7.7076
    -7.7073  -7.7066  -7.6796  -7.6794  -7.6744  -7.6640  -7.6631  -7.6623
    -7.6376  -7.6352  -7.6305  -7.6289  -7.6211  -7.6077  -7.5996  -7.5897
    -7.5870  -7.5868  -7.5814  -7.5697  -7.5694  -7.5666  -7.5507  -7.5463
    -7.5438  -7.5371  -7.5076  -7.5067  -7.4940  -7.4936  -7.4921  -7.4755
    -7.4613  -7.4540  -7.4373  -7.4255  -7.3949  -7.3883  -7.3473  -7.3442
    -7.2725  -7.2361  -7.1623  -7.1506  -7.1437  -7.1411  -7.1111  -7.0840
    -7.0642  -7.0386  -7.0167  -7.0109  -6.9939  -6.9775  -6.9329  -6.9184
    -6.9167  -6.8982  -6.8655  -6.8613  -6.8432  -6.8432  -6.8380  -6.8266
    -6.8087  -6.7877  -6.7640  -6.7366  -6.7328  -6.6960  -6.6922  -6.6188
    -6.6051  -6.5963  -6.5665  -6.5664  -6.5663  -6.5663  -6.5578  -6.5445
    -6.5259  -6.4944  -6.4934  -6.4923  -6.4890  -6.4838  -6.4815  -6.4125
    -6.4093  -6.3958  -6.3859  -6.3590  -6.3227  -6.3202  -6.2351  -6.2346
    -6.2345  -6.2345  -6.2101  -6.1679  -6.1669  -6.1530  -6.1505  -6.1500
    -6.1494  -6.1226  -6.1177  -6.0802  -6.0722  -6.0698  -6.0440  -6.0381
    -6.0274  -5.9930  -5.8862  -5.8862  -5.8059  -5.8057  -5.7359  -5.7165
    -5.6875  -5.6367  -5.5157  -5.5157  -5.4941  -5.4530  -5.1466  -5.0516
    -5.0500  -4.7926  -3.9209  -3.9188  -3.9116  -3.9025  -3.8020  -3.8020
    -3.7750  -3.7676  -3.7319  -3.7318  -3.6695  -3.6661  -3.6542  -3.6410
    -3.6270  -3.6136  -3.5669  -3.5426  -3.4999  -3.4993  -3.4978  -3.4961
    -3.4863  -3.4861  -3.4403  -3.4374  -3.4363  -3.4055  -3.4035  -3.4013
    -3.3799  -3.3789  -3.3739  -3.3702  -3.3632  -3.3608  -3.3594  -3.3258
    -3.3011  -3.2904  -3.2528  -3.2528  -3.2489  -3.2483  -3.2406  -3.2250
    -3.2222  -3.2166  -3.2140  -3.2107  -3.1769  -3.1767  -3.1762  -3.1759
    -3.1676  -3.1585  -3.1408  -3.1352  -3.1309  -3.1272  -3.1025  -3.0988
    -3.0968  -3.0950  -3.0871  -3.0836  -3.0678  -3.0364  -3.0146  -3.0046
    -2.9843  -2.9837  -2.9726  -2.9704  -2.9687  -2.9504  -2.9308  -2.9280
    -2.9186  -2.9137  -2.9131  -2.9128  -2.9125  -2.8745  -2.8641  -2.8629
    -2.8615  -2.8484  -2.8297  -2.8227  -2.8134  -2.8111  -2.8037  -2.8003
    -2.7906  -2.7778  -2.7716  -2.7605  -2.7605  -2.7444  -2.7434  -2.7203
    -2.7069  -2.7005  -2.6915  -2.6779  -2.6763  -2.6649  -2.6299  -2.6219
    -2.5978  -2.5853  -2.5501  -2.5491  -2.5375  -2.5263  -2.5178  -2.5159
    -2.4638  -2.4591  -2.4014  -2.3935  -2.3792  -2.3652  -2.3634  -2.3255
    -2.2369  -2.2121  -2.1792

     the Fermi energy is    -4.8984 ev

!    total energy              =  -26031.71143229 Ry
     total all-electron energy =   -512284.281060 Ry
     estimated scf accuracy    <       0.00000069 Ry
     smearing contrib. (-TS)   =      -0.00699205 Ry
     internal energy E=F+TS    =  -26031.70444023 Ry

     The total energy is F=E-TS. E is the sum of the following terms:
     one-electron contribution =  496184.14964801 Ry
     hartree contribution      = -248228.74163642 Ry
     xc contribution           =   -1534.44086066 Ry
     ewald contribution        = -256259.95777728 Ry
     DFT-D3 Dispersion         =      -4.00086059 Ry
     one-center paw contrib.   =  -16188.71295330 Ry

     convergence has been achieved in  29 iterations

     negative rho (up, down):  8.060E-04 0.000E+00

     Forces acting on atoms (cartesian axes, Ry/au):

     atom    1 type  1   force =    -0.00131464    0.00016863   -0.00006526
     atom    2 type  1   force =    -0.00000140   -0.00000906    0.00185355
     atom    3 type  1   force =     0.00000985   -0.00002582   -0.00011196
     atom    4 type  2   force =     0.00000031    0.00000014   -0.00318889
     atom    5 type  2   force =     0.00000201    0.00000988    0.00020860
     atom    6 type  2   force =     0.00015489    0.00001882    0.00013361
     atom    7 type  2   force =     0.00000580   -0.00000239    0.00144771
     atom    8 type  2   force =    -0.00000264    0.00000636   -0.00006092
     atom    9 type  2   force =    -0.00085934    0.00005152    0.00028951
     atom   10 type  1   force =    -0.00050714   -0.00121743   -0.00006298
     atom   11 type  1   force =     0.00000459   -0.00000107    0.00185075
     atom   12 type  1   force =    -0.00001907    0.00001711   -0.00010604
     atom   13 type  2   force =     0.00000257   -0.00000273   -0.00318923
     atom   14 type  2   force =    -0.00000466   -0.00001169    0.00021927
     atom   15 type  2   force =     0.00009726    0.00012000    0.00013464
     atom   16 type  2   force =     0.00000174   -0.00000298    0.00146507
     atom   17 type  2   force =    -0.00002115   -0.00002002   -0.00006913
     atom   18 type  2   force =    -0.00038249   -0.00077045    0.00029045
     atom   19 type  1   force =     0.00010044   -0.00004967   -0.00082987
     atom   20 type  1   force =    -0.00000416    0.00000534    0.00186120
     atom   21 type  1   force =     0.00000174    0.00001150   -0.00012112
     atom   22 type  2   force =     0.00000293   -0.00000033   -0.00319201
     atom   23 type  2   force =     0.00001511    0.00000114    0.00020763
     atom   24 type  2   force =     0.00000142    0.00014818    0.00042573
     atom   25 type  2   force =     0.00000193    0.00000710    0.00144166
     atom   26 type  2   force =     0.00000665   -0.00000256   -0.00006036
     atom   27 type  2   force =     0.00000163    0.00016383   -0.00018862
     atom   28 type  1   force =    -0.00000458    0.00010624   -0.00083833
     atom   29 type  1   force =    -0.00000327    0.00000575    0.00186124
     atom   30 type  1   force =    -0.00000429    0.00000142   -0.00012614
     atom   31 type  2   force =    -0.00000125    0.00000203   -0.00318392
     atom   32 type  2   force =    -0.00000210    0.00000546    0.00016991
     atom   33 type  2   force =     0.00012264   -0.00006948    0.00042602
     atom   34 type  2   force =    -0.00000374    0.00000518    0.00145806
     atom   35 type  2   force =     0.00000174    0.00000341   -0.00014416
     atom   36 type  2   force =     0.00013531   -0.00007722   -0.00018707
     atom   37 type  1   force =     0.00130377    0.00017282   -0.00006494
     atom   38 type  1   force =    -0.00000412   -0.00000204    0.00185025
     atom   39 type  1   force =    -0.00000818   -0.00000918   -0.00021479
     atom   40 type  2   force =    -0.00000251   -0.00000067   -0.00318621
     atom   41 type  2   force =    -0.00000597    0.00000908    0.00020551
     atom   42 type  2   force =    -0.00000469    0.00019141   -0.00024063
     atom   43 type  2   force =    -0.00000474    0.00000258    0.00145038
     atom   44 type  2   force =     0.00000070   -0.00000017   -0.00006244
     atom   45 type  2   force =    -0.00000621   -0.00009443    0.00003361
     atom   46 type  1   force =    -0.00000395    0.00000502   -0.00472051
     atom   47 type  1   force =    -0.00000383    0.00000168    0.00184510
     atom   48 type  1   force =     0.00000727    0.00001069   -0.00009562
     atom   49 type  2   force =    -0.00000245   -0.00000224   -0.00319135
     atom   50 type  2   force =    -0.00000267    0.00002542    0.00021118
     atom   51 type  2   force =    -0.00008610   -0.00005143   -0.00085740
     atom   52 type  2   force =     0.00000278    0.00000449    0.00145067
     atom   53 type  2   force =    -0.00000233   -0.00006561   -0.00019442
     atom   54 type  2   force =     0.00638662    0.00368535   -0.00305983
     atom   55 type  1   force =     0.00079516    0.00105658   -0.00006339
     atom   56 type  1   force =     0.00000317   -0.00000227    0.00185592
     atom   57 type  1   force =    -0.00000968    0.00001025   -0.00021660
     atom   58 type  2   force =    -0.00000039   -0.00000398   -0.00319719
     atom   59 type  2   force =     0.00002521   -0.00001601    0.00020988
     atom   60 type  2   force =     0.00016977   -0.00009503   -0.00023785
     atom   61 type  2   force =     0.00000934    0.00000057    0.00144649
     atom   62 type  2   force =    -0.00005131    0.00002820   -0.00019805
     atom   63 type  2   force =    -0.00008234    0.00004972    0.00003621
     atom   64 type  1   force =     0.00021067    0.00011007   -0.00025135
     atom   65 type  1   force =    -0.00000149    0.00000270    0.00185750
     atom   66 type  1   force =     0.00000166    0.00000096   -0.00012251
     atom   67 type  2   force =    -0.00000203    0.00000117   -0.00318996
     atom   68 type  2   force =     0.00000618   -0.00000644    0.00021063
     atom   69 type  2   force =    -0.00012743   -0.00007384    0.00042412
     atom   70 type  2   force =     0.00000304    0.00000074    0.00145069
     atom   71 type  2   force =     0.00000351    0.00000207   -0.00006232
     atom   72 type  2   force =    -0.00013677   -0.00008012   -0.00019125
     atom   73 type  1   force =     0.00004631   -0.00003861   -0.00010540
     atom   74 type  1   force =    -0.00000168   -0.00000387    0.00185364
     atom   75 type  1   force =    -0.00000841   -0.00003117   -0.00010794
     atom   76 type  2   force =     0.00000232   -0.00000012   -0.00318828
     atom   77 type  2   force =     0.00003558    0.00001946    0.00022147
     atom   78 type  2   force =    -0.00015266    0.00001925    0.00013594
     atom   79 type  2   force =    -0.00000076   -0.00000298    0.00144523
     atom   80 type  2   force =    -0.00005944   -0.00003673   -0.00006793
     atom   81 type  2   force =     0.00086164    0.00004827    0.00028855
     atom   82 type  1   force =     0.00048400   -0.00121606   -0.00005844
     atom   83 type  1   force =    -0.00000514   -0.00000263    0.00185208
     atom   84 type  1   force =    -0.00001542    0.00000486   -0.00009008
     atom   85 type  2   force =    -0.00000225   -0.00000130   -0.00319007
     atom   86 type  2   force =     0.00000299   -0.00000853    0.00022013
     atom   87 type  2   force =     0.00007819   -0.00004657   -0.00085463
     atom   88 type  2   force =    -0.00000716    0.00000568    0.00145479
     atom   89 type  2   force =     0.00002278   -0.00001737   -0.00006694
     atom   90 type  2   force =    -0.00639175    0.00368489   -0.00306422
     atom   91 type  1   force =    -0.00079988    0.00105031   -0.00006161
     atom   92 type  1   force =    -0.00000585    0.00000474    0.00185396
     atom   93 type  1   force =    -0.00000687    0.00000046   -0.00009027
     atom   94 type  2   force =    -0.00000192   -0.00000141   -0.00319189
     atom   95 type  2   force =    -0.00002933   -0.00001629    0.00020960
     atom   96 type  2   force =     0.00000091    0.00009241   -0.00085439
     atom   97 type  2   force =    -0.00000009    0.00000019    0.00146154
     atom   98 type  2   force =     0.00005259    0.00003089   -0.00019387
     atom   99 type  2   force =    -0.00000223   -0.00735794   -0.00306460
     atom  100 type  1   force =    -0.00000833    0.00005132   -0.00010446
     atom  101 type  1   force =    -0.00000459   -0.00000550    0.00185438
     atom  102 type  1   force =    -0.00002942    0.00000129   -0.00011052
     atom  103 type  2   force =     0.00000098    0.00000228   -0.00319084
     atom  104 type  2   force =    -0.00000061    0.00001240    0.00022601
     atom  105 type  2   force =    -0.00005811   -0.00014652    0.00014192
     atom  106 type  2   force =     0.00000483   -0.00000592    0.00144909
     atom  107 type  2   force =     0.00000442    0.00003095   -0.00007213
     atom  108 type  2   force =     0.00047704    0.00071541    0.00028876
     atom  109 type  1   force =    -0.00003344   -0.00003017   -0.00010339
     atom  110 type  1   force =     0.00000175    0.00000154    0.00185000
     atom  111 type  1   force =     0.00000487    0.00000217    0.00007228
     atom  112 type  2   force =    -0.00000109   -0.00000237   -0.00318993
     atom  113 type  2   force =    -0.00003188    0.00002358    0.00022442
[...]
     atom   70 type  2   force =     0.00000430   -0.00000243    0.00148387
     atom   71 type  2   force =     0.00000221    0.00000431   -0.00002505
     atom   72 type  2   force =    -0.00005259   -0.00003074   -0.00006471
     atom   73 type  1   force =    -0.00002639    0.00001484   -0.00004729
     atom   74 type  1   force =     0.00000075    0.00000042    0.00191364
     atom   75 type  1   force =     0.00000360    0.00000429   -0.00002341
     atom   76 type  2   force =     0.00000007   -0.00000029   -0.00328477
     atom   77 type  2   force =    -0.00000239   -0.00000145   -0.00001098
     atom   78 type  2   force =    -0.00012708    0.00014622   -0.00000036
     atom   79 type  2   force =     0.00000126    0.00000094    0.00148172
     atom   80 type  2   force =     0.00000427    0.00000194   -0.00002404
     atom   81 type  2   force =    -0.00008030    0.00006686   -0.00011868
     atom   82 type  1   force =    -0.00017284    0.00004056   -0.00004699
     atom   83 type  1   force =    -0.00000050    0.00000001    0.00191216
     atom   84 type  1   force =     0.00000376   -0.00000192   -0.00002881
     atom   85 type  2   force =     0.00000036   -0.00000046   -0.00328530
     atom   86 type  2   force =     0.00000485   -0.00000291    0.00000499
     atom   87 type  2   force =    -0.00058810    0.00033965    0.00031206
     atom   88 type  2   force =    -0.00000139    0.00000783    0.00148291
     atom   89 type  2   force =    -0.00001181    0.00000684    0.00001104
     atom   90 type  2   force =     0.00011552   -0.00006698    0.00006780
     atom   91 type  1   force =    -0.00005037   -0.00016903   -0.00004757
     atom   92 type  1   force =    -0.00000367   -0.00000216    0.00190860
     atom   93 type  1   force =     0.00000006    0.00000501   -0.00002922
     atom   94 type  2   force =     0.00000031   -0.00000016   -0.00328748
     atom   95 type  2   force =    -0.00000136   -0.00000058   -0.00000694
     atom   96 type  2   force =     0.00000025   -0.00067951    0.00031165
     atom   97 type  2   force =    -0.00000017    0.00000013    0.00147986
     atom   98 type  2   force =     0.00000780    0.00000429   -0.00003869
     atom   99 type  2   force =    -0.00000002    0.00013817    0.00006781
     atom  100 type  1   force =    -0.00000029   -0.00003043   -0.00004636
     atom  101 type  1   force =    -0.00000011   -0.00000043    0.00191216
     atom  102 type  1   force =     0.00000644   -0.00000016   -0.00002380
     atom  103 type  2   force =     0.00000006    0.00000003   -0.00328530
     atom  104 type  2   force =     0.00000011    0.00000506    0.00000530
     atom  105 type  2   force =     0.00006352   -0.00018376   -0.00000045
     atom  106 type  2   force =     0.00000590   -0.00000477    0.00148298
     atom  107 type  2   force =     0.00000010   -0.00001370    0.00001106
     atom  108 type  2   force =     0.00001765   -0.00010355   -0.00011829
     atom  109 type  1   force =     0.00002652    0.00001492   -0.00004654
     atom  110 type  1   force =    -0.00000127    0.00000044    0.00191364
     atom  111 type  1   force =     0.00000031    0.00000014   -0.00004352
     atom  112 type  2   force =     0.00000028   -0.00000011   -0.00328460
     atom  113 type  2   force =     0.00000241   -0.00000142   -0.00001108
     atom  114 type  2   force =     0.00000007   -0.00000045    0.00003246
     atom  115 type  2   force =    -0.00000018   -0.00000000    0.00149430
     atom  116 type  2   force =    -0.00000375    0.00000229   -0.00002438
     atom  117 type  2   force =     0.00000035   -0.00000033    0.00000306
     atom  118 type  1   force =     0.00000045    0.00004388   -0.00007857
     atom  119 type  1   force =    -0.00000028   -0.00000125    0.00191365
     atom  120 type  1   force =    -0.00000188   -0.00000561   -0.00002329
     atom  121 type  2   force =     0.00000036   -0.00000018   -0.00328460
     atom  122 type  2   force =     0.00000006    0.00000255   -0.00001091
     atom  123 type  2   force =    -0.00019001    0.00003646   -0.00000076
     atom  124 type  2   force =    -0.00000026    0.00000020    0.00149429
     atom  125 type  2   force =     0.00000043   -0.00000474   -0.00002428
     atom  126 type  2   force =    -0.00009789    0.00003583   -0.00011820
     atom  127 type  1   force =     0.00000435    0.00000256   -0.00014081
     atom  128 type  1   force =    -0.00000088   -0.00000223    0.00191416
     atom  129 type  1   force =     0.00000506    0.00000329   -0.00003765
     atom  130 type  2   force =     0.00000059   -0.00000005   -0.00328530
     atom  131 type  2   force =     0.00000499    0.00000158   -0.00000498
     atom  132 type  2   force =    -0.00008314   -0.00004821   -0.00011616
     atom  133 type  2   force =    -0.00000743   -0.00000266    0.00148292
     atom  134 type  2   force =     0.00000304   -0.00000387   -0.00002469
     atom  135 type  2   force =     0.00000230    0.00000127   -0.00021697
     atom  136 type  1   force =     0.00003801   -0.00002201   -0.00007872
     atom  137 type  1   force =    -0.00000230    0.00000045    0.00191414
     atom  138 type  1   force =    -0.00000615    0.00000016   -0.00002355
     atom  139 type  2   force =     0.00000054    0.00000003   -0.00328530
     atom  140 type  2   force =     0.00000389    0.00000362   -0.00000482
     atom  141 type  2   force =    -0.00006337   -0.00018336   -0.00000072
     atom  142 type  2   force =    -0.00000625   -0.00000475    0.00148299
     atom  143 type  2   force =    -0.00000190    0.00000459   -0.00002501
     atom  144 type  2   force =    -0.00001771   -0.00010345   -0.00011814
     atom  145 type  3   force =    -0.00000706    0.00000535   -0.00097236
     atom  146 type  4   force =     0.00000137    0.00000313    0.00088030

     Total force =     0.002161     Total SCF correction =     0.000569
     SCF correction compared to forces is large: reduce conv_thr to get better values
     Energy error            =      1.1E-05 Ry
     Gradient error          =      9.7E-04 Ry/Bohr

     bfgs converged in  11 scf cycles and  10 bfgs steps
     (criteria: energy <  1.0E-04 Ry, force <  1.0E-03 Ry/Bohr)

     End of BFGS Geometry Optimization

     Final energy             =  -26031.7149223877 Ry

     File ./outdir/pwscf.bfgs deleted, as requested
Begin final coordinates

ATOMIC_POSITIONS (angstrom)
Mo               1.5685040199        2.7157645151        6.0867871290
Mo               1.5769197498        0.9104407117       -6.0872367793    0   0   0
Mo               0.0001759803        1.8210181469       -0.0004593904
S                0.0000044503        0.0000077495       -7.6506323570    0   0   0
S                1.5766392945        0.9109414720       -1.5666290729
S                0.0014504834        1.8217527951        4.5054201447
S                0.0000053241        0.0000068460       -4.5222282367    0   0   0
S                1.5773233149        0.9100098711        1.5657512655
S               -0.0152951066        1.8075009694        7.6471426204
Mo              -0.0176605334        5.4630804674        6.0867925433
Mo               0.0000011799        3.6417399547       -6.0872367793    0   0   0
Mo              -1.5767110313        4.5522621468       -0.0004603150
S               -1.5769141197        2.7313069925       -7.6506323570    0   0   0
S                0.0001722516        3.6418464651       -1.5657525310
S               -1.5754213815        4.5529809917        4.5054208675
S               -1.5769132459        2.7313060890       -4.5222282367    0   0   0
S                0.0008680936        3.6422487396        1.5670076855
S               -1.5961409642        4.5456014542        7.6471439880
Mo              -1.5783961152        8.1947296844        6.0784445101
Mo              -1.5769173901        6.3730391977       -6.0872367793    0   0   0
Mo              -3.1538570019        7.2833237765       -0.0019452815
S               -3.1538326896        5.4626062355       -7.6506323570    0   0   0
S               -1.5766296454        6.3725574714       -1.5666287188
S               -3.1538549187        7.2858909891        4.5096523793
S               -3.1538318159        5.4626053320       -4.5222282367    0   0   0
S               -1.5770962754        6.3736143877        1.5657514518
S               -3.1538541794        7.2810505652        7.6436087605
Mo               3.1538162679       -0.0016916558        6.0784417972
Mo              -3.1538359601        9.1043384407       -6.0872367793    0   0   0
Mo              -4.7308973708       10.0148364332       -0.0019446212
S               -4.7307512596        8.1939054785       -7.6506323570    0   0   0
S               -3.1538584499        9.1043326011       -1.5673261262
S               -4.7286651740       10.0135354698        4.5096518250
S               -4.7307503859        8.1939045750       -4.5222282367    0   0   0
S               -3.1538592274        9.1043316776        1.5645519647
S               -4.7328522374       10.0159564862        7.6436081675
Mo               4.7391229857        2.7157585549        6.0867818025
Mo               4.7307503218        0.9104407117       -6.0872367793    0   0   0
Mo               3.1538115494        1.8209963861       -0.0012029537
S                3.1538350223        0.0000077495       -7.6506323570    0   0   0
S                4.7309842867        0.9109408368       -1.5666305620
S                3.1538105139        1.8217176245        4.5166224712
S                3.1538358961        0.0000068460       -4.5222282367    0   0   0
S                4.7303015171        0.9100109594        1.5657503453
S                3.1538147685        1.8145860541        7.6495282509
Mo               3.1538147239        5.4625795266        6.1313118169
Mo               3.1538317519        3.6417399547       -6.0872367793    0   0   0
Mo               1.5772112755        4.5523503621       -0.0005046759
S                1.5769164523        2.7313069925       -7.6506323570    0   0   0
S                3.1538085038        3.6420056254       -1.5661882513
S                1.5945963275        4.5623750944        4.5566408884
S                1.5769173261        2.7313060890       -4.5222282367    0   0   0
S                3.1538086836        3.6415572858        1.5668697516
S                1.4666176573        4.4884788076        7.7141296410
Mo               1.5676424026        8.2089147083        6.0867978728
Mo               1.5769131819        6.3730391977       -6.0872367793    0   0   0
Mo               0.0000856264        7.2834018188       -0.0012006374
S               -0.0000021176        5.4626062355       -7.6506323570    0   0   0
S                1.5771254829        6.3728962908       -1.5661874769
S                0.0007254057        7.2830230014        4.5166316274
S               -0.0000012439        5.4626053320       -4.5222282367    0   0   0
S                1.5767391174        6.3731198933        1.5668701193
S               -0.0054573263        7.2865882095        7.6495347971
Mo               6.3097646119        0.0012105453        6.0704702110
Mo              -0.0000053881        9.1043384407       -6.0872367793    0   0   0
Mo              -1.5768211144       10.0148372277       -0.0019440431
S               -1.5769206876        8.1939054785       -7.6506323570    0   0   0
S                0.0005393561        9.1043014905       -1.5666281486
S               -1.5790497360       10.0135364346        4.5096496194
S               -1.5769198139        8.1939045750       -4.5222282367    0   0   0
S               -0.0006098260        9.1041756550        1.5657521366
S               -1.5748591414       10.0159586641        7.6436071336
Mo               7.8865096849        2.7301641193        6.0715183921
Mo               7.8845808939        0.9104407117       -6.0872367793    0   0   0
Mo               6.3074457317        1.8210186982       -0.0004612166
S                6.3076655943        0.0000077495       -7.6506323570    0   0   0
S                7.8845893012        0.9104531505       -1.5656849992
S                6.3061787166        1.8217519619        4.5054133984
S                6.3076664681        0.0000068460       -4.5222282367    0   0   0
S                7.8843075304        0.9102929425        1.5663466932
S                6.3229235652        1.8074972378        7.6471384728
Mo               6.3252844147        5.4630804504        6.0867899689
Mo               6.3076623239        3.6417399547       -6.0872367793    0   0   0
Mo               4.7304041141        4.5523506277       -0.0005058718
S                4.7307470244        2.7313069925       -7.6506323570    0   0   0
S                6.3074433704        3.6418469314       -1.5657551926
S                4.7130290148        4.5623721328        4.5566372127
S                4.7307478981        2.7313060890       -4.5222282367    0   0   0
S                6.3067481311        3.6422485758        1.5670058864
S                4.8410276577        4.4884633119        7.7141279846
Mo               4.7399685610        8.2089141640        6.0868007712
Mo               4.7307437539        6.3730391977       -6.0872367793    0   0   0
Mo               3.1538046022        7.2830977275       -0.0005052125
S                3.1538284544        5.4626062355       -7.6506323570    0   0   0
S                4.7304838520        6.3728957584       -1.5661900428
S                3.1538071029        7.2630135944        4.5566486271
S                3.1538293281        5.4626053320       -4.5222282367    0   0   0
S                4.7308736836        6.3731210598        1.5668676028
S                3.1538059055        7.4107733356        7.7141328705
Mo               9.4614776984        0.0022419277        6.0715223294
Mo               3.1538251839        9.1043384407       -6.0872367793    0   0   0
Mo               1.5769172649       10.0145225806       -0.0004588911
S                1.5769098844        8.1939054785       -7.6506323570    0   0   0
S                3.1538015291        9.1041088491       -1.5657528271
S                1.5769345777       10.0130271591        4.5054220263
S                1.5769107581        8.1939045750       -4.5222282367    0   0   0
S                3.1538021846        9.1033034271        1.5670068459
S                1.5729619024       10.0346646506        7.6471444036
Mo              -1.5788834266        2.7301643191        6.0715207136
Mo              11.0384114659        0.9104407117       -6.0872367793    0   0   0
Mo               9.4614716547        1.8208683734       -0.0004034213
S                9.4614961663        0.0000077495       -7.6506323570    0   0   0
S               11.0383570307        0.9104537348       -1.5656843044
S                9.4614758435        1.8208561728        4.5041046290
S                9.4614970401        0.0000068460       -4.5222282367    0   0   0
S               11.0386360327        0.9102909543        1.5663474875
S                9.4614732881        1.8208586458        7.6401531266
Mo              -3.1538503370        5.4601454778        6.0704734695
Mo               9.4614928959        3.6417399547       -6.0872367793    0   0   0
Mo               7.8843253186        4.5522618934       -0.0004621378
S                7.8845775964        2.7313069925       -7.6506323570    0   0   0
S                9.4614700019        3.6416977453       -1.5656857624
S                7.8830448103        4.5529815615        4.5054175382
S                7.8845784701        2.7313060890       -4.5222282367    0   0   0
S                9.4614675189        3.6420218422        1.5663460111
S                7.9037654939        4.5456014295        7.6471418751
Mo              -4.7293143667        8.1947283760        6.0784452607
Mo               7.8845743259        6.3730391977       -6.0872367793    0   0   0
Mo               6.3075234498        7.2834010919       -0.0012051770
S                6.3076590264        5.4626062355       -7.6506323570    0   0   0
S                7.8842424145        6.3725566436       -1.5666324672
S                6.3068866699        7.2830248195        4.5166310001
S                6.3076599001        5.4626053320       -4.5222282367    0   0   0
S                7.8847037603        6.3736139678        1.5657486811
S                6.3130698571        7.2865852759        7.6495356876
Mo              -0.0021313337        0.0012111830        6.0704757260
Mo               6.3076557559        9.1043384407       -6.0872367793    0   0   0
Mo               4.7306852737       10.0145220713       -0.0004601343
S                4.7307404564        8.1939054785       -7.6506323570    0   0   0
S                6.3070657671        9.1043030891       -1.5666311746
S                4.7306763396       10.0130266939        4.5054254363
S                4.7307413301        8.1939045750       -4.5222282367    0   0   0
S                6.3082134993        9.1041731028        1.5657494689
S                4.7346458800       10.0346649038        7.6471466567
Pt               3.1538489396        5.4625673286        8.9200641115
Pd               3.1540328920        5.4630625318       11.5109308319
End final coordinates



     Writing all to output data dir ./outdir/pwscf.save/ :
     XML data file, charge density, pseudopotentials, collected wavefunctions
 
     init_run     :     93.96s CPU     96.64s WALL (       1 calls)
     electrons    :  48947.03s CPU  49721.97s WALL (      11 calls)
     update_pot   :     13.08s CPU     13.52s WALL (      10 calls)
     forces       :    770.21s CPU    787.53s WALL (      11 calls)
     force_dftd3  :      4.15s CPU      4.32s WALL (      11 calls)

     Called by init_run:
     wfcinit      :     76.05s CPU     77.15s WALL (       1 calls)
     potinit      :      1.08s CPU      1.44s WALL (       1 calls)
     hinit0       :      9.15s CPU      9.24s WALL (       1 calls)

     Called by electrons:
     c_bands      :  42104.58s CPU  42557.45s WALL (     161 calls)
     sum_band     :   5866.26s CPU   6032.94s WALL (     161 calls)
     v_of_rho     :     46.42s CPU     52.15s WALL (     164 calls)
     newd         :    820.82s CPU    972.65s WALL (     164 calls)
     PAW_pot      :    130.22s CPU    131.59s WALL (     174 calls)
     mix_rho      :     12.93s CPU     14.65s WALL (     161 calls)
     energy_dftd3 :      2.35s CPU      2.36s WALL (      11 calls)

     Called by c_bands:
     init_us_2    :    222.66s CPU    223.76s WALL (    1376 calls)
     init_us_2:cp :    222.65s CPU    223.76s WALL (    1376 calls)
     cegterg      :  41211.49s CPU  41660.18s WALL (     655 calls)

     Called by *egterg:
     cdiaghg      :   2259.50s CPU   2349.25s WALL (    7885 calls)
     h_psi        :  21599.33s CPU  21755.35s WALL (    7961 calls)
     s_psi        :   4470.30s CPU   4489.50s WALL (    7961 calls)
     g_psi        :     46.39s CPU     46.57s WALL (    7302 calls)

     Called by h_psi:
     h_psi:calbec :   4464.83s CPU   4482.75s WALL (    7961 calls)
     vloc_psi     :  12558.16s CPU  12637.15s WALL (    7961 calls)
     add_vuspsi   :   4471.26s CPU   4492.65s WALL (    7961 calls)

     General routines
     calbec       :   6421.14s CPU   6446.48s WALL (    8821 calls)
     fft          :     35.76s CPU     40.88s WALL (    2249 calls)
     ffts         :      2.09s CPU      2.15s WALL (     325 calls)
     fftw         :   9565.35s CPU   9623.87s WALL ( 3334872 calls)
     interpolate  :      3.98s CPU      4.36s WALL (     164 calls)
 
     Parallel routines
 
     PWSCF        :     13h54m CPU     14h 8m WALL

 
   This run was terminated on:   5:58:34   9Mar2024            

=------------------------------------------------------------------------------=
   JOB DONE.
=------------------------------------------------------------------------------=
