
     Program PWSCF v.7.3 starts on 14Mar2024 at 10:36:48 

     This program is part of the open-source Quantum ESPRESSO suite
     for quantum simulation of materials; please cite
         "P. Giannozzi et al., J. Phys.:Condens. Matter 21 395502 (2009);
         "P. Giannozzi et al., J. Phys.:Condens. Matter 29 465901 (2017);
         "P. Giannozzi et al., J. Chem. Phys. 152 154105 (2020);
          URL http://www.quantum-espresso.org", 
     in publications or presentations arising from this work. More details at
     http://www.quantum-espresso.org/quote

     Parallel version (MPI & OpenMP), running on      36 processor cores
     Number of MPI processes:                36
     Threads/MPI process:                     1

     MPI processes distributed on     1 nodes
     557391 MiB available memory on the printing compute node when the environment starts
 
     Waiting for input...
     Reading input from standard input
Warning: card &CELL ignored
Warning: card / ignored

     Current dimensions of program PWSCF are:
     Max number of different atomic species (ntypx) = 10
     Max number of k-points (npk) =  40000
     Max angular momentum in pseudopotentials (lmaxx) =  4
     file Mo.pbe-spn-kjpaw_psl.1.0.0.UPF: wavefunction(s)  4S 4D renormalized
     file S.pbe-n-kjpaw_psl.1.0.0.UPF: wavefunction(s)  3S 3P renormalized
     file Pt.pbe-spfn-kjpaw_psl.1.0.0.UPF: wavefunction(s)  5P 4F renormalized
     file Pd.pbe-spn-kjpaw_psl.1.0.0.UPF: wavefunction(s)  4S 5S 4D renormalized
 
     R & G space division:  proc/nbgrp/npool/nimage =      36
     Subspace diagonalization in iterative solution of the eigenvalue problem:
     one sub-group per band group will be used
     scalapack distributed-memory algorithm (size of sub-group:  6*  6 procs)

 
     Parallelization info
     --------------------
     sticks:   dense  smooth     PW     G-vecs:    dense   smooth      PW
     Min         585     334     89               198743    85850   11735
     Max         586     335     90               198750    85861   11748
     Sum       21073   12049   3205              7154885  3090769  422587
 
     Using Slab Decomposition
 


     bravais-lattice index     =            0
     lattice parameter (alat)  =      23.8199  a.u.
     unit-cell volume          =   33861.0370 (a.u.)^3
     number of atoms/cell      =          194
     number of atomic types    =            4
     number of electrons       =      1714.00
     number of Kohn-Sham states=         1028
     kinetic-energy cutoff     =      77.0000  Ry
     charge density cutoff     =     539.0000  Ry
     scf convergence threshold =      1.0E-06
     mixing beta               =       0.2000
     number of iterations used =            8  plain     mixing
     energy convergence thresh.=      1.0E-04
     force convergence thresh. =      1.0E-03
     Exchange-correlation= SLA  PW   PBX  PBC
                           (   1   4   3   4   0   0   0)
     nstep                     =         1000


     Effective Screening Medium Method
     =================================
     Boundary Conditions: Vacuum-Slab-Vacuum
     total charge in unit cell        =   0.0000
     grid points for fit at edges     =        4 
 

     celldm(1)=  23.819920  celldm(2)=   0.000000  celldm(3)=   0.000000
     celldm(4)=   0.000000  celldm(5)=   0.000000  celldm(6)=   0.000000

     crystal axes: (cart. coord. in units of alat)
               a(1) = (   1.000000   0.000000   0.000000 )  
               a(2) = (  -0.499999   0.866026   0.000000 )  
               a(3) = (   0.000000   0.000000   2.893000 )  

     reciprocal axes: (cart. coord. in units 2 pi/alat)
               b(1) = (  1.000000  0.577349  0.000000 )  
               b(2) = (  0.000000  1.154700  0.000000 )  
               b(3) = (  0.000000  0.000000  0.345662 )  


     PseudoPot. # 1 for Mo read from file:
     ./pseudo/Mo.pbe-spn-kjpaw_psl.1.0.0.UPF
     MD5 check sum: 317bf72632116215fd98f72de1686f13
     Pseudo is Projector augmented-wave + core cor, Zval = 14.0
     Generated using 'atomic' code by A. Dal Corso  v.7.2
     Shape of augmentation charge: PSQ
     Using radial grid of 1229 points,  6 beta functions with: 
                l(1) =   0
                l(2) =   0
                l(3) =   1
                l(4) =   1
                l(5) =   2
                l(6) =   2
     Q(r) pseudized with 0 coefficients 


     PseudoPot. # 2 for S  read from file:
     ./pseudo/S.pbe-n-kjpaw_psl.1.0.0.UPF
     MD5 check sum: 8b7b5302570d38d5e87fed6a1065abda
     Pseudo is Projector augmented-wave + core cor, Zval =  6.0
     Generated using 'atomic' code by A. Dal Corso  v.7.2
     Shape of augmentation charge: PSQ
     Using radial grid of 1151 points,  6 beta functions with: 
                l(1) =   0
                l(2) =   0
                l(3) =   1
                l(4) =   1
                l(5) =   2
                l(6) =   2
     Q(r) pseudized with 0 coefficients 


     PseudoPot. # 3 for Pt read from file:
     ./pseudo/Pt.pbe-spfn-kjpaw_psl.1.0.0.UPF
     MD5 check sum: 620096ebf4e6ebacc94de60fd67efcb5
     Pseudo is Projector augmented-wave + core cor, Zval = 32.0
     Generated using 'atomic' code by A. Dal Corso  v.7.2
     Shape of augmentation charge: PSQ
     Using radial grid of 1277 points,  8 beta functions with: 
                l(1) =   0
                l(2) =   0
                l(3) =   1
                l(4) =   1
                l(5) =   2
                l(6) =   2
                l(7) =   3
                l(8) =   3
     Q(r) pseudized with 0 coefficients 


     PseudoPot. # 4 for Pd read from file:
     ./pseudo/Pd.pbe-spn-kjpaw_psl.1.0.0.UPF
     MD5 check sum: a60571a671f2502b8a6a4569d20a6edb
     Pseudo is Projector augmented-wave + core cor, Zval = 18.0
     Generated using 'atomic' code by A. Dal Corso  v.7.2
     Shape of augmentation charge: PSQ
     Using radial grid of 1235 points,  6 beta functions with: 
                l(1) =   0
                l(2) =   0
                l(3) =   1
                l(4) =   1
                l(5) =   2
                l(6) =   2
     Q(r) pseudized with 0 coefficients 


     atomic species   valence    mass     pseudopotential
     Mo               14.00    95.95000     Mo( 1.00)
     S                 6.00    32.06000     S ( 1.00)
     Pt               32.00   195.08400     Pt( 1.00)
     Pd               18.00   106.42000     Pd( 1.00)

     No symmetry found



   Cartesian axes

     site n.     atom                  positions (alat units)
         1        Mo     tau(   1) = (   0.0000010   0.1443372  -0.7272732  )
         2        Mo     tau(   2) = (   0.1249995   0.0721706  -0.2424038  )
         3        S      tau(   3) = (   0.0000015   0.1443386  -0.3667807  )
         4        S      tau(   4) = (   0.1250010   0.0721682  -0.6030489  )
         5        S      tau(   5) = (   0.1250010   0.0721683  -0.8514963  )
         6        S      tau(   6) = (   0.0000015   0.1443389  -0.1180260  )
         7        Mo     tau(   7) = (   0.0000014   0.1443616   0.2424356  )
         8        Mo     tau(   8) = (   0.1250042   0.0720311   0.7263989  )
         9        S      tau(   9) = (   0.0000639   0.1447004   0.6020022  )
        10        S      tau(  10) = (   0.1250030   0.0721650   0.3667578  )
        11        S      tau(  11) = (   0.1250031   0.0721991   0.1180453  )
        12        S      tau(  12) = (  -0.0005532   0.1426765   0.8513101  )
        13        Mo     tau(  13) = (  -0.1249989   0.3608437  -0.7272732  )
        14        Mo     tau(  14) = (   0.0000030   0.2886752  -0.2424042  )
        15        S      tau(  15) = (  -0.1249977   0.3608450  -0.3667802  )
        16        S      tau(  16) = (   0.0000012   0.2886747  -0.6030489  )
        17        S      tau(  17) = (   0.0000012   0.2886748  -0.8514963  )
        18        S      tau(  18) = (  -0.1249977   0.3608454  -0.1180274  )
        19        Mo     tau(  19) = (  -0.1249758   0.3608563   0.2424461  )
        20        Mo     tau(  20) = (  -0.0009250   0.2875651   0.7279418  )
        21        S      tau(  21) = (  -0.1248723   0.3609173   0.6030853  )
        22        S      tau(  22) = (   0.0000474   0.2887247   0.3668317  )
        23        S      tau(  23) = (   0.0000000   0.2886879   0.1180554  )
        24        S      tau(  24) = (  -0.1255989   0.3604976   0.8519229  )
        25        Mo     tau(  25) = (  -0.2499987   0.5773502  -0.7272732  )
        26        Mo     tau(  26) = (  -0.1249977   0.5051839  -0.2424055  )
        27        S      tau(  27) = (  -0.2499981   0.5773518  -0.3667809  )
        28        S      tau(  28) = (  -0.1249986   0.5051812  -0.6030489  )
        29        S      tau(  29) = (  -0.1249986   0.5051813  -0.8514963  )
        30        S      tau(  30) = (  -0.2499979   0.5773512  -0.1180266  )
        31        Mo     tau(  31) = (  -0.2499765   0.5773372   0.2424355  )
        32        Mo     tau(  32) = (  -0.1264232   0.5049348   0.7279418  )
        33        S      tau(  33) = (  -0.2496528   0.5772237   0.6020023  )
        34        S      tau(  34) = (  -0.1249318   0.5051954   0.3668318  )
        35        S      tau(  35) = (  -0.1249873   0.5051727   0.1180553  )
        36        S      tau(  36) = (  -0.2517142   0.5777014   0.8513102  )
        37        Mo     tau(  37) = (  -0.3749985   0.7938567  -0.7272732  )
        38        Mo     tau(  38) = (  -0.2500001   0.7216874  -0.2424031  )
        39        S      tau(  39) = (  -0.3749980   0.7938584  -0.3667800  )
        40        S      tau(  40) = (  -0.2499984   0.7216877  -0.6030489  )
        41        S      tau(  41) = (  -0.2499984   0.7216878  -0.8514963  )
        42        S      tau(  42) = (  -0.3749982   0.7938585  -0.1180264  )
        43        Mo     tau(  43) = (  -0.3749961   0.7938572   0.2423820  )
        44        Mo     tau(  44) = (  -0.2501160   0.7217599   0.7263989  )
        45        S      tau(  45) = (  -0.3749948   0.7938592   0.6019084  )
        46        S      tau(  46) = (  -0.2499995   0.7216903   0.3667578  )
        47        S      tau(  47) = (  -0.2499699   0.7216732   0.1180452  )
        48        S      tau(  48) = (  -0.3749951   0.7938590   0.8508262  )
        49        Mo     tau(  49) = (   0.2500010   0.1443372  -0.7272732  )
        50        Mo     tau(  50) = (   0.3750034   0.0721723  -0.2424032  )
        51        S      tau(  51) = (   0.2500017   0.1443391  -0.3667788  )
        52        S      tau(  52) = (   0.3750010   0.0721682  -0.6030489  )
        53        S      tau(  53) = (   0.3750010   0.0721683  -0.8514963  )
        54        S      tau(  54) = (   0.2500016   0.1443391  -0.1180271  )
        55        Mo     tau(  55) = (   0.2500050   0.1443618   0.2424356  )
        56        Mo     tau(  56) = (   0.3749291   0.0721273   0.7261578  )
        57        S      tau(  57) = (   0.2499446   0.1447002   0.6020022  )
        58        S      tau(  58) = (   0.3750312   0.0721852   0.3667808  )
        59        S      tau(  59) = (   0.3749943   0.0721639   0.1180502  )
        60        S      tau(  60) = (   0.2505615   0.1426764   0.8513103  )
        61        Mo     tau(  61) = (   0.1250012   0.3608437  -0.7272732  )
        62        Mo     tau(  62) = (   0.2500029   0.2886782  -0.2424031  )
        63        S      tau(  63) = (   0.1250024   0.3608455  -0.3667794  )
        64        S      tau(  64) = (   0.2500012   0.2886747  -0.6030489  )
        65        S      tau(  65) = (   0.2500012   0.2886748  -0.8514963  )
        66        S      tau(  66) = (   0.1250021   0.3608455  -0.1180270  )
        67        Mo     tau(  67) = (   0.1250036   0.3608788   0.2424134  )
        68        Mo     tau(  68) = (   0.2509342   0.2875650   0.7279417  )
        69        S      tau(  69) = (   0.1250047   0.3631022   0.6070003  )
        70        S      tau(  70) = (   0.2499595   0.2887248   0.3668321  )
        71        S      tau(  71) = (   0.2500069   0.2886879   0.1180551  )
        72        S      tau(  72) = (   0.1250048   0.3485809   0.8580653  )
        73        Mo     tau(  73) = (   0.0000014   0.5773502  -0.7272732  )
        74        Mo     tau(  74) = (   0.1250045   0.5051840  -0.2424036  )
        75        S      tau(  75) = (   0.0000030   0.5773520  -0.3667799  )
        76        S      tau(  76) = (   0.1250014   0.5051812  -0.6030489  )
        77        S      tau(  77) = (   0.1250014   0.5051813  -0.8514963  )
        78        S      tau(  78) = (   0.0000026   0.5773517  -0.1180274  )
        79        Mo     tau(  79) = (   0.0000336   0.5773337   0.2424134  )
        80        Mo     tau(  80) = (   0.1250049   0.5051837   0.7323431  )
        81        S      tau(  81) = (   0.0019589   0.5762246   0.6070004  )
        82        S      tau(  82) = (   0.1250038   0.5051820   0.3668453  )
        83        S      tau(  83) = (   0.1250038   0.5051819   0.1180162  )
        84        S      tau(  84) = (  -0.0106172   0.5834855   0.8580649  )
        85        Mo     tau(  85) = (  -0.1249984   0.7938567  -0.7272732  )
        86        Mo     tau(  86) = (   0.0000069   0.7216896  -0.2424039  )
        87        S      tau(  87) = (  -0.1249975   0.7938582  -0.3667782  )
        88        S      tau(  88) = (   0.0000016   0.7216877  -0.6030489  )
        89        S      tau(  89) = (   0.0000016   0.7216878  -0.8514963  )
        90        S      tau(  90) = (  -0.1249973   0.7938582  -0.1180279  )
        91        Mo     tau(  91) = (  -0.1249742   0.7938470   0.2424356  )
        92        Mo     tau(  92) = (  -0.0004933   0.7230516   0.7279416  )
        93        S      tau(  93) = (  -0.1247124   0.7936270   0.6020023  )
        94        S      tau(  94) = (   0.0000246   0.7216257   0.3668322  )
        95        S      tau(  95) = (   0.0000165   0.7216852   0.1180552  )
        96        S      tau(  96) = (  -0.1261568   0.7951731   0.8513104  )
        97        Mo     tau(  97) = (   0.5000010   0.1443372  -0.7272732  )
        98        Mo     tau(  98) = (   0.6250001   0.0721662  -0.2424040  )
        99        S      tau(  99) = (   0.5000017   0.1443386  -0.3667801  )
       100        S      tau( 100) = (   0.6250010   0.0721682  -0.6030489  )
       101        S      tau( 101) = (   0.6250010   0.0721683  -0.8514963  )
       102        S      tau( 102) = (   0.5000020   0.1443388  -0.1180261  )
       103        Mo     tau( 103) = (   0.5000076   0.1443402   0.2423934  )
       104        Mo     tau( 104) = (   0.6250040   0.0723531   0.7270557  )
       105        S      tau( 105) = (   0.5002419   0.1444767   0.6022126  )
       106        S      tau( 106) = (   0.6250031   0.0721699   0.3667634  )
       107        S      tau( 107) = (   0.6250031   0.0721381   0.1180360  )
       108        S      tau( 108) = (   0.4998195   0.1442328   0.8511552  )
       109        Mo     tau( 109) = (   0.3750012   0.3608437  -0.7272732  )
       110        Mo     tau( 110) = (   0.4999991   0.2886761  -0.2424038  )
       111        S      tau( 111) = (   0.3750012   0.3608452  -0.3667804  )
       112        S      tau( 112) = (   0.5000012   0.2886747  -0.6030489  )
       113        S      tau( 113) = (   0.5000012   0.2886748  -0.8514963  )
       114        S      tau( 114) = (   0.3750014   0.3608455  -0.1180261  )
       115        Mo     tau( 115) = (   0.3749823   0.3608562   0.2424462  )
       116        Mo     tau( 116) = (   0.5001624   0.2885857   0.7270558  )
       117        S      tau( 117) = (   0.3748813   0.3609171   0.6030850  )
       118        S      tau( 118) = (   0.5000041   0.2886750   0.3667632  )
       119        S      tau( 119) = (   0.4999767   0.2886908   0.1180361  )
       120        S      tau( 120) = (   0.3756080   0.3604978   0.8519227  )
       121        Mo     tau( 121) = (   0.2500014   0.5773502  -0.7272732  )
       122        Mo     tau( 122) = (   0.3749983   0.5051825  -0.2424043  )
       123        S      tau( 123) = (   0.2500017   0.5773519  -0.3667810  )
       124        S      tau( 124) = (   0.3750014   0.5051812  -0.6030489  )
       125        S      tau( 125) = (   0.3750014   0.5051813  -0.8514963  )
       126        S      tau( 126) = (   0.2500018   0.5773519  -0.1180256  )
       127        Mo     tau( 127) = (   0.2499737   0.5773335   0.2424135  )
       128        Mo     tau( 128) = (   0.3764328   0.5049349   0.7279416  )
       129        S      tau( 129) = (   0.2480514   0.5762247   0.6070002  )
       130        S      tau( 130) = (   0.3749389   0.5051953   0.3668317  )
       131        S      tau( 131) = (   0.3749944   0.5051727   0.1180554  )
       132        S      tau( 132) = (   0.2606253   0.5834843   0.8580650  )
       133        Mo     tau( 133) = (   0.1250016   0.7938567  -0.7272732  )
       134        Mo     tau( 134) = (   0.2499995   0.7216883  -0.2424036  )
       135        S      tau( 135) = (   0.1250024   0.7938578  -0.3667813  )
       136        S      tau( 136) = (   0.2500016   0.7216877  -0.6030489  )
       137        S      tau( 137) = (   0.2500016   0.7216878  -0.8514963  )
       138        S      tau( 138) = (   0.1250024   0.7938579  -0.1180253  )
       139        Mo     tau( 139) = (   0.1250038   0.7938330   0.2424463  )
       140        Mo     tau( 140) = (   0.2505035   0.7230514   0.7279415  )
       141        S      tau( 141) = (   0.1250048   0.7937168   0.6030849  )
       142        S      tau( 142) = (   0.2499835   0.7216255   0.3668318  )
       143        S      tau( 143) = (   0.2499914   0.7216850   0.1180556  )
       144        S      tau( 144) = (   0.1250053   0.7945558   0.8519227  )
       145        Mo     tau( 145) = (   0.7500010   0.1443372  -0.7272732  )
       146        Mo     tau( 146) = (   0.8750038   0.0721696  -0.2424038  )
       147        S      tau( 147) = (   0.7500016   0.1443382  -0.3667789  )
       148        S      tau( 148) = (   0.8750010   0.0721682  -0.6030489  )
       149        S      tau( 149) = (   0.8750010   0.0721683  -0.8514963  )
       150        S      tau( 150) = (   0.7500016   0.1443384  -0.1180279  )
       151        Mo     tau( 151) = (   0.7499988   0.1443404   0.2423934  )
       152        Mo     tau( 152) = (   0.8750792   0.0721276   0.7261574  )
       153        S      tau( 153) = (   0.7497661   0.1444769   0.6022124  )
       154        S      tau( 154) = (   0.8749753   0.0721851   0.3667807  )
       155        S      tau( 155) = (   0.8750121   0.0721637   0.1180502  )
       156        S      tau( 156) = (   0.7501887   0.1442327   0.8511550  )
       157        Mo     tau( 157) = (   0.6250012   0.3608437  -0.7272732  )
       158        Mo     tau( 158) = (   0.7500028   0.2886769  -0.2424041  )
       159        S      tau( 159) = (   0.6250015   0.3608451  -0.3667792  )
       160        S      tau( 160) = (   0.7500012   0.2886747  -0.6030489  )
       161        S      tau( 161) = (   0.7500012   0.2886748  -0.8514963  )
       162        S      tau( 162) = (   0.6250016   0.3608454  -0.1180280  )
       163        Mo     tau( 163) = (   0.6250035   0.3608392   0.2423934  )
       164        Mo     tau( 164) = (   0.7498463   0.2885859   0.7270559  )
       165        S      tau( 165) = (   0.6250044   0.3605709   0.6022125  )
       166        S      tau( 166) = (   0.7500026   0.2886750   0.3667635  )
       167        S      tau( 167) = (   0.7500299   0.2886908   0.1180357  )
       168        S      tau( 168) = (   0.6250043   0.3610591   0.8511551  )
       169        Mo     tau( 169) = (   0.5000014   0.5773502  -0.7272732  )
       170        Mo     tau( 170) = (   0.6250029   0.5051841  -0.2424047  )
       171        S      tau( 171) = (   0.5000014   0.5773518  -0.3667794  )
       172        S      tau( 172) = (   0.6250014   0.5051812  -0.6030489  )
       173        S      tau( 173) = (   0.6250014   0.5051813  -0.8514963  )
       174        S      tau( 174) = (   0.5000016   0.5773516  -0.1180277  )
       175        Mo     tau( 175) = (   0.4999838   0.5773372   0.2424356  )
       176        Mo     tau( 176) = (   0.6250048   0.5052701   0.7261575  )
       177        S      tau( 177) = (   0.4996630   0.5772238   0.6020019  )
       178        S      tau( 178) = (   0.6250037   0.5051496   0.3667806  )
       179        S      tau( 179) = (   0.6250036   0.5051921   0.1180503  )
       180        S      tau( 180) = (   0.5017240   0.5777016   0.8513099  )
       181        Mo     tau( 181) = (   0.3750016   0.7938567  -0.7272732  )
       182        Mo     tau( 182) = (   0.5000025   0.7216901  -0.2424039  )
       183        S      tau( 183) = (   0.3750019   0.7938578  -0.3667793  )
       184        S      tau( 184) = (   0.5000016   0.7216877  -0.6030489  )
       185        S      tau( 185) = (   0.5000016   0.7216878  -0.8514963  )
       186        S      tau( 186) = (   0.3750020   0.7938579  -0.1180272  )
       187        Mo     tau( 187) = (   0.3749825   0.7938468   0.2424356  )
       188        Mo     tau( 188) = (   0.5001261   0.7217601   0.7263985  )
       189        S      tau( 189) = (   0.3747228   0.7936274   0.6020018  )
       190        S      tau( 190) = (   0.5000073   0.7216903   0.3667579  )
       191        S      tau( 191) = (   0.4999777   0.7216732   0.1180450  )
       192        S      tau( 192) = (   0.3761670   0.7951734   0.8513099  )
       193        Pt     tau( 193) = (   0.1250041   0.5051825   0.9498857  )
       194        Pd     tau( 194) = (   0.2505363   0.7230488   0.9788211  )

     --------------------------------------------
     DFT-D3 Dispersion Correction (3-body terms):
     --------------------------------------------
       Reference C6 values for interpolation: 

         atom   Coordination number   C6
         S          0.000           268.01
         S          0.995           261.99
         S          1.990           251.62
         Mo         0.000          1691.79
         Mo         1.942          1004.01
         Mo        11.056           674.22
         Pd         0.000          1217.01
         Pd         1.863           573.90
         Pd         5.710           531.75
         Pt         0.000           782.29
         Pt         1.919           692.72
         Pt         6.667           673.75

       Values used:

         atom   Coordination number  R0_AB[au]  C6      C8
         Mo        10.208            3.547    674.21  77634.20
         Mo        10.221            3.547    674.22  77634.20
         S          3.858            3.128    251.62  12327.25
         S          3.859            3.128    251.62  12327.25
         S          3.758            3.128    251.62  12327.25
         S          3.859            3.128    251.62  12327.25
         Mo        10.220            3.547    674.21  77634.20
         Mo        10.236            3.547    674.22  77634.20
         S          3.844            3.128    251.62  12327.25
         S          3.861            3.128    251.62  12327.25
         S          3.859            3.128    251.62  12327.25
         S          3.829            3.128    251.62  12327.25
         Mo        10.208            3.547    674.22  77634.20
         Mo        10.221            3.547    674.22  77634.20
         S          3.858            3.128    251.62  12327.25
         S          3.859            3.128    251.62  12327.25
         S          3.758            3.128    251.62  12327.25
         S          3.859            3.128    251.62  12327.25
         Mo        10.221            3.547    674.22  77634.20
         Mo        10.192            3.547    674.22  77634.20
         S          3.857            3.128    251.62  12327.25
         S          3.855            3.128    251.62  12327.25
         S          3.859            3.128    251.62  12327.25
         S          3.758            3.128    251.62  12327.25
         Mo        10.208            3.547    674.22  77634.20
         Mo        10.221            3.547    674.22  77634.20
         S          3.858            3.128    251.62  12327.25
         S          3.859            3.128    251.62  12327.25
         S          3.758            3.128    251.62  12327.25
         S          3.859            3.128    251.62  12327.25
         Mo        10.220            3.547    674.22  77634.20
         Mo        10.192            3.547    674.22  77634.20
         S          3.844            3.128    251.62  12327.25
         S          3.855            3.128    251.62  12327.25
         S          3.859            3.128    251.62  12327.25
         S          3.828            3.128    251.62  12327.25
         Mo        10.208            3.547    674.22  77634.20
         Mo        10.221            3.547    674.22  77634.20
         S          3.858            3.128    251.62  12327.25
         S          3.859            3.128    251.62  12327.25
         S          3.758            3.128    251.62  12327.25
         S          3.859            3.128    251.62  12327.25
         Mo        10.219            3.547    674.22  77634.20
         Mo        10.236            3.547    674.22  77634.20
         S          3.852            3.128    251.62  12327.25
         S          3.861            3.128    251.62  12327.25
         S          3.859            3.128    251.62  12327.25
         S          3.792            3.128    251.62  12327.25
         Mo        10.208            3.547    674.22  77634.20
         Mo        10.221            3.547    674.22  77634.20
         S          3.858            3.128    251.62  12327.25
         S          3.859            3.128    251.62  12327.25
         S          3.758            3.128    251.62  12327.25
         S          3.859            3.128    251.62  12327.25
         Mo        10.220            3.547    674.22  77634.20
         Mo        10.250            3.547    674.22  77634.20
         S          3.844            3.128    251.62  12327.25
         S          3.860            3.128    251.62  12327.25
         S          3.859            3.128    251.62  12327.25
         S          3.828            3.128    251.62  12327.25
         Mo        10.208            3.547    674.22  77634.20
         Mo        10.221            3.547    674.22  77634.20
         S          3.858            3.128    251.62  12327.25
         S          3.859            3.128    251.62  12327.25
         S          3.758            3.128    251.62  12327.25
         S          3.859            3.128    251.62  12327.25
         Mo        10.222            3.547    674.22  77634.20
         Mo        10.192            3.547    674.22  77634.20
         S          3.865            3.128    251.62  12327.25
         S          3.855            3.128    251.62  12327.25
         S          3.859            3.128    251.62  12327.25
         S          4.660            3.128    251.62  12327.25
         Mo        10.208            3.547    674.21  77634.20
         Mo        10.221            3.547    674.22  77634.20
         S          3.858            3.128    251.62  12327.25
         S          3.859            3.128    251.62  12327.25
         S          3.758            3.128    251.62  12327.25
         S          3.859            3.128    251.62  12327.25
         Mo        10.222            3.547    674.22  77634.20
         Mo        10.916            3.547    674.22  77634.20
         S          3.865            3.128    251.62  12327.25
         S          3.851            3.128    251.62  12327.25
         S          3.859            3.128    251.62  12327.25
         S          4.667            3.128    251.62  12327.25
         Mo        10.208            3.547    674.22  77634.20
         Mo        10.221            3.547    674.22  77634.20
         S          3.858            3.128    251.62  12327.25
         S          3.859            3.128    251.62  12327.25
         S          3.758            3.128    251.62  12327.25
         S          3.859            3.128    251.62  12327.25
         Mo        10.220            3.547    674.22  77634.20
         Mo        10.199            3.547    674.22  77634.20
         S          3.844            3.128    251.62  12327.25
         S          3.855            3.128    251.62  12327.25
         S          3.859            3.128    251.62  12327.25
         S          3.829            3.128    251.62  12327.25
         Mo        10.208            3.547    674.22  77634.20
         Mo        10.221            3.547    674.22  77634.20
         S          3.858            3.128    251.62  12327.25
         S          3.859            3.128    251.62  12327.25
         S          3.758            3.128    251.62  12327.25
         S          3.859            3.128    251.62  12327.25
         Mo        10.220            3.547    674.22  77634.20
         Mo        10.243            3.547    674.22  77634.20
         S          3.860            3.128    251.62  12327.25
         S          3.860            3.128    251.62  12327.25
         S          3.859            3.128    251.62  12327.25
         S          3.769            3.128    251.62  12327.25
         Mo        10.208            3.547    674.22  77634.20
         Mo        10.221            3.547    674.22  77634.20
         S          3.858            3.128    251.62  12327.25
         S          3.859            3.128    251.62  12327.25
         S          3.758            3.128    251.62  12327.25
         S          3.859            3.128    251.62  12327.25
         Mo        10.221            3.547    674.22  77634.20
         Mo        10.236            3.547    674.22  77634.20
         S          3.857            3.128    251.62  12327.25
         S          3.860            3.128    251.62  12327.25
         S          3.859            3.128    251.62  12327.25
         S          3.758            3.128    251.62  12327.25
         Mo        10.208            3.547    674.22  77634.20
         Mo        10.221            3.547    674.22  77634.20
         S          3.858            3.128    251.62  12327.25
         S          3.859            3.128    251.62  12327.25
         S          3.758            3.128    251.62  12327.25
         S          3.859            3.128    251.62  12327.25
         Mo        10.222            3.547    674.22  77634.20
         Mo        10.199            3.547    674.22  77634.20
         S          3.866            3.128    251.62  12327.25
         S          3.855            3.128    251.62  12327.25
         S          3.859            3.128    251.62  12327.25
         S          5.622            3.128    251.62  12327.25
         Mo        10.208            3.547    674.22  77634.20
         Mo        10.221            3.547    674.22  77634.20
         S          3.858            3.128    251.62  12327.25
         S          3.859            3.128    251.62  12327.25
         S          3.758            3.128    251.62  12327.25
         S          3.859            3.128    251.62  12327.25
         Mo        10.221            3.547    674.22  77634.20
         Mo        10.605            3.547    674.22  77634.20
         S          3.858            3.128    251.62  12327.25
         S          3.855            3.128    251.62  12327.25
         S          3.859            3.128    251.62  12327.25
         S          4.681            3.128    251.62  12327.25
         Mo        10.208            3.547    674.22  77634.20
         Mo        10.221            3.547    674.22  77634.20
         S          3.858            3.128    251.62  12327.25
         S          3.859            3.128    251.62  12327.25
         S          3.758            3.128    251.62  12327.25
         S          3.859            3.128    251.62  12327.25
         Mo        10.220            3.547    674.22  77634.20
         Mo        10.257            3.547    674.22  77634.20
         S          3.860            3.128    251.62  12327.25
         S          3.860            3.128    251.62  12327.25
         S          3.859            3.128    251.62  12327.25
         S          3.777            3.128    251.62  12327.25
         Mo        10.208            3.547    674.22  77634.20
         Mo        10.220            3.547    674.22  77634.20
         S          3.858            3.128    251.62  12327.25
         S          3.859            3.128    251.62  12327.25
         S          3.758            3.128    251.62  12327.25
         S          3.859            3.128    251.62  12327.25
         Mo        10.220            3.547    674.22  77634.20
         Mo        10.236            3.547    674.22  77634.20
         S          3.860            3.128    251.62  12327.25
         S          3.860            3.128    251.62  12327.25
         S          3.859            3.128    251.62  12327.25
         S          3.768            3.128    251.62  12327.25
         Mo        10.208            3.547    674.22  77634.20
         Mo        10.221            3.547    674.22  77634.20
         S          3.858            3.128    251.62  12327.25
         S          3.859            3.128    251.62  12327.25
         S          3.758            3.128    251.62  12327.25
         S          3.859            3.128    251.62  12327.25
         Mo        10.220            3.547    674.22  77634.20
         Mo        10.250            3.547    674.22  77634.20
         S          3.844            3.128    251.62  12327.25
         S          3.860            3.128    251.62  12327.25
         S          3.859            3.128    251.62  12327.25
         S          3.836            3.128    251.62  12327.25
         Mo        10.208            3.547    674.21  77634.20
         Mo        10.221            3.547    674.22  77634.20
         S          3.858            3.128    251.62  12327.25
         S          3.859            3.128    251.62  12327.25
         S          3.758            3.128    251.62  12327.25
         S          3.859            3.128    251.62  12327.25
         Mo        10.220            3.547    674.22  77634.20
         Mo        10.243            3.547    674.22  77634.20
         S          3.845            3.128    251.62  12327.25
         S          3.861            3.128    251.62  12327.25
         S          3.859            3.128    251.62  12327.25
         S          4.746            3.128    251.62  12327.25
         Pt         4.242            3.168    690.26  71779.54
         Pd         3.516            3.168    573.89  52582.08

         Molecular C6 ( Ry / a.u.^6 ) =  13985726.23


     number of k points=     4  Gaussian smearing, width (Ry)=  0.0100
                       cart. coord. in units 2pi/alat
        k(    1) = (   0.0000000   0.0000000   0.0000000), wk =   0.5000000
        k(    2) = (   0.0000000  -0.5773499   0.0000000), wk =   0.5000000
        k(    3) = (  -0.5000000  -0.2886744   0.0000000), wk =   0.5000000
        k(    4) = (  -0.5000000  -0.8660242   0.0000000), wk =   0.5000000

     Dense  grid:  7154885 G-vectors     FFT dimensions: ( 180, 180, 512)

     Smooth grid:  3090769 G-vectors     FFT dimensions: ( 135, 135, 400)

     Estimated max dynamical RAM per process >       4.31 GB

     Estimated total dynamical RAM >     155.10 GB

     Initial potential from superposition of free atoms

     starting charge    1713.9389, renormalised to    1714.0000

     negative rho (up, down):  9.046E-04 0.000E+00
     Starting wfcs are 1179 randomized atomic wfcs
     Checking if some PAW data can be deallocated... 

     total cpu time spent up to now is      179.4 secs

     Self-consistent Calculation

     iteration #  1     ecut=    77.00 Ry     beta= 0.20
     Davidson diagonalization with overlap
     ethr =  1.00E-02,  avg # of iterations =  2.0

     Threshold (ethr) on eigenvalues was too large:
     Diagonalizing with lowered threshold

     Davidson diagonalization with overlap
     ethr =  1.62E-04,  avg # of iterations = 15.5

     negative rho (up, down):  2.461E-04 0.000E+00

     total cpu time spent up to now is     2237.1 secs

     total energy              =  -33980.25589068 Ry
     estimated scf accuracy    <       6.60631499 Ry

     iteration #  2     ecut=    77.00 Ry     beta= 0.20
     Davidson diagonalization with overlap
     ethr =  3.85E-04,  avg # of iterations =  2.0

     negative rho (up, down):  2.599E-05 0.000E+00

     total cpu time spent up to now is     2644.4 secs

     total energy              =  -33978.88370729 Ry
     estimated scf accuracy    <       3.44796416 Ry

     iteration #  3     ecut=    77.00 Ry     beta= 0.20
     Davidson diagonalization with overlap
     c_bands:  1 eigenvalues not converged
     c_bands:  1 eigenvalues not converged
     c_bands:  1 eigenvalues not converged
     ethr =  2.01E-04,  avg # of iterations = 20.0

     negative rho (up, down):  2.157E-05 0.000E+00

     total cpu time spent up to now is     3197.3 secs

     total energy              =  -33979.27648693 Ry
     estimated scf accuracy    <       1.98272579 Ry

     iteration #  4     ecut=    77.00 Ry     beta= 0.20
     Davidson diagonalization with overlap
     c_bands:  1 eigenvalues not converged
     ethr =  1.16E-04,  avg # of iterations = 11.5

     negative rho (up, down):  1.528E-05 0.000E+00

     total cpu time spent up to now is     3687.1 secs

     total energy              =  -33979.52962548 Ry
     estimated scf accuracy    <       0.49128075 Ry

     iteration #  5     ecut=    77.00 Ry     beta= 0.20
     Davidson diagonalization with overlap
     c_bands:  2 eigenvalues not converged
     c_bands:  2 eigenvalues not converged
     ethr =  2.87E-05,  avg # of iterations = 20.5

     negative rho (up, down):  2.487E-05 0.000E+00

     total cpu time spent up to now is     5542.2 secs

     total energy              =  -33980.23654655 Ry
     estimated scf accuracy    <       0.52783320 Ry

     iteration #  6     ecut=    77.00 Ry     beta= 0.20
     Davidson diagonalization with overlap
     ethr =  2.87E-05,  avg # of iterations =  1.2

     negative rho (up, down):  5.384E-05 0.000E+00

     total cpu time spent up to now is     5920.2 secs

     total energy              =  -33980.17900064 Ry
     estimated scf accuracy    <       0.31070610 Ry

     iteration #  7     ecut=    77.00 Ry     beta= 0.20
     Davidson diagonalization with overlap
     ethr =  1.81E-05,  avg # of iterations =  8.0

     negative rho (up, down):  4.193E-04 0.000E+00

     total cpu time spent up to now is     6347.8 secs

     total energy              =  -33980.14737719 Ry
     estimated scf accuracy    <       0.14895934 Ry

     iteration #  8     ecut=    77.00 Ry     beta= 0.20
     Davidson diagonalization with overlap
     c_bands:  3 eigenvalues not converged
     c_bands:  5 eigenvalues not converged
     c_bands:  4 eigenvalues not converged
     c_bands:  5 eigenvalues not converged
     ethr =  8.69E-06,  avg # of iterations = 20.0

     negative rho (up, down):  3.349E-04 0.000E+00

     total cpu time spent up to now is     7464.0 secs

     total energy              =  -33980.23344347 Ry
     estimated scf accuracy    <       0.78769869 Ry

     iteration #  9     ecut=    77.00 Ry     beta= 0.20
     Davidson diagonalization with overlap
     ethr =  8.69E-06,  avg # of iterations = 17.0

     negative rho (up, down):  2.442E-04 0.000E+00

     total cpu time spent up to now is     7948.4 secs

     total energy              =  -33980.22377965 Ry
     estimated scf accuracy    <       0.11480161 Ry

     iteration # 10     ecut=    77.00 Ry     beta= 0.20
     Davidson diagonalization with overlap
     ethr =  6.70E-06,  avg # of iterations =  6.8

     negative rho (up, down):  2.412E-04 0.000E+00

     total cpu time spent up to now is     8399.6 secs

     total energy              =  -33980.22725260 Ry
     estimated scf accuracy    <       0.01922489 Ry

     iteration # 11     ecut=    77.00 Ry     beta= 0.20
     Davidson diagonalization with overlap
     c_bands:  9 eigenvalues not converged
     ethr =  1.12E-06,  avg # of iterations = 46.5

     negative rho (up, down):  3.128E-04 0.000E+00

     total cpu time spent up to now is    11689.1 secs

     total energy              =  -33980.29007700 Ry
     estimated scf accuracy    <       0.08337645 Ry

     iteration # 12     ecut=    77.00 Ry     beta= 0.20
     Davidson diagonalization with overlap
     c_bands:  3 eigenvalues not converged
     ethr =  1.12E-06,  avg # of iterations =  6.5

     negative rho (up, down):  4.981E-04 0.000E+00

     total cpu time spent up to now is    12113.7 secs

     total energy              =  -33980.26541463 Ry
     estimated scf accuracy    <       0.04263865 Ry

     iteration # 13     ecut=    77.00 Ry     beta= 0.20
     Davidson diagonalization with overlap
     c_bands:  3 eigenvalues not converged
     c_bands:  3 eigenvalues not converged
     ethr =  1.12E-06,  avg # of iterations = 45.2

     negative rho (up, down):  7.897E-04 0.000E+00

     total cpu time spent up to now is    13572.4 secs

     total energy              =  -33980.29743537 Ry
     estimated scf accuracy    <       0.00473546 Ry

     iteration # 14     ecut=    77.00 Ry     beta= 0.20
     Davidson diagonalization with overlap
     c_bands:  1 eigenvalues not converged
     c_bands:  3 eigenvalues not converged
     ethr =  2.76E-07,  avg # of iterations = 18.2

     negative rho (up, down):  7.704E-04 0.000E+00

     total cpu time spent up to now is    15246.3 secs

     total energy              =  -33980.29471930 Ry
     estimated scf accuracy    <       0.07445412 Ry

     iteration # 15     ecut=    77.00 Ry     beta= 0.20
     Davidson diagonalization with overlap
     c_bands:  4 eigenvalues not converged
     ethr =  2.76E-07,  avg # of iterations = 21.0

     negative rho (up, down):  8.151E-04 0.000E+00

     total cpu time spent up to now is    16022.5 secs

     total energy              =  -33980.28345885 Ry
     estimated scf accuracy    <       0.03974518 Ry

     iteration # 16     ecut=    77.00 Ry     beta= 0.20
     Davidson diagonalization with overlap
     c_bands:  2 eigenvalues not converged
     ethr =  2.76E-07,  avg # of iterations = 14.0

     negative rho (up, down):  7.644E-04 0.000E+00

     total cpu time spent up to now is    16860.8 secs

     total energy              =  -33980.28350903 Ry
     estimated scf accuracy    <       0.00920563 Ry

     iteration # 17     ecut=    77.00 Ry     beta= 0.20
     Davidson diagonalization with overlap
     ethr =  2.76E-07,  avg # of iterations = 10.2

     negative rho (up, down):  7.447E-04 0.000E+00

     total cpu time spent up to now is    17584.0 secs

     total energy              =  -33980.28564498 Ry
     estimated scf accuracy    <       0.00070171 Ry

     iteration # 18     ecut=    77.00 Ry     beta= 0.20
     Davidson diagonalization with overlap
     c_bands:  1 eigenvalues not converged
     ethr =  4.09E-08,  avg # of iterations = 27.2

     negative rho (up, down):  8.418E-04 0.000E+00

     total cpu time spent up to now is    20553.7 secs

     total energy              =  -33980.28618889 Ry
     estimated scf accuracy    <       0.01245171 Ry

     iteration # 19     ecut=    77.00 Ry     beta= 0.20
     Davidson diagonalization with overlap
     ethr =  4.09E-08,  avg # of iterations = 14.5

     negative rho (up, down):  8.577E-04 0.000E+00

     total cpu time spent up to now is    21466.2 secs

     total energy              =  -33980.28712886 Ry
     estimated scf accuracy    <       0.00165152 Ry

     iteration # 20     ecut=    77.00 Ry     beta= 0.20
     Davidson diagonalization with overlap
     ethr =  4.09E-08,  avg # of iterations =  2.8

     negative rho (up, down):  8.710E-04 0.000E+00

     total cpu time spent up to now is    21883.5 secs

     total energy              =  -33980.28657321 Ry
     estimated scf accuracy    <       0.00107238 Ry

     iteration # 21     ecut=    77.00 Ry     beta= 0.20
     Davidson diagonalization with overlap
     ethr =  4.09E-08,  avg # of iterations = 11.5

     negative rho (up, down):  8.740E-04 0.000E+00

     total cpu time spent up to now is    22682.6 secs

     total energy              =  -33980.28735197 Ry
     estimated scf accuracy    <       0.00042917 Ry

     iteration # 22     ecut=    77.00 Ry     beta= 0.20
     Davidson diagonalization with overlap
     ethr =  2.50E-08,  avg # of iterations =  2.0

     negative rho (up, down):  8.732E-04 0.000E+00

     total cpu time spent up to now is    23089.1 secs

     total energy              =  -33980.28734653 Ry
     estimated scf accuracy    <       0.00006307 Ry

     iteration # 23     ecut=    77.00 Ry     beta= 0.20
     Davidson diagonalization with overlap
     ethr =  3.68E-09,  avg # of iterations = 18.5

     negative rho (up, down):  8.854E-04 0.000E+00

     total cpu time spent up to now is    24340.1 secs

     total energy              =  -33980.28747326 Ry
     estimated scf accuracy    <       0.00016648 Ry

     iteration # 24     ecut=    77.00 Ry     beta= 0.20
     Davidson diagonalization with overlap
     ethr =  3.68E-09,  avg # of iterations =  4.5

     negative rho (up, down):  8.925E-04 0.000E+00

     total cpu time spent up to now is    24764.1 secs

     total energy              =  -33980.28745216 Ry
     estimated scf accuracy    <       0.00006811 Ry

     iteration # 25     ecut=    77.00 Ry     beta= 0.20
     Davidson diagonalization with overlap
     ethr =  3.68E-09,  avg # of iterations =  7.8

     negative rho (up, down):  8.972E-04 0.000E+00

     total cpu time spent up to now is    25211.4 secs

     total energy              =  -33980.28746254 Ry
     estimated scf accuracy    <       0.00003189 Ry

     iteration # 26     ecut=    77.00 Ry     beta= 0.20
     Davidson diagonalization with overlap
     ethr =  1.86E-09,  avg # of iterations =  9.0

     negative rho (up, down):  8.949E-04 0.000E+00

     total cpu time spent up to now is    25714.4 secs

     total energy              =  -33980.28746935 Ry
     estimated scf accuracy    <       0.00003360 Ry

     iteration # 27     ecut=    77.00 Ry     beta= 0.20
     Davidson diagonalization with overlap
     ethr =  1.86E-09,  avg # of iterations =  1.0

     negative rho (up, down):  8.946E-04 0.000E+00

     total cpu time spent up to now is    26080.8 secs

     total energy              =  -33980.28746757 Ry
     estimated scf accuracy    <       0.00002988 Ry

     iteration # 28     ecut=    77.00 Ry     beta= 0.20
     Davidson diagonalization with overlap
     ethr =  1.74E-09,  avg # of iterations =  1.5

     negative rho (up, down):  8.961E-04 0.000E+00

     total cpu time spent up to now is    26465.7 secs

     total energy              =  -33980.28746188 Ry
     estimated scf accuracy    <       0.00002197 Ry

     iteration # 29     ecut=    77.00 Ry     beta= 0.20
     Davidson diagonalization with overlap
     ethr =  1.28E-09,  avg # of iterations =  6.0

     negative rho (up, down):  9.014E-04 0.000E+00

     total cpu time spent up to now is    27082.6 secs

     End of self-consistent calculation

          k = 0.0000 0.0000 0.0000 (386245 PWs)   bands (ev):

  -103.0527 -88.3413 -71.3742 -71.3619 -71.3522 -71.3399 -71.3325 -71.3260
   -71.3184 -66.6251 -66.6251 -66.6238 -66.6238 -66.6120 -66.6048 -66.6039
   -66.6038 -66.6038 -66.6038 -66.6038 -66.6038 -66.6038 -66.6038 -66.6038
   -66.6037 -66.6037 -66.6036 -66.6026 -66.6025 -66.6025 -66.6025 -66.6025
   -66.6024 -66.6024 -66.5976 -66.5899 -66.5894 -66.5826 -66.5825 -66.5824
   -66.5824 -66.5824 -66.5824 -66.5824 -66.5824 -66.5824 -66.5824 -66.5824
   -66.5824 -66.5824 -66.5823 -66.5823 -66.5823 -66.5822 -66.5821 -66.5820
   -66.5811 -66.5811 -66.5811 -66.5811 -66.5810 -66.5810 -66.5810 -66.5810
   -66.5810 -66.5796 -66.5734 -66.5665 -66.5600 -66.5565 -66.5521 -66.5451
   -66.5385 -57.2982 -57.2852 -57.2483 -54.2027 -54.1512 -54.0762 -40.9526
   -40.9526 -40.9526 -40.9526 -40.9526 -40.9525 -40.9519 -40.9519 -40.9519
   -40.9442 -40.9428 -40.9370 -40.8774 -40.8773 -40.8773 -40.8773 -40.8773
   -40.8773 -40.8772 -40.8772 -40.8772 -40.8772 -40.8772 -40.8771 -40.8766
   -40.8766 -40.8765 -40.8765 -40.8765 -40.8765 -40.8720 -40.8699 -40.8649
   -40.8608 -40.8462 -40.8447 -40.8056 -40.7847 -40.7847 -40.7841 -40.7812
   -40.7541 -40.7511 -40.7509 -40.7509 -40.7509 -40.7509 -40.7509 -40.7509
   -40.7509 -40.7509 -40.7508 -40.7508 -40.7507 -40.7501 -40.7501 -40.7501
   -40.7501 -40.7501 -40.7501 -40.7486 -40.7472 -40.7459 -40.7452 -40.7432
   -40.7431 -40.7431 -40.7430 -40.7430 -40.7430 -40.7430 -40.7430 -40.7430
   -40.7430 -40.7429 -40.7429 -40.7428 -40.7423 -40.7423 -40.7423 -40.7423
   -40.7423 -40.7423 -40.7416 -40.7356 -40.7317 -40.7295 -40.7162 -40.7160
   -40.7159 -40.7159 -40.7159 -40.7159 -40.7159 -40.7159 -40.7159 -40.7158
   -40.7158 -40.7158 -40.7157 -40.7150 -40.7150 -40.7150 -40.7150 -40.7150
   -40.7150 -40.7148 -40.7134 -40.7095 -40.7091 -40.7032 -40.7012 -40.7012
   -40.7011 -40.7011 -40.7011 -40.7011 -40.7010 -40.7010 -40.7010 -40.7010
   -40.7010 -40.7010 -40.7010 -40.7010 -40.7010 -40.7010 -40.7009 -40.7009
   -40.7007 -40.7007 -40.7003 -40.7003 -40.7003 -40.7003 -40.7003 -40.7003
   -40.7002 -40.7002 -40.7002 -40.7002 -40.6940 -40.6936 -40.6891 -40.6871
   -40.6823 -40.6815 -40.6807 -40.6376 -40.6375 -40.6375 -40.6375 -40.6375
   -40.6374 -40.6366 -40.6366 -40.6366 -40.6262 -40.6239 -40.6209 -40.5906
   -40.5905 -40.5905 -40.5904 -40.5904 -40.5904 -40.5904 -40.5904 -40.5904
   -40.5903 -40.5903 -40.5902 -40.5894 -40.5894 -40.5894 -40.5894 -40.5894
   -40.5894 -40.5765 -40.5752 -40.5699 -40.5690 -40.5644 -40.5617 -40.5428
   -40.5428 -40.5428 -40.5428 -40.5418 -40.5418 -40.5160 -40.5108 -20.1728
   -20.0968 -19.9951 -19.8894 -19.5467 -19.3458 -19.3144 -19.2571 -19.2523
   -19.2493 -19.2386 -19.2338 -19.2316 -19.2068 -19.1963 -19.1877 -19.1518
   -19.1433 -19.1412 -19.1234 -19.1136 -19.1029 -19.0471 -19.0420 -19.0410
   -19.0351 -19.0313 -19.0263 -18.9122 -18.8065 -18.7323 -18.6366 -18.5972
   -18.5601 -18.5086 -18.4966 -18.4800 -18.4717 -18.4495 -18.4365 -18.4209
   -18.4040 -18.3965 -18.3654 -18.3379 -18.3263 -18.2876 -18.2868 -18.2778
   -18.2538 -18.2440 -18.2394 -18.1931 -18.1864 -18.1841 -18.1758 -18.1748
   -18.1735 -18.1452 -18.1284 -18.1239 -18.1229 -18.1211 -18.1202 -18.1194
   -18.1063 -18.0948 -18.0910 -18.0872 -18.0836 -18.0830 -18.0780 -18.0777
   -18.0764 -18.0678 -18.0531 -18.0524 -18.0512 -18.0495 -18.0463 -18.0360
   -18.0310 -18.0304 -18.0174 -18.0121 -18.0068 -18.0062 -18.0021 -18.0001
   -17.9899 -17.9871 -17.9869 -17.9582 -17.9491 -17.9449 -17.9345 -17.9230
   -17.9212 -17.9195 -17.9184 -17.9162 -17.8973 -17.8952 -17.8915 -17.8804
   -17.8768 -17.8727 -17.8705 -17.8680 -17.8646 -17.8596 -17.8586 -17.8577
   -17.8422 -17.8419 -17.8412 -17.8304 -17.8292 -17.8266 -17.8249 -17.8232
   -17.8210 -17.7981 -17.7981 -17.7970 -17.7966 -17.7957 -17.7950 -12.1499
   -12.0168 -11.9297 -11.8764 -11.8094 -11.8010 -11.7859 -11.7742 -11.6851
   -11.6738 -11.6665 -11.5647 -11.5618 -11.5550 -11.5187 -11.4269 -11.3834
   -11.3388 -11.2950 -11.2433 -11.2409 -11.2387 -11.2356 -11.2331 -11.2198
   -11.1575 -11.1475 -11.1357 -11.1344 -11.1325 -11.1275 -11.1204 -11.1161
   -11.0943 -11.0760 -11.0726 -11.0690 -11.0638 -11.0621 -11.0579 -11.0559
   -11.0503 -11.0421 -11.0323 -11.0238 -11.0122 -10.9813 -10.9744 -10.9580
   -10.9527 -10.9470 -10.9359 -10.9162 -10.9072 -10.8990 -10.8952 -10.8920
   -10.8769 -10.8712 -10.8615 -10.8521 -10.8506 -10.8479 -10.8422 -10.8370
   -10.8356 -10.8307 -10.8303 -10.8294 -10.8217 -10.8118 -10.8105 -10.8072
   -10.8062 -10.8049 -10.8027 -10.7831 -10.7826 -10.7782 -10.7767 -10.7726
   -10.7714 -10.7669 -10.7569 -10.7547 -10.7391 -10.7390 -10.7373 -10.7368
   -10.7347 -10.7332 -10.6707 -10.6654 -10.6590 -10.6196 -10.6016 -10.5968
   -10.5864 -10.5813 -10.5792 -10.5427 -10.4810 -10.2685 -10.1889 -10.1726
   -10.1278 -10.0914  -9.9760  -9.9648  -9.9081  -9.8909  -9.8507  -9.8240
    -9.8133  -9.8060  -9.8035  -9.7968  -9.7806  -9.7757  -9.7729  -9.7720
    -9.7688  -9.7643  -9.7623  -9.7575  -9.7535  -9.7506  -9.7471  -9.7422
    -9.7390  -9.7266  -9.7094  -9.6985  -9.6716  -9.6465  -9.6329  -9.6317
    -9.6301  -9.6274  -9.6207  -9.6200  -9.6196  -9.6187  -9.6179  -9.6162
    -9.6145  -9.6112  -9.6024  -9.5777  -9.5559  -9.5428  -9.5426  -9.5425
    -9.5421  -9.5419  -9.5415  -9.5389  -9.5315  -9.5199  -9.5195  -9.5058
    -9.5018  -9.4805  -9.4736  -9.4544  -9.4483  -9.4092  -9.3678  -9.3667
    -9.3653  -9.3592  -9.3481  -9.3407  -9.3346  -9.3333  -9.3248  -9.3147
    -9.3064  -9.2956  -9.2682  -9.2486  -9.2409  -9.2353  -9.2228  -9.2163
    -9.2097  -9.1882  -9.1857  -9.1831  -9.1816  -9.1788  -9.1781  -9.1579
    -9.1368  -9.1343  -9.1247  -9.1051  -9.1012  -9.0677  -9.0483  -9.0120
    -8.9841  -8.9833  -8.9803  -8.9671  -8.9599  -8.9537  -8.9506  -8.9489
    -8.9405  -8.9305  -8.9183  -8.9179  -8.9163  -8.9121  -8.9057  -8.8976
    -8.8860  -8.8821  -8.8668  -8.8224  -8.8223  -8.8220  -8.8219  -8.8217
    -8.8211  -8.7659  -8.7529  -8.7517  -8.7460  -8.7430  -8.7277  -8.7093
    -8.6749  -8.6685  -8.6676  -8.6639  -8.6589  -8.6440  -8.5998  -8.5969
    -8.5935  -8.5923  -8.5914  -8.5875  -8.5526  -8.5332  -8.4530  -8.3932
    -8.3676  -8.3675  -8.3636  -8.3627  -8.3618  -8.3563  -8.3561  -8.3489
    -8.3441  -8.3014  -8.2846  -8.2771  -8.2767  -8.2767  -8.2764  -8.2744
    -8.2689  -8.2514  -8.2503  -8.2500  -8.2494  -8.2470  -8.2436  -8.2237
    -8.2221  -8.2219  -8.2215  -8.2206  -8.2197  -8.1991  -8.1543  -8.0987
    -8.0110  -7.9376  -7.8634  -7.8590  -7.8570  -7.7992  -7.7760  -7.7679
    -7.7468  -7.7106  -7.6969  -7.6881  -7.6498  -7.6465  -7.6435  -7.6372
    -7.6267  -7.6221  -7.6199  -7.6146  -7.6010  -7.5955  -7.5839  -7.5655
    -7.5594  -7.5484  -7.5409  -7.5404  -7.5357  -7.5350  -7.5349  -7.5343
    -7.5307  -7.5227  -7.5098  -7.5095  -7.5080  -7.5076  -7.5058  -7.4996
    -7.4908  -7.4858  -7.4836  -7.4831  -7.4830  -7.4822  -7.4805  -7.4736
    -7.4631  -7.4515  -7.4325  -7.4291  -7.4204  -7.4151  -7.4126  -7.4077
    -7.4073  -7.4006  -7.3640  -7.3529  -7.3509  -7.3325  -7.3252  -7.3165
    -7.3114  -7.3053  -7.2984  -7.2952  -7.2919  -7.2883  -7.2873  -7.2830
    -7.2518  -7.2514  -7.2503  -7.2330  -7.2328  -7.2147  -7.2146  -7.1793
    -7.1463  -7.1433  -7.1079  -7.0962  -7.0809  -7.0689  -7.0483  -6.9810
    -6.9490  -6.9052  -6.8829  -6.8661  -6.8577  -6.8456  -6.8292  -6.7903
    -6.7803  -6.7795  -6.7696  -6.7383  -6.7125  -6.6998  -6.6985  -6.6926
    -6.6715  -6.6349  -6.6287  -6.6241  -6.6227  -6.6218  -6.6109  -6.6095
    -6.5772  -6.5697  -6.5690  -6.5623  -6.5523  -6.5425  -6.5327  -6.5234
    -6.5170  -6.5154  -6.5139  -6.5109  -6.5093  -6.5071  -6.5057  -6.5041
    -6.4984  -6.4982  -6.4981  -6.4979  -6.4977  -6.4972  -6.4864  -6.4727
    -6.4539  -6.4442  -6.4362  -6.4133  -6.4106  -6.4102  -6.4041  -6.3819
    -6.3656  -6.3447  -6.3388  -6.3341  -6.3331  -6.3306  -6.3282  -6.3222
    -6.3126  -6.2991  -6.2947  -6.2899  -6.2884  -6.2858  -6.2796  -6.2652
    -6.2571  -6.2540  -6.2532  -6.2523  -6.2507  -6.2454  -6.2343  -6.1771
    -6.0466  -5.9201  -5.8051  -5.6382  -5.5900  -5.4668  -5.4565  -5.3128
    -5.1517  -4.2232  -3.9422  -3.8530  -3.8519  -3.8476  -3.8445  -3.8312
    -3.8282  -3.8263  -3.8255  -3.8231  -3.8210  -3.8029  -3.7721  -3.7035
    -3.7003  -3.6877  -3.6856  -3.6833  -3.6793  -3.6757  -3.6752  -3.6745
    -3.6714  -3.5792  -3.5507  -3.5174  -3.5102  -3.5066  -3.5006  -3.4917
    -3.4833  -3.4790  -3.4748  -3.4731  -3.4722  -3.4693  -3.4658  -3.4573
    -3.4529  -3.4493  -3.4471  -3.4432  -3.4426  -3.4426  -3.4363  -3.4282
    -3.4278  -3.4265  -3.4176  -3.4133  -3.4120  -3.4110  -3.4079  -3.4074
    -3.4015  -3.4009  -3.3995  -3.3935  -3.3890  -3.3588  -3.3527  -3.3518
    -3.3494  -3.3455  -3.3435  -3.3418  -3.3403  -3.3349  -3.3327  -3.3164
    -3.3081  -3.2917  -3.2874  -3.2845  -3.2830  -3.2811  -3.2710  -3.2573
    -3.2383  -3.2231  -3.2052  -3.2025  -3.1941  -3.0850  -3.0813  -3.0734
    -3.0609  -3.0587  -3.0581  -3.0504  -3.0456  -3.0431  -3.0377  -3.0118
    -3.0020  -2.9957  -2.9761  -2.9738  -2.9721  -2.9712  -2.9700  -2.9670
    -2.9644  -2.9631  -2.9628  -2.9626  -2.9543  -2.9541  -2.9503  -2.9458
    -2.9391  -2.9349  -2.9341  -2.9288  -2.9256  -2.9237  -2.9233  -2.9225
    -2.9224  -2.9192  -2.9166  -2.8910  -2.8874  -2.8839  -2.8691  -2.8653
    -2.8596  -2.8560  -2.8517  -2.8394  -2.8054  -2.8039  -2.8026  -2.8009
    -2.8006  -2.8001  -2.7999  -2.7992  -2.7983  -2.7855  -2.7845  -2.7742
    -2.7573  -2.7458  -2.7364  -2.7325  -2.7277  -2.7165  -2.7152  -2.6714
    -2.6660  -2.6408  -2.6395  -2.6296  -2.6207  -2.6202  -2.6160  -2.6131
    -2.6123  -2.5875  -2.5664  -2.5547  -2.5410  -2.5386  -2.5366  -2.4263
    -2.4173  -2.4126  -2.4066  -2.4051

          k = 0.0000-0.5773 0.0000 (386352 PWs)   bands (ev):

  -103.0527 -88.3413 -71.3742 -71.3619 -71.3522 -71.3399 -71.3325 -71.3260
   -71.3184 -66.6207 -66.6189 -66.6189 -66.6188 -66.6188 -66.6177 -66.6176
   -66.6175 -66.6082 -66.6082 -66.6082 -66.6081 -66.6069 -66.6069 -66.6047
   -66.5991 -66.5969 -66.5932 -66.5931 -66.5931 -66.5931 -66.5931 -66.5931
   -66.5930 -66.5930 -66.5924 -66.5918 -66.5918 -66.5918 -66.5918 -66.5888
   -66.5887 -66.5887 -66.5886 -66.5886 -66.5873 -66.5873 -66.5828 -66.5825
   -66.5824 -66.5824 -66.5824 -66.5824 -66.5823 -66.5823 -66.5823 -66.5811
   -66.5810 -66.5810 -66.5810 -66.5787 -66.5780 -66.5779 -66.5779 -66.5779
   -66.5766 -66.5766 -66.5730 -66.5668 -66.5599 -66.5564 -66.5523 -66.5453
   -66.5383 -57.2982 -57.2853 -57.2483 -54.2028 -54.1512 -54.0762 -40.9210
   -40.9210 -40.9210 -40.9209 -40.9209 -40.9209 -40.9209 -40.9209 -40.9203
   -40.9203 -40.9203 -40.9203 -40.9177 -40.9174 -40.9076 -40.8946 -40.8942
   -40.8942 -40.8941 -40.8941 -40.8935 -40.8934 -40.8906 -40.8867 -40.8821
   -40.8821 -40.8821 -40.8820 -40.8814 -40.8814 -40.8676 -40.8461 -40.8314
   -40.8314 -40.8314 -40.8314 -40.8314 -40.8314 -40.8314 -40.8313 -40.8306
   -40.8306 -40.8306 -40.8306 -40.8217 -40.8125 -40.8064 -40.8020 -40.7970
   -40.7757 -40.7726 -40.7725 -40.7725 -40.7725 -40.7721 -40.7719 -40.7719
   -40.7631 -40.7631 -40.7631 -40.7630 -40.7622 -40.7622 -40.7521 -40.7517
   -40.7517 -40.7516 -40.7516 -40.7510 -40.7510 -40.7452 -40.7412 -40.7373
   -40.7293 -40.7265 -40.7227 -40.7221 -40.7221 -40.7221 -40.7220 -40.7220
   -40.7220 -40.7220 -40.7220 -40.7213 -40.7213 -40.7213 -40.7213 -40.7180
   -40.7134 -40.7133 -40.7133 -40.7133 -40.7126 -40.7126 -40.7073 -40.7052
   -40.7017 -40.7016 -40.7016 -40.7015 -40.7011 -40.7011 -40.7010 -40.7010
   -40.7010 -40.7010 -40.7010 -40.7009 -40.7009 -40.7007 -40.7007 -40.7003
   -40.7003 -40.7003 -40.7003 -40.6992 -40.6945 -40.6923 -40.6923 -40.6923
   -40.6923 -40.6916 -40.6916 -40.6896 -40.6874 -40.6838 -40.6798 -40.6708
   -40.6707 -40.6707 -40.6707 -40.6707 -40.6707 -40.6706 -40.6705 -40.6697
   -40.6697 -40.6697 -40.6697 -40.6604 -40.6589 -40.6557 -40.6545 -40.6360
   -40.6359 -40.6359 -40.6359 -40.6359 -40.6359 -40.6359 -40.6359 -40.6350
   -40.6350 -40.6350 -40.6350 -40.6273 -40.6238 -40.6238 -40.6238 -40.6238
   -40.6228 -40.6228 -40.6183 -40.6145 -40.6124 -40.6046 -40.6045 -40.6044
   -40.6043 -40.6035 -40.6035 -40.6016 -40.5958 -40.5931 -40.5875 -40.5875
   -40.5875 -40.5874 -40.5865 -40.5865 -40.5782 -40.5662 -40.5568 -40.5568
   -40.5568 -40.5567 -40.5558 -40.5558 -40.5448 -40.5422 -40.5225 -20.0185
   -19.8914 -19.8676 -19.8340 -19.7686 -19.7419 -19.6595 -19.6490 -19.5177
   -19.4645 -19.4294 -19.4133 -19.3373 -19.3229 -19.2335 -19.2265 -19.0694
   -18.8901 -18.8525 -18.7867 -18.7549 -18.7412 -18.7252 -18.7216 -18.7204
   -18.7125 -18.6884 -18.6610 -18.6556 -18.6522 -18.6322 -18.6241 -18.6023
   -18.5785 -18.5737 -18.5558 -18.5532 -18.5468 -18.5320 -18.5250 -18.5115
   -18.4821 -18.4793 -18.4742 -18.4679 -18.4415 -18.4134 -18.4068 -18.4064
   -18.3848 -18.3815 -18.3511 -18.3341 -18.3222 -18.3161 -18.2822 -18.2595
   -18.2541 -18.2456 -18.2315 -18.2002 -18.1971 -18.1846 -18.1649 -18.1358
   -18.1238 -18.1164 -18.1128 -18.1032 -18.1017 -18.0988 -18.0976 -18.0890
   -18.0740 -18.0728 -18.0694 -18.0668 -18.0645 -18.0564 -18.0505 -18.0485
   -18.0424 -18.0405 -18.0319 -18.0108 -18.0088 -18.0053 -18.0017 -17.9988
   -17.9973 -17.9949 -17.9897 -17.9867 -17.9781 -17.9488 -17.9461 -17.9374
   -17.9345 -17.9295 -17.9205 -17.8930 -17.8915 -17.8841 -17.8752 -17.8530
   -17.8494 -17.8445 -17.8386 -17.8356 -17.8250 -17.8197 -17.8190 -17.8188
   -17.8180 -17.8169 -17.8147 -17.8049 -17.8032 -17.7857 -17.7829 -17.7615
   -17.7590 -17.7424 -17.7391 -17.7275 -17.7254 -17.7196 -17.7193 -12.0361
   -11.8543 -11.7306 -11.7087 -11.6868 -11.5925 -11.5433 -11.5164 -11.5085
   -11.4990 -11.4970 -11.4859 -11.4712 -11.4684 -11.4458 -11.4290 -11.4119
   -11.3912 -11.3818 -11.3636 -11.3506 -11.3381 -11.3332 -11.3199 -11.3104
   -11.2834 -11.2779 -11.2718 -11.2621 -11.2600 -11.2576 -11.2551 -11.2488
   -11.2134 -11.2059 -11.2032 -11.1939 -11.1843 -11.1701 -11.1692 -11.1676
   -11.1579 -11.1473 -11.1464 -11.1371 -11.1228 -11.1077 -11.0797 -11.0686
   -11.0612 -11.0525 -11.0327 -10.9997 -10.9661 -10.9558 -10.9357 -10.9271
   -10.9207 -10.9026 -10.8976 -10.8902 -10.8779 -10.8609 -10.8368 -10.8347
   -10.8309 -10.8206 -10.8140 -10.8121 -10.8115 -10.8104 -10.8089 -10.8067
   -10.7976 -10.7958 -10.7940 -10.7922 -10.7914 -10.7846 -10.7840 -10.7812
   -10.7793 -10.7443 -10.7437 -10.7430 -10.7426 -10.6911 -10.6611 -10.5439
   -10.5392 -10.5303 -10.5276 -10.4904 -10.4681 -10.3987 -10.3783 -10.3224
   -10.2827 -10.2590 -10.2464 -10.1634 -10.1544 -10.1319 -10.1310 -10.1141
   -10.1042 -10.0902 -10.0822 -10.0563 -10.0470 -10.0372 -10.0329 -10.0285
   -10.0272 -10.0156 -10.0096  -9.9913  -9.9725  -9.9462  -9.9318  -9.9241
    -9.9150  -9.9067  -9.8994  -9.8922  -9.8815  -9.8731  -9.8580  -9.8535
    -9.8271  -9.8172  -9.8006  -9.7825  -9.7794  -9.7663  -9.7636  -9.7400
    -9.7339  -9.7198  -9.6948  -9.6882  -9.6783  -9.6561  -9.6527  -9.6209
    -9.6184  -9.6148  -9.5978  -9.5941  -9.5689  -9.5676  -9.5481  -9.5446
    -9.5404  -9.5336  -9.5196  -9.4932  -9.4910  -9.4887  -9.4734  -9.4706
    -9.4660  -9.4614  -9.4577  -9.4549  -9.4375  -9.4345  -9.4235  -9.3968
    -9.3717  -9.3616  -9.3464  -9.3036  -9.2795  -9.2564  -9.2389  -9.2182
    -9.2153  -9.2089  -9.2012  -9.1957  -9.1640  -9.1582  -9.1461  -9.1379
    -9.1246  -9.1126  -9.1015  -9.0909  -9.0900  -9.0628  -9.0498  -9.0427
    -9.0336  -9.0322  -9.0247  -9.0014  -8.9869  -8.9777  -8.9749  -8.9558
    -8.9494  -8.9468  -8.9387  -8.9260  -8.9153  -8.8947  -8.8907  -8.8901
    -8.8891  -8.8856  -8.8777  -8.8733  -8.8707  -8.8690  -8.8662  -8.8616
    -8.8572  -8.8557  -8.8524  -8.8439  -8.8401  -8.8396  -8.8348  -8.8236
    -8.8068  -8.7932  -8.7906  -8.7898  -8.7880  -8.7835  -8.7818  -8.7635
    -8.7602  -8.7521  -8.7337  -8.7324  -8.7292  -8.7266  -8.7153  -8.7011
    -8.6575  -8.6488  -8.6416  -8.6082  -8.5961  -8.5065  -8.5032  -8.4825
    -8.4476  -8.4461  -8.4372  -8.3787  -8.3593  -8.3480  -8.2940  -8.2759
    -8.2594  -8.1819  -8.1279  -8.1277  -8.1197  -8.1191  -8.1090  -8.1084
    -8.1053  -8.0989  -8.0756  -8.0551  -8.0392  -7.9969  -7.9704  -7.9654
    -7.9259  -7.8882  -7.8763  -7.8484  -7.8409  -7.8370  -7.8332  -7.8258
    -7.8167  -7.8127  -7.8094  -7.8046  -7.8023  -7.7981  -7.7948  -7.7935
    -7.7899  -7.7866  -7.7841  -7.7814  -7.7786  -7.7729  -7.7695  -7.7682
    -7.7653  -7.7642  -7.7640  -7.7587  -7.7579  -7.7574  -7.7480  -7.7381
    -7.7336  -7.7285  -7.7277  -7.7214  -7.7206  -7.6971  -7.6963  -7.6958
    -7.6952  -7.6674  -7.6668  -7.6663  -7.6644  -7.6590  -7.6563  -7.6470
    -7.6375  -7.6320  -7.6175  -7.6083  -7.6078  -7.6012  -7.5990  -7.5974
    -7.5915  -7.5851  -7.5830  -7.5779  -7.5638  -7.5636  -7.5598  -7.5515
    -7.5457  -7.5411  -7.4735  -7.4590  -7.4569  -7.4548  -7.4496  -7.4351
    -7.3909  -7.3250  -7.3004  -7.2422  -7.2099  -7.1779  -7.1686  -7.1678
    -7.1622  -7.1607  -7.1262  -7.1165  -7.1113  -7.1098  -7.1000  -7.0777
    -7.0544  -7.0429  -7.0314  -7.0279  -7.0208  -6.9988  -6.9944  -6.9765
    -6.9760  -6.9611  -6.9353  -6.9193  -6.9133  -6.8962  -6.8851  -6.8763
    -6.8646  -6.8589  -6.8552  -6.8499  -6.8303  -6.8137  -6.7725  -6.7673
    -6.7504  -6.7472  -6.7077  -6.6785  -6.6647  -6.6537  -6.6356  -6.6252
    -6.6202  -6.6067  -6.6053  -6.6043  -6.6040  -6.5897  -6.5877  -6.5872
    -6.5866  -6.5835  -6.5793  -6.5788  -6.5786  -6.5785  -6.5628  -6.5165
    -6.5141  -6.5055  -6.4749  -6.4492  -6.4384  -6.4095  -6.3976  -6.3259
    -6.3241  -6.3200  -6.3167  -6.3074  -6.3012  -6.2772  -6.2769  -6.2742
    -6.2728  -6.2717  -6.2698  -6.2568  -6.2518  -6.2481  -6.2357  -6.2250
    -6.2124  -6.2047  -6.2034  -6.1946  -6.1900  -6.0858  -6.0194  -5.9990
    -5.9791  -5.9763  -5.9340  -5.9123  -5.8978  -5.8547  -5.8498  -5.8394
    -5.7570  -5.7241  -5.6813  -5.6434  -5.5974  -5.5956  -5.5452  -5.4646
    -5.3924  -4.2556  -4.1058  -4.0927  -4.0841  -4.0613  -3.9667  -3.9329
    -3.9216  -3.9184  -3.9089  -3.8618  -3.8417  -3.8402  -3.8273  -3.8236
    -3.8109  -3.8073  -3.8018  -3.7973  -3.7961  -3.7538  -3.7183  -3.6895
    -3.6840  -3.6492  -3.6150  -3.6018  -3.5988  -3.5984  -3.5942  -3.5660
    -3.5518  -3.5502  -3.5358  -3.5265  -3.5208  -3.5173  -3.5110  -3.5054
    -3.4935  -3.4837  -3.4777  -3.4756  -3.4726  -3.4701  -3.4681  -3.4583
    -3.4457  -3.4433  -3.4355  -3.4224  -3.4179  -3.4152  -3.4010  -3.3915
    -3.3614  -3.3538  -3.3504  -3.3443  -3.3417  -3.3400  -3.3383  -3.3340
    -3.3103  -3.3052  -3.2903  -3.2899  -3.2846  -3.2808  -3.2788  -3.2754
    -3.2735  -3.2695  -3.2554  -3.2450  -3.2418  -3.2356  -3.2322  -3.2300
    -3.2267  -3.2112  -3.2092  -3.2062  -3.1941  -3.1905  -3.1845  -3.1814
    -3.1719  -3.1681  -3.1645  -3.1599  -3.1598  -3.1565  -3.1360  -3.1135
    -3.0898  -3.0874  -3.0728  -3.0687  -3.0651  -3.0627  -3.0560  -3.0257
    -3.0238  -3.0214  -3.0203  -3.0186  -3.0172  -3.0120  -3.0106  -3.0090
    -3.0038  -3.0024  -2.9982  -2.9888  -2.9846  -2.9812  -2.9761  -2.9739
    -2.9719  -2.9653  -2.9617  -2.9577  -2.9548  -2.9452  -2.9446  -2.9400
    -2.9386  -2.9315  -2.9273  -2.9226  -2.9094  -2.8974  -2.8948  -2.8818
    -2.8805  -2.8738  -2.8727  -2.8617  -2.8475  -2.7976  -2.7933  -2.7852
    -2.7837  -2.7498  -2.7255  -2.7120  -2.7103  -2.6249  -2.6076  -2.5924
    -2.5733  -2.5695  -2.5600  -2.5566  -2.5415  -2.5337  -2.5318  -2.5247
    -2.5238  -2.5216  -2.5040  -2.4258  -2.4071  -2.3993  -2.3979  -2.3895
    -2.3845  -2.3707  -2.3544  -2.3384

          k =-0.5000-0.2887 0.0000 (386352 PWs)   bands (ev):

  -103.0527 -88.3413 -71.3742 -71.3619 -71.3522 -71.3399 -71.3325 -71.3260
   -71.3184 -66.6213 -66.6189 -66.6188 -66.6188 -66.6188 -66.6175 -66.6175
   -66.6169 -66.6082 -66.6082 -66.6082 -66.6081 -66.6069 -66.6069 -66.6042
   -66.6001 -66.5968 -66.5936 -66.5932 -66.5931 -66.5931 -66.5931 -66.5931
   -66.5930 -66.5930 -66.5930 -66.5918 -66.5918 -66.5918 -66.5918 -66.5887
   -66.5886 -66.5886 -66.5886 -66.5873 -66.5873 -66.5873 -66.5824 -66.5824
   -66.5824 -66.5824 -66.5824 -66.5824 -66.5824 -66.5823 -66.5823 -66.5811
   -66.5810 -66.5810 -66.5810 -66.5785 -66.5780 -66.5779 -66.5779 -66.5779
   -66.5766 -66.5766 -66.5737 -66.5667 -66.5600 -66.5566 -66.5521 -66.5453
   -66.5383 -57.2982 -57.2852 -57.2483 -54.2027 -54.1512 -54.0762 -40.9228
   -40.9211 -40.9210 -40.9210 -40.9209 -40.9209 -40.9209 -40.9208 -40.9208
   -40.9203 -40.9203 -40.9203 -40.9203 -40.9143 -40.9091 -40.8942 -40.8941
   -40.8941 -40.8941 -40.8934 -40.8934 -40.8915 -40.8899 -40.8853 -40.8821
   -40.8821 -40.8821 -40.8820 -40.8814 -40.8814 -40.8651 -40.8488 -40.8314
   -40.8314 -40.8314 -40.8314 -40.8314 -40.8314 -40.8314 -40.8313 -40.8306
   -40.8306 -40.8306 -40.8306 -40.8178 -40.8148 -40.8097 -40.8042 -40.7961
   -40.7790 -40.7726 -40.7725 -40.7725 -40.7724 -40.7719 -40.7719 -40.7676
   -40.7631 -40.7631 -40.7631 -40.7630 -40.7622 -40.7622 -40.7517 -40.7517
   -40.7516 -40.7516 -40.7510 -40.7510 -40.7509 -40.7452 -40.7426 -40.7412
   -40.7288 -40.7248 -40.7221 -40.7221 -40.7220 -40.7220 -40.7220 -40.7220
   -40.7220 -40.7220 -40.7213 -40.7213 -40.7213 -40.7213 -40.7191 -40.7168
   -40.7133 -40.7133 -40.7133 -40.7133 -40.7126 -40.7126 -40.7105 -40.7048
   -40.7029 -40.7016 -40.7016 -40.7016 -40.7015 -40.7011 -40.7010 -40.7010
   -40.7010 -40.7010 -40.7010 -40.7010 -40.7009 -40.7007 -40.7007 -40.7003
   -40.7003 -40.7003 -40.7003 -40.6986 -40.6948 -40.6923 -40.6923 -40.6923
   -40.6923 -40.6916 -40.6916 -40.6895 -40.6875 -40.6832 -40.6802 -40.6708
   -40.6707 -40.6707 -40.6707 -40.6707 -40.6706 -40.6706 -40.6706 -40.6697
   -40.6697 -40.6697 -40.6697 -40.6610 -40.6604 -40.6554 -40.6507 -40.6360
   -40.6359 -40.6359 -40.6359 -40.6359 -40.6359 -40.6359 -40.6359 -40.6350
   -40.6350 -40.6350 -40.6350 -40.6249 -40.6238 -40.6238 -40.6238 -40.6237
   -40.6228 -40.6228 -40.6196 -40.6141 -40.6110 -40.6049 -40.6045 -40.6045
   -40.6044 -40.6043 -40.6035 -40.6035 -40.5933 -40.5927 -40.5875 -40.5875
   -40.5875 -40.5874 -40.5865 -40.5865 -40.5816 -40.5644 -40.5568 -40.5568
   -40.5568 -40.5567 -40.5558 -40.5558 -40.5481 -40.5428 -40.5202 -20.0143
   -19.8948 -19.8675 -19.8391 -19.7687 -19.7457 -19.6595 -19.6502 -19.4903
   -19.4731 -19.4261 -19.4181 -19.3351 -19.3257 -19.2331 -19.2274 -19.0829
   -18.8923 -18.8603 -18.7778 -18.7493 -18.7419 -18.7250 -18.7214 -18.7208
   -18.7076 -18.6890 -18.6627 -18.6534 -18.6495 -18.6343 -18.6250 -18.5939
   -18.5853 -18.5721 -18.5562 -18.5521 -18.5477 -18.5337 -18.5183 -18.5113
   -18.4868 -18.4801 -18.4737 -18.4697 -18.4408 -18.4128 -18.4099 -18.4033
   -18.3827 -18.3704 -18.3666 -18.3356 -18.3244 -18.3206 -18.2914 -18.2568
   -18.2493 -18.2413 -18.2339 -18.2002 -18.1934 -18.1803 -18.1657 -18.1359
   -18.1221 -18.1176 -18.1116 -18.1046 -18.1019 -18.0984 -18.0976 -18.0893
   -18.0752 -18.0737 -18.0699 -18.0661 -18.0650 -18.0567 -18.0508 -18.0463
   -18.0430 -18.0407 -18.0322 -18.0101 -18.0089 -18.0046 -18.0014 -18.0002
   -17.9962 -17.9951 -17.9906 -17.9868 -17.9782 -17.9480 -17.9445 -17.9369
   -17.9349 -17.9303 -17.9215 -17.8928 -17.8901 -17.8843 -17.8764 -17.8534
   -17.8488 -17.8453 -17.8405 -17.8355 -17.8242 -17.8195 -17.8193 -17.8189
   -17.8178 -17.8170 -17.8147 -17.8048 -17.8030 -17.7854 -17.7829 -17.7612
   -17.7591 -17.7422 -17.7392 -17.7274 -17.7255 -17.7196 -17.7193 -12.0182
   -11.8579 -11.7434 -11.7147 -11.7058 -11.5807 -11.5577 -11.5242 -11.5014
   -11.4990 -11.4942 -11.4831 -11.4808 -11.4752 -11.4584 -11.4079 -11.4002
   -11.3876 -11.3846 -11.3800 -11.3520 -11.3382 -11.3215 -11.3185 -11.2967
   -11.2799 -11.2774 -11.2732 -11.2624 -11.2595 -11.2567 -11.2511 -11.2467
   -11.2125 -11.2042 -11.1974 -11.1925 -11.1869 -11.1725 -11.1696 -11.1667
   -11.1608 -11.1466 -11.1465 -11.1327 -11.1176 -11.0970 -11.0803 -11.0789
   -11.0625 -11.0580 -11.0266 -10.9940 -10.9781 -10.9553 -10.9500 -10.9232
   -10.9155 -10.9126 -10.9068 -10.8915 -10.8645 -10.8476 -10.8367 -10.8357
   -10.8283 -10.8193 -10.8127 -10.8123 -10.8119 -10.8102 -10.8077 -10.8008
   -10.8004 -10.7946 -10.7936 -10.7918 -10.7915 -10.7848 -10.7844 -10.7814
   -10.7748 -10.7443 -10.7440 -10.7429 -10.7421 -10.7000 -10.6293 -10.5628
   -10.5466 -10.5317 -10.5292 -10.5031 -10.4772 -10.4167 -10.3942 -10.3061
   -10.2857 -10.2466 -10.2121 -10.1669 -10.1482 -10.1367 -10.1326 -10.1147
   -10.1099 -10.0937 -10.0856 -10.0577 -10.0528 -10.0358 -10.0349 -10.0317
   -10.0259 -10.0177 -10.0083  -9.9842  -9.9743  -9.9344  -9.9315  -9.9271
    -9.9157  -9.9108  -9.8992  -9.8925  -9.8895  -9.8650  -9.8589  -9.8478
    -9.8389  -9.8085  -9.7968  -9.7823  -9.7783  -9.7672  -9.7642  -9.7455
    -9.7348  -9.7086  -9.7021  -9.6834  -9.6788  -9.6553  -9.6546  -9.6280
    -9.6193  -9.6160  -9.6021  -9.5900  -9.5701  -9.5650  -9.5548  -9.5461
    -9.5368  -9.5333  -9.5262  -9.4963  -9.4916  -9.4890  -9.4747  -9.4732
    -9.4677  -9.4614  -9.4591  -9.4549  -9.4427  -9.4332  -9.4297  -9.3995
    -9.3791  -9.3620  -9.3399  -9.2982  -9.2858  -9.2601  -9.2269  -9.2171
    -9.2108  -9.2047  -9.1955  -9.1868  -9.1762  -9.1572  -9.1495  -9.1344
    -9.1243  -9.1205  -9.1046  -9.0854  -9.0646  -9.0548  -9.0495  -9.0406
    -9.0383  -9.0358  -9.0291  -8.9916  -8.9874  -8.9842  -8.9673  -8.9554
    -8.9488  -8.9479  -8.9388  -8.9282  -8.9092  -8.8966  -8.8912  -8.8886
    -8.8871  -8.8847  -8.8824  -8.8775  -8.8708  -8.8692  -8.8661  -8.8646
    -8.8582  -8.8564  -8.8522  -8.8435  -8.8403  -8.8396  -8.8343  -8.8190
    -8.8105  -8.7930  -8.7916  -8.7893  -8.7861  -8.7844  -8.7824  -8.7631
    -8.7618  -8.7423  -8.7397  -8.7329  -8.7307  -8.7269  -8.7164  -8.7011
    -8.6560  -8.6489  -8.6397  -8.6196  -8.5893  -8.5104  -8.5041  -8.4980
    -8.4522  -8.4405  -8.4110  -8.3881  -8.3558  -8.3417  -8.2905  -8.2814
    -8.2292  -8.2049  -8.1594  -8.1277  -8.1275  -8.1188  -8.1184  -8.1074
    -8.1073  -8.0959  -8.0671  -8.0480  -8.0226  -7.9729  -7.9705  -7.9570
    -7.9359  -7.8916  -7.8720  -7.8477  -7.8440  -7.8403  -7.8342  -7.8282
    -7.8200  -7.8150  -7.8107  -7.8037  -7.8019  -7.7990  -7.7953  -7.7925
    -7.7914  -7.7878  -7.7822  -7.7810  -7.7755  -7.7733  -7.7694  -7.7683
    -7.7652  -7.7646  -7.7623  -7.7594  -7.7583  -7.7579  -7.7450  -7.7392
    -7.7359  -7.7298  -7.7264  -7.7218  -7.7200  -7.6972  -7.6965  -7.6959
    -7.6952  -7.6679  -7.6665  -7.6655  -7.6645  -7.6614  -7.6553  -7.6494
    -7.6420  -7.6323  -7.6166  -7.6098  -7.6080  -7.6052  -7.6033  -7.6013
    -7.5941  -7.5853  -7.5833  -7.5729  -7.5643  -7.5632  -7.5622  -7.5502
    -7.5447  -7.5374  -7.4979  -7.4648  -7.4599  -7.4527  -7.4520  -7.4317
    -7.4099  -7.3555  -7.2904  -7.2119  -7.1892  -7.1752  -7.1691  -7.1687
    -7.1593  -7.1394  -7.1327  -7.1186  -7.1124  -7.1010  -7.0957  -7.0669
    -7.0547  -7.0451  -7.0330  -7.0221  -7.0134  -7.0086  -6.9943  -6.9789
    -6.9757  -6.9616  -6.9399  -6.9148  -6.9073  -6.8918  -6.8842  -6.8807
    -6.8607  -6.8594  -6.8551  -6.8340  -6.8262  -6.8125  -6.7745  -6.7702
    -6.7514  -6.7345  -6.7317  -6.6882  -6.6831  -6.6450  -6.6389  -6.6206
    -6.6161  -6.6083  -6.6054  -6.6048  -6.6026  -6.5953  -6.5889  -6.5875
    -6.5860  -6.5844  -6.5793  -6.5788  -6.5785  -6.5783  -6.5686  -6.5452
    -6.5241  -6.4987  -6.4856  -6.4621  -6.4260  -6.4103  -6.3604  -6.3292
    -6.3216  -6.3187  -6.3150  -6.2989  -6.2931  -6.2806  -6.2766  -6.2756
    -6.2721  -6.2717  -6.2673  -6.2552  -6.2505  -6.2482  -6.2316  -6.2272
    -6.2132  -6.2043  -6.2015  -6.1974  -6.1916  -6.0639  -6.0417  -6.0054
    -5.9846  -5.9725  -5.9429  -5.9157  -5.9029  -5.8562  -5.8505  -5.8421
    -5.7562  -5.7212  -5.6788  -5.6397  -5.6017  -5.5920  -5.5485  -5.4513
    -5.3957  -4.2618  -4.1028  -4.0922  -4.0881  -4.0629  -3.9662  -3.9279
    -3.9251  -3.9175  -3.9095  -3.8642  -3.8413  -3.8404  -3.8264  -3.8240
    -3.8100  -3.8079  -3.7982  -3.7973  -3.7960  -3.7427  -3.7200  -3.6873
    -3.6821  -3.6478  -3.6129  -3.6010  -3.5996  -3.5986  -3.5957  -3.5532
    -3.5520  -3.5498  -3.5381  -3.5250  -3.5191  -3.5156  -3.5109  -3.5075
    -3.4980  -3.4820  -3.4797  -3.4744  -3.4704  -3.4689  -3.4683  -3.4606
    -3.4459  -3.4455  -3.4341  -3.4225  -3.4186  -3.4173  -3.4045  -3.3800
    -3.3709  -3.3551  -3.3470  -3.3457  -3.3429  -3.3425  -3.3388  -3.3368
    -3.3137  -3.2998  -3.2939  -3.2887  -3.2840  -3.2810  -3.2782  -3.2749
    -3.2727  -3.2683  -3.2577  -3.2456  -3.2405  -3.2355  -3.2309  -3.2286
    -3.2263  -3.2143  -3.2103  -3.2063  -3.2002  -3.1920  -3.1811  -3.1771
    -3.1705  -3.1687  -3.1647  -3.1598  -3.1598  -3.1503  -3.1413  -3.1216
    -3.0957  -3.0895  -3.0743  -3.0682  -3.0668  -3.0630  -3.0567  -3.0256
    -3.0234  -3.0210  -3.0208  -3.0190  -3.0176  -3.0119  -3.0103  -3.0094
    -3.0044  -3.0014  -2.9987  -2.9886  -2.9848  -2.9831  -2.9761  -2.9737
    -2.9714  -2.9666  -2.9643  -2.9588  -2.9561  -2.9454  -2.9444  -2.9409
    -2.9395  -2.9331  -2.9285  -2.9221  -2.9117  -2.8994  -2.8952  -2.8855
    -2.8845  -2.8800  -2.8732  -2.8631  -2.8411  -2.7974  -2.7947  -2.7858
    -2.7827  -2.7479  -2.7279  -2.7129  -2.7061  -2.6210  -2.6092  -2.5906
    -2.5809  -2.5731  -2.5555  -2.5517  -2.5430  -2.5335  -2.5279  -2.5256
    -2.5242  -2.5203  -2.5014  -2.4217  -2.4129  -2.3976  -2.3937  -2.3856
    -2.3851  -2.3692  -2.3598  -2.3390

          k =-0.5000-0.8660 0.0000 (386352 PWs)   bands (ev):

  -103.0527 -88.3413 -71.3742 -71.3619 -71.3522 -71.3399 -71.3325 -71.3260
   -71.3184 -66.6224 -66.6189 -66.6189 -66.6188 -66.6188 -66.6176 -66.6175
   -66.6142 -66.6082 -66.6082 -66.6082 -66.6081 -66.6069 -66.6069 -66.6058
   -66.6019 -66.5976 -66.5933 -66.5931 -66.5931 -66.5931 -66.5931 -66.5931
   -66.5929 -66.5929 -66.5918 -66.5918 -66.5918 -66.5918 -66.5899 -66.5887
   -66.5887 -66.5886 -66.5886 -66.5875 -66.5873 -66.5873 -66.5826 -66.5825
   -66.5824 -66.5824 -66.5824 -66.5824 -66.5824 -66.5823 -66.5821 -66.5811
   -66.5810 -66.5810 -66.5810 -66.5788 -66.5779 -66.5779 -66.5779 -66.5779
   -66.5766 -66.5766 -66.5742 -66.5663 -66.5600 -66.5569 -66.5520 -66.5452
   -66.5384 -57.2982 -57.2852 -57.2483 -54.2028 -54.1512 -54.0762 -40.9281
   -40.9211 -40.9210 -40.9210 -40.9209 -40.9209 -40.9209 -40.9209 -40.9208
   -40.9203 -40.9203 -40.9203 -40.9203 -40.9120 -40.9033 -40.8942 -40.8941
   -40.8941 -40.8941 -40.8934 -40.8934 -40.8928 -40.8866 -40.8821 -40.8821
   -40.8821 -40.8820 -40.8818 -40.8814 -40.8814 -40.8689 -40.8536 -40.8314
   -40.8314 -40.8314 -40.8314 -40.8314 -40.8314 -40.8314 -40.8313 -40.8306
   -40.8306 -40.8306 -40.8306 -40.8176 -40.8167 -40.8148 -40.8045 -40.7929
   -40.7793 -40.7726 -40.7725 -40.7725 -40.7724 -40.7719 -40.7719 -40.7663
   -40.7631 -40.7631 -40.7631 -40.7630 -40.7622 -40.7622 -40.7525 -40.7517
   -40.7517 -40.7516 -40.7516 -40.7510 -40.7510 -40.7437 -40.7425 -40.7381
   -40.7286 -40.7227 -40.7222 -40.7221 -40.7220 -40.7220 -40.7220 -40.7220
   -40.7219 -40.7219 -40.7216 -40.7213 -40.7213 -40.7213 -40.7213 -40.7138
   -40.7134 -40.7133 -40.7133 -40.7132 -40.7126 -40.7126 -40.7115 -40.7058
   -40.7026 -40.7016 -40.7016 -40.7016 -40.7015 -40.7011 -40.7011 -40.7011
   -40.7010 -40.7010 -40.7010 -40.7010 -40.7007 -40.7007 -40.7007 -40.7003
   -40.7003 -40.7003 -40.7003 -40.6994 -40.6949 -40.6923 -40.6923 -40.6923
   -40.6923 -40.6916 -40.6916 -40.6884 -40.6864 -40.6826 -40.6805 -40.6709
   -40.6707 -40.6707 -40.6707 -40.6707 -40.6706 -40.6706 -40.6705 -40.6697
   -40.6697 -40.6697 -40.6697 -40.6652 -40.6598 -40.6550 -40.6454 -40.6360
   -40.6359 -40.6359 -40.6359 -40.6359 -40.6359 -40.6359 -40.6359 -40.6350
   -40.6350 -40.6350 -40.6350 -40.6252 -40.6238 -40.6238 -40.6238 -40.6237
   -40.6228 -40.6228 -40.6182 -40.6163 -40.6132 -40.6056 -40.6046 -40.6045
   -40.6044 -40.6043 -40.6035 -40.6035 -40.5908 -40.5890 -40.5875 -40.5875
   -40.5875 -40.5874 -40.5865 -40.5865 -40.5864 -40.5675 -40.5568 -40.5568
   -40.5568 -40.5568 -40.5558 -40.5558 -40.5489 -40.5447 -40.5160 -20.0243
   -19.8884 -19.8676 -19.8280 -19.7684 -19.7369 -19.6592 -19.6472 -19.5189
   -19.4736 -19.4294 -19.4185 -19.3373 -19.3263 -19.2335 -19.2277 -19.0686
   -18.8763 -18.8554 -18.7728 -18.7637 -18.7416 -18.7252 -18.7217 -18.7205
   -18.7096 -18.6957 -18.6622 -18.6545 -18.6458 -18.6402 -18.6251 -18.5861
   -18.5815 -18.5717 -18.5543 -18.5484 -18.5470 -18.5462 -18.5214 -18.4961
   -18.4860 -18.4827 -18.4774 -18.4678 -18.4368 -18.4127 -18.4111 -18.4013
   -18.3980 -18.3752 -18.3576 -18.3335 -18.3222 -18.3182 -18.3124 -18.2616
   -18.2465 -18.2357 -18.2320 -18.2133 -18.1949 -18.1747 -18.1639 -18.1500
   -18.1246 -18.1159 -18.1107 -18.1020 -18.1020 -18.0994 -18.0977 -18.0755
   -18.0743 -18.0738 -18.0708 -18.0674 -18.0647 -18.0610 -18.0493 -18.0470
   -18.0413 -18.0334 -18.0325 -18.0125 -18.0083 -18.0028 -18.0006 -18.0002
[...]
     atom  170 type  1   force =    -0.00000956   -0.00001439    0.00000812
     atom  171 type  2   force =    -0.00000311   -0.00000098    0.00000417
     atom  172 type  2   force =     0.00000086   -0.00000079    0.00161524
     atom  173 type  2   force =     0.00000070   -0.00000123   -0.00235919
     atom  174 type  2   force =    -0.00000130   -0.00000448   -0.00000049
     atom  175 type  1   force =     0.00001505   -0.00000643   -0.00001711
     atom  176 type  1   force =    -0.00005731   -0.00003017   -0.00004409
     atom  177 type  2   force =    -0.00046929   -0.00018435    0.00001687
     atom  178 type  2   force =     0.00000100    0.00000711    0.00002805
     atom  179 type  2   force =     0.00003855   -0.00002688   -0.00004454
     atom  180 type  2   force =     0.00018114    0.00011563    0.00010123
     atom  181 type  1   force =     0.00000260   -0.00000169    0.00068820
     atom  182 type  1   force =    -0.00000575   -0.00001302    0.00000315
     atom  183 type  2   force =    -0.00000112   -0.00000240    0.00000542
     atom  184 type  2   force =     0.00000088   -0.00000073    0.00161524
     atom  185 type  2   force =     0.00000073   -0.00000126   -0.00235924
     atom  186 type  2   force =    -0.00000035   -0.00000351    0.00001034
     atom  187 type  1   force =     0.00001655    0.00002070    0.00001899
     atom  188 type  1   force =     0.00010618    0.00015603   -0.00029218
     atom  189 type  2   force =     0.00046805    0.00016164   -0.00084755
     atom  190 type  2   force =     0.00000125   -0.00001097    0.00004042
     atom  191 type  2   force =     0.00001724    0.00002222   -0.00000888
     atom  192 type  2   force =     0.00022546    0.00015711   -0.00031750
     atom  193 type  3   force =     0.00064561    0.00072419    0.00037982
     atom  194 type  4   force =     0.00007713    0.00023600   -0.00073785

     Total force =     0.003200     Total SCF correction =     0.000518
     SCF correction compared to forces is large: reduce conv_thr to get better values
     Energy error            =      1.5E-05 Ry
     Gradient error          =      8.7E-04 Ry/Bohr

     bfgs converged in  32 scf cycles and  31 bfgs steps
     (criteria: energy <  1.0E-04 Ry, force <  1.0E-03 Ry/Bohr)

     End of BFGS Geometry Optimization

     Final energy             =  -33980.2984738392 Ry

     File ./outdir/pwscf.bfgs deleted, as requested
Begin final coordinates

ATOMIC_POSITIONS (angstrom)
Mo               0.0000119917        1.8193638619       -9.1672481230    0   0   0
Mo               1.5756136568        0.9097075315       -3.0554901653    0   0   0
S                0.0000188998        1.8193822938       -4.6232556019    0   0   0
S                1.5756321638        0.9096773839       -7.6014065489    0   0   0
S                1.5756326175        0.9096785128      -10.7330757790    0   0   0
S                0.0000189190        1.8193860094       -1.4877129945    0   0   0
Mo               0.0005182853        1.8195071434        3.0568142565
Mo               1.5736064618        0.9099163688        9.1645908345
S               -0.0051096206        1.8219070012        7.6007261515
S                1.5760491960        0.9098377289        4.6241148163
S                1.5761332628        0.9099291192        1.4888387368
S                0.0049700664        1.8129940459       10.7476143691
Mo              -1.5756053507        4.5484193819       -9.1672481230    0   0   0
Mo               0.0000378379        3.6387394919       -3.0554952701    0   0   0
S               -1.5755913433        4.5484363582       -4.6232494962    0   0   0
S                0.0000148214        3.6387329039       -7.6014065489    0   0   0
S                0.0000152751        3.6387340328      -10.7330757790    0   0   0
S               -1.5755906502        4.5484413613       -1.4877305502    0   0   0
Mo              -1.5746420897        4.5485242156        3.0569907333
Mo              -0.0074175844        3.6288096429        9.1806719135
S               -1.5699327232        4.5452082448        7.5969443634
S                0.0011417455        3.6390714564        4.6247804436
S                0.0006299790        3.6389351534        1.4889877980
S               -1.5859220489        4.5474860491       10.7364822947
Mo              -3.1512226931        7.2774749019       -9.1672481230    0   0   0
Mo              -1.5755910988        6.3678216792       -3.0555115988    0   0   0
S               -3.1512162438        7.2774954350       -4.6232578178    0   0   0
S               -1.5756025210        6.3677884239       -7.6014065489    0   0   0
S               -1.5756020673        6.3677895528      -10.7330757790    0   0   0
S               -3.1512127704        7.2774877076       -1.4877200710    0   0   0
Mo              -3.1503622555        7.2775893583        3.0569831169
Mo              -1.5947815098        6.3631995908        9.1690606121
S               -3.1449189385        7.2792896340        7.5808573920
S               -1.5744541831        6.3678163091        4.6249489682
S               -1.5745375749        6.3681226510        1.4894891430
S               -3.1691856363        7.2823682226       10.7261977916
Mo              -4.7268400355       10.0065304219       -9.1672481230    0   0   0
Mo              -3.1512405618        9.0968403586       -3.0554816746    0   0   0
S               -4.7268341792       10.0065523623       -4.6232463762    0   0   0
S               -3.1512198634        9.0968439439       -7.6014065489    0   0   0
S               -3.1512194097        9.0968450728      -10.7330757790    0   0   0
S               -4.7268370797       10.0065537885       -1.4877176751    0   0   0
Mo              -4.7264534208       10.0066929219        3.0564396589
Mo              -3.1565855566        9.0996582707        9.1525533355
S               -4.7385168191       10.0090085039        7.5927199278
S               -3.1509431873        9.0971536847        4.6242265163
S               -3.1503368369        9.0969085662        1.4891319815
S               -4.7176690684       10.0061783058       10.7330141084
Mo               3.1512517547        1.8193638619       -9.1672481230    0   0   0
Mo               4.7269020221        0.9097289540       -3.0554823951    0   0   0
S                3.1512612351        1.8193882564       -4.6232320683    0   0   0
S                4.7268719268        0.9096773839       -7.6014065489    0   0   0
S                4.7268723805        0.9096785128      -10.7330757790    0   0   0
S                3.1512592485        1.8193890201       -1.4877261251    0   0   0
Mo               3.1517227303        1.8196960689        3.0566345455
Mo               4.7230101405        0.9131749839        9.1508454106
S                3.1429094287        1.8251606804        7.5908563518
S                4.7274367391        0.9101006792        4.6242002153
S                4.7276237133        0.9096551580        1.4891950392
S                3.1580299526        1.8071692964       10.7323470262
Mo               1.5756344123        4.5484193819       -9.1672481230    0   0   0
Mo               3.1512756394        3.6387769522       -3.0554814834    0   0   0
S                1.5756504879        4.5484423799       -4.6232390542    0   0   0
S                3.1512545844        3.6387329039       -7.6014065489    0   0   0
S                3.1512550381        3.6387340328      -10.7330757790    0   0   0
S                1.5756466253        4.5484431864       -1.4877251801    0   0   0
Mo               1.5761571362        4.5489875520        3.0565485116
Mo               3.1558710783        3.6296690955        9.1732916680
S                1.5698279585        4.5708702443        7.6421266335
S                3.1510952926        3.6392916816        4.6242840575
S                3.1519371315        3.6392124161        1.4890018792
S                1.5711437312        4.4384283939       10.8206774139
Mo               0.0000170699        7.2774749019       -9.1672481230    0   0   0
Mo               1.5756764447        6.3678236689       -3.0554877708    0   0   0
S                0.0000381981        7.2774979204       -4.6232454413    0   0   0
S                1.5756372420        6.3677884239       -7.6014065489    0   0   0
S                1.5756376957        6.3677895528      -10.7330757790    0   0   0
S                0.0000328088        7.2774946042       -1.4877307940    0   0   0
Mo               0.0010622480        7.2775990370        3.0574630778
Mo               1.5707737378        6.3581866226        9.2181390739
S                0.0163540365        7.2683969800        7.6430542318
S                1.5765742588        6.3678053414        4.6255914638
S                1.5762016512        6.3683441363        1.4891237861
S               -0.1193617305        7.3370136222       10.7961528556
Mo              -1.5756002725       10.0065304219       -9.1672481230    0   0   0
Mo               0.0000873425        9.0968676911       -3.0554912329    0   0   0
S               -1.5755883952       10.0065504530       -4.6232240150    0   0   0
S                0.0000198996        9.0968439439       -7.6014065489    0   0   0
S                0.0000203533        9.0968450728      -10.7330757790    0   0   0
S               -1.5755859047       10.0065492576       -1.4877362381    0   0   0
Mo              -1.5747780919       10.0065468510        3.0571486466
Mo              -0.0242837598        9.1134868750        9.1773974653
S               -1.5786854922       10.0080847202        7.5832920968
S                0.0010352814        9.0967739439        4.6255477911
S                0.0008156957        9.0967576338        1.4895213921
S               -1.6052065462       10.0263074211       10.7293111870
Mo               6.3024915177        1.8193638619       -9.1672481230    0   0   0
Mo               7.8781001445        0.9096521684       -3.0554919963    0   0   0
S                6.3025008696        1.8193826232       -4.6232480596    0   0   0
S                7.8781116898        0.9096773839       -7.6014065489    0   0   0
S                7.8781121435        0.9096785128      -10.7330757790    0   0   0
S                6.3025042007        1.8193849068       -1.4877147524    0   0   0
Mo               6.3033623501        1.8193441374        3.0567595015
Mo               7.8709672479        0.9242891124        9.1657994760
S                6.3052101947        1.8162608615        7.5805947921
S                7.8790616342        0.9094033141        4.6247328994
S                7.8788570723        0.9093324937        1.4892320259
S                6.2931218410        1.8312307556       10.7247161209
Mo               4.7268741753        4.5484193819       -9.1672481230    0   0   0
Mo               6.3024679138        3.6387501714       -3.0554895197    0   0   0
S                4.7268748770        4.5484386753       -4.6232519432    0   0   0
S                6.3024943474        3.6387329039       -7.6014065489    0   0   0
S                6.3024948011        3.6387340328      -10.7330757790    0   0   0
S                4.7268770533        4.5484432419       -1.4877137856    0   0   0
Mo               4.7274098071        4.5486750813        3.0570474817
Mo               6.3050873047        3.6346823185        9.1467328290
S                4.7236128838        4.5326485119        7.5776332485
S                6.3037106025        3.6389345478        4.6238016695
S                6.3029943406        3.6387842647        1.4889265996
S                4.7456236475        4.5328434471       10.7237658999
Mo               3.1512568329        7.2774749019       -9.1672481230    0   0   0
Mo               4.7268384135        6.3678043337       -3.0554959052    0   0   0
S                3.1512606125        7.2774972547       -4.6232589675    0   0   0
S                4.7268770050        6.3677884239       -7.6014065489    0   0   0
S                4.7268774587        6.3677895528      -10.7330757790    0   0   0
S                3.1512629079        7.2774963749       -1.4877081835    0   0   0
Mo               3.1516522730        7.2776529956        3.0571647526
Mo               4.7702050348        6.3419407292        9.1499018405
S                3.1348238560        7.2814760140        7.6624261318
S                4.7270062546        6.3680675622        4.6251687089
S                4.7273325869        6.3679957557        1.4893458838
S                3.2991876369        7.2399938684       10.7672003051
Mo               1.5756394905       10.0065304219       -9.1672481230    0   0   0
Mo               3.1512330605        9.0968514907       -3.0554878870    0   0   0
S                1.5756499830       10.0065443759       -4.6232632674    0   0   0
S                3.1512596626        9.0968439439       -7.6014065489    0   0   0
S                3.1512601163        9.0968450728      -10.7330757790    0   0   0
S                1.5756503041       10.0065459699       -1.4877044377    0   0   0
Mo               1.5764369107       10.0062650741        3.0573121868
Mo               3.1593488272        9.1150753320        9.2127967241
S                1.5841218445        9.9990690024        7.6323564683
S                3.1519605121        9.0967074923        4.6255854338
S                3.1514857525        9.0966252937        1.4890631746
S                1.4983931541       10.0581365426       10.7703325694
Mo               9.4537312807        1.8193638619       -9.1672481230    0   0   0
Mo              11.0293863460        0.9096952246       -3.0554894007    0   0   0
S                9.4537395970        1.8193770750       -4.6232328036    0   0   0
S               11.0293514528        0.9096773839       -7.6014065489    0   0   0
S               11.0293519066        0.9096785128      -10.7330757790    0   0   0
S                9.4537393632        1.8193794783       -1.4877366147    0   0   0
Mo               9.4545496745        1.8191568711        3.0568326966
Mo              11.0347885449        0.9156726732        9.1791508533
S                9.4601025565        1.8165510288        7.5975301432
S               11.0299875882        0.9091990546        4.6246319852
S               11.0299253726        0.9096416545        1.4888809962
S                9.4477404685        1.8274447668       10.7336145382
Mo               7.8781139383        4.5484193819       -9.1672481230    0   0   0
Mo               9.4537539161        3.6387607911       -3.0554933032    0   0   0
S                7.8781175448        4.5484378232       -4.6232366318    0   0   0
S                9.4537341104        3.6387329039       -7.6014065489    0   0   0
S                9.4537345641        3.6387340328      -10.7330757790    0   0   0
S                7.8781194018        4.5484411585       -1.4877377057    0   0   0
Mo               7.8790846913        4.5483690727        3.0561222906
Mo               9.4537963939        3.6393470255        9.1604322729
S                7.8849712536        4.5455330096        7.5804124139
S                9.4546212817        3.6386268771        4.6240894886
S                9.4549220748        3.6385698776        1.4888569634
S                7.8762143269        4.5501430072       10.7177193153
Mo               6.3024965959        7.2774749019       -9.1672481230    0   0   0
Mo               7.8781361655        6.3678242352       -3.0555014130    0   0   0
S                6.3024973331        7.2774953556       -4.6232392528    0   0   0
S                7.8781167680        6.3677884239       -7.6014065489    0   0   0
S                7.8781172217        6.3677895528      -10.7330757790    0   0   0
S                6.3024989866        7.2774929744       -1.4877349119    0   0   0
Mo               6.3028743094        7.2776240478        3.0571134427
Mo               7.8844018994        6.3691993641        9.1456818419
S                6.3142156045        7.2876097338        7.5782116291
S                7.8789105214        6.3673974127        4.6239426296
S                7.8787095449        6.3682376450        1.4891157426
S                6.3284867321        7.2668314254       10.7242064385
Mo               4.7268792535       10.0065304219       -9.1672481230    0   0   0
Mo               6.3025111524        9.0968738021       -3.0554915260    0   0   0
S                4.7268840634       10.0065452125       -4.6232380477    0   0   0
S                6.3024994256        9.0968439439       -7.6014065489    0   0   0
S                6.3024998793        9.0968450728      -10.7330757790    0   0   0
S                4.7268847312       10.0065459141       -1.4877283294    0   0   0
Mo               4.7270312107       10.0064236847        3.0564812199
Mo               6.3071026275        9.0974483569        9.1741455442
S                4.7105071823       10.0027172184        7.6321894515
S                6.3024400801        9.0974884883        4.6241118428
S                6.3028379789        9.0966733794        1.4888857231
S                4.7871916747       10.0493916152       10.7996591376
Pt               1.6045941742        6.4647507249       12.0334741770
Pd               3.0510288508        9.0018590316       12.1841273334
End final coordinates



     Writing all to output data dir ./outdir/pwscf.save/ :
     XML data file, charge density, pseudopotentials, collected wavefunctions
 
     init_run     :    175.55s CPU    178.73s WALL (       1 calls)
     electrons    : 241020.40s CPU 243977.46s WALL (      32 calls)
     update_pot   :     52.53s CPU     54.15s WALL (      31 calls)
     forces       :   4141.55s CPU   4214.69s WALL (      32 calls)
     force_dftd3  :     21.59s CPU     22.51s WALL (      32 calls)

     Called by init_run:
     wfcinit      :    151.51s CPU    153.24s WALL (       1 calls)
     potinit      :      1.31s CPU      1.42s WALL (       1 calls)
     hinit0       :     12.85s CPU     12.93s WALL (       1 calls)

     Called by electrons:
     c_bands      : 213455.57s CPU 215433.38s WALL (     387 calls)
     sum_band     :  24651.13s CPU  25157.76s WALL (     387 calls)
     v_of_rho     :    140.17s CPU    157.41s WALL (     390 calls)
     newd         :   2465.03s CPU   2930.07s WALL (     390 calls)
     PAW_pot      :    371.55s CPU    375.04s WALL (     421 calls)
     mix_rho      :     36.12s CPU     41.91s WALL (     387 calls)
     energy_dftd3 :     12.44s CPU     12.49s WALL (      32 calls)

     Called by c_bands:
     init_us_2    :    843.01s CPU    847.16s WALL (    3352 calls)
     init_us_2:cp :    842.98s CPU    847.14s WALL (    3352 calls)
     cegterg      : 209815.23s CPU 211770.03s WALL (    1570 calls)

     Called by *egterg:
     cdiaghg      :  12011.35s CPU  12420.86s WALL (   18663 calls)
     h_psi        : 106578.87s CPU 107239.99s WALL (   18908 calls)
     s_psi        :  24667.39s CPU  24815.96s WALL (   18908 calls)
     g_psi        :    192.91s CPU    193.84s WALL (   17334 calls)

     Called by h_psi:
     h_psi:calbec :  23932.13s CPU  24010.54s WALL (   18908 calls)
     vloc_psi     :  57397.69s CPU  57680.22s WALL (   18908 calls)
     add_vuspsi   :  24815.17s CPU  24970.15s WALL (   18908 calls)

     General routines
     calbec       :  34412.91s CPU  34524.96s WALL (   21092 calls)
     fft          :    133.56s CPU    149.32s WALL (    5418 calls)
     ffts         :      6.99s CPU      7.54s WALL (     777 calls)
     fftw         :  43481.16s CPU  43693.39s WALL (11234194 calls)
     interpolate  :     12.12s CPU     13.26s WALL (     390 calls)
 
     Parallel routines
 
     PWSCF        :   2d20h30m CPU   2d21h23m WALL

 
   This run was terminated on:   8: 0:26  17Mar2024            

=------------------------------------------------------------------------------=
   JOB DONE.
=------------------------------------------------------------------------------=
