
     Program PWSCF v.7.3 starts on 26Apr2024 at  4:22:50 

     This program is part of the open-source Quantum ESPRESSO suite
     for quantum simulation of materials; please cite
         "P. Giannozzi et al., J. Phys.:Condens. Matter 21 395502 (2009);
         "P. Giannozzi et al., J. Phys.:Condens. Matter 29 465901 (2017);
         "P. Giannozzi et al., J. Chem. Phys. 152 154105 (2020);
          URL http://www.quantum-espresso.org", 
     in publications or presentations arising from this work. More details at
     http://www.quantum-espresso.org/quote

     Parallel version (MPI & OpenMP), running on      36 processor cores
     Number of MPI processes:                36
     Threads/MPI process:                     1

     MPI processes distributed on     1 nodes
     557176 MiB available memory on the printing compute node when the environment starts
 
     Waiting for input...
     Reading input from standard input
Warning: card &CELL ignored
Warning: card / ignored

     Current dimensions of program PWSCF are:
     Max number of different atomic species (ntypx) = 10
     Max number of k-points (npk) =  40000
     Max angular momentum in pseudopotentials (lmaxx) =  4
     file Mo.pbe-spn-kjpaw_psl.1.0.0.UPF: wavefunction(s)  4S 4D renormalized
     file S.pbe-n-kjpaw_psl.1.0.0.UPF: wavefunction(s)  3S 3P renormalized
     file Pd.pbe-spn-kjpaw_psl.1.0.0.UPF: wavefunction(s)  4S 5S 4D renormalized
     file Pt.pbe-spfn-kjpaw_psl.1.0.0.UPF: wavefunction(s)  5P 4F renormalized
 
     R & G space division:  proc/nbgrp/npool/nimage =      36
     Subspace diagonalization in iterative solution of the eigenvalue problem:
     one sub-group per band group will be used
     scalapack distributed-memory algorithm (size of sub-group:  6*  6 procs)

 
     Parallelization info
     --------------------
     sticks:   dense  smooth     PW     G-vecs:    dense   smooth      PW
     Min         585     334     89               198743    85850   11735
     Max         586     335     90               198750    85861   11748
     Sum       21073   12049   3205              7154885  3090769  422587
 
     Using Slab Decomposition
 


     bravais-lattice index     =            0
     lattice parameter (alat)  =      23.8199  a.u.
     unit-cell volume          =   33861.0370 (a.u.)^3
     number of atoms/cell      =          195
     number of atomic types    =            4
     number of electrons       =      1732.00
     number of Kohn-Sham states=         1039
     kinetic-energy cutoff     =      77.0000  Ry
     charge density cutoff     =     539.0000  Ry
     scf convergence threshold =      1.0E-06
     mixing beta               =       0.2000
     number of iterations used =            8  plain     mixing
     energy convergence thresh.=      1.0E-04
     force convergence thresh. =      1.0E-03
     Exchange-correlation= SLA  PW   PBX  PBC
                           (   1   4   3   4   0   0   0)
     nstep                     =         1000


     Effective Screening Medium Method
     =================================
     Boundary Conditions: Vacuum-Slab-Vacuum
     total charge in unit cell        =   0.0000
     grid points for fit at edges     =        4 
 

     celldm(1)=  23.819920  celldm(2)=   0.000000  celldm(3)=   0.000000
     celldm(4)=   0.000000  celldm(5)=   0.000000  celldm(6)=   0.000000

     crystal axes: (cart. coord. in units of alat)
               a(1) = (   1.000000   0.000000   0.000000 )  
               a(2) = (  -0.499999   0.866026   0.000000 )  
               a(3) = (   0.000000   0.000000   2.893000 )  

     reciprocal axes: (cart. coord. in units 2 pi/alat)
               b(1) = (  1.000000  0.577349  0.000000 )  
               b(2) = (  0.000000  1.154700  0.000000 )  
               b(3) = (  0.000000  0.000000  0.345662 )  


     PseudoPot. # 1 for Mo read from file:
     ./pseudo/Mo.pbe-spn-kjpaw_psl.1.0.0.UPF
     MD5 check sum: 317bf72632116215fd98f72de1686f13
     Pseudo is Projector augmented-wave + core cor, Zval = 14.0
     Generated using 'atomic' code by A. Dal Corso  v.7.2
     Shape of augmentation charge: PSQ
     Using radial grid of 1229 points,  6 beta functions with: 
                l(1) =   0
                l(2) =   0
                l(3) =   1
                l(4) =   1
                l(5) =   2
                l(6) =   2
     Q(r) pseudized with 0 coefficients 


     PseudoPot. # 2 for S  read from file:
     ./pseudo/S.pbe-n-kjpaw_psl.1.0.0.UPF
     MD5 check sum: 8b7b5302570d38d5e87fed6a1065abda
     Pseudo is Projector augmented-wave + core cor, Zval =  6.0
     Generated using 'atomic' code by A. Dal Corso  v.7.2
     Shape of augmentation charge: PSQ
     Using radial grid of 1151 points,  6 beta functions with: 
                l(1) =   0
                l(2) =   0
                l(3) =   1
                l(4) =   1
                l(5) =   2
                l(6) =   2
     Q(r) pseudized with 0 coefficients 


     PseudoPot. # 3 for Pd read from file:
     ./pseudo/Pd.pbe-spn-kjpaw_psl.1.0.0.UPF
     MD5 check sum: a60571a671f2502b8a6a4569d20a6edb
     Pseudo is Projector augmented-wave + core cor, Zval = 18.0
     Generated using 'atomic' code by A. Dal Corso  v.7.2
     Shape of augmentation charge: PSQ
     Using radial grid of 1235 points,  6 beta functions with: 
                l(1) =   0
                l(2) =   0
                l(3) =   1
                l(4) =   1
                l(5) =   2
                l(6) =   2
     Q(r) pseudized with 0 coefficients 


     PseudoPot. # 4 for Pt read from file:
     ./pseudo/Pt.pbe-spfn-kjpaw_psl.1.0.0.UPF
     MD5 check sum: 620096ebf4e6ebacc94de60fd67efcb5
     Pseudo is Projector augmented-wave + core cor, Zval = 32.0
     Generated using 'atomic' code by A. Dal Corso  v.7.2
     Shape of augmentation charge: PSQ
     Using radial grid of 1277 points,  8 beta functions with: 
                l(1) =   0
                l(2) =   0
                l(3) =   1
                l(4) =   1
                l(5) =   2
                l(6) =   2
                l(7) =   3
                l(8) =   3
     Q(r) pseudized with 0 coefficients 


     atomic species   valence    mass     pseudopotential
     Mo               14.00    95.95000     Mo( 1.00)
     S                 6.00    32.06000     S ( 1.00)
     Pd               18.00   106.42000     Pd( 1.00)
     Pt               32.00   195.08400     Pt( 1.00)

     No symmetry found



   Cartesian axes

     site n.     atom                  positions (alat units)
         1        Mo     tau(   1) = (   0.0000010   0.1443372  -0.7272732  )
         2        Mo     tau(   2) = (   0.1249995   0.0721706  -0.2424038  )
         3        S      tau(   3) = (   0.0000015   0.1443386  -0.3667807  )
         4        S      tau(   4) = (   0.1250010   0.0721682  -0.6030489  )
         5        S      tau(   5) = (   0.1250010   0.0721683  -0.8514963  )
         6        S      tau(   6) = (   0.0000015   0.1443389  -0.1180260  )
         7        Mo     tau(   7) = (   0.0000222   0.1444187   0.2425595  )
         8        Mo     tau(   8) = (   0.1245966   0.0727010   0.7278826  )
         9        S      tau(   9) = (   0.0000166   0.1448419   0.6020343  )
        10        S      tau(  10) = (   0.1250561   0.0722903   0.3669179  )
        11        S      tau(  11) = (   0.1250140   0.0722444   0.1181576  )
        12        S      tau(  12) = (  -0.0013476   0.1442175   0.8515296  )
        13        Mo     tau(  13) = (  -0.1249989   0.3608437  -0.7272732  )
        14        Mo     tau(  14) = (   0.0000030   0.2886752  -0.2424042  )
        15        S      tau(  15) = (  -0.1249977   0.3608450  -0.3667802  )
        16        S      tau(  16) = (   0.0000012   0.2886747  -0.6030489  )
        17        S      tau(  17) = (   0.0000012   0.2886748  -0.8514963  )
        18        S      tau(  18) = (  -0.1249977   0.3608454  -0.1180274  )
        19        Mo     tau(  19) = (  -0.1249777   0.3609089   0.2425603  )
        20        Mo     tau(  20) = (  -0.0029637   0.2882853   0.7270120  )
        21        S      tau(  21) = (  -0.1256983   0.3625185   0.6019747  )
        22        S      tau(  22) = (   0.0000591   0.2887797   0.3669668  )
        23        S      tau(  23) = (   0.0000075   0.2887346   0.1181682  )
        24        S      tau(  24) = (  -0.1270233   0.3617098   0.8514678  )
        25        Mo     tau(  25) = (  -0.2499987   0.5773502  -0.7272732  )
        26        Mo     tau(  26) = (  -0.1249977   0.5051839  -0.2424055  )
        27        S      tau(  27) = (  -0.2499981   0.5773518  -0.3667809  )
        28        S      tau(  28) = (  -0.1249986   0.5051812  -0.6030489  )
        29        S      tau(  29) = (  -0.1249986   0.5051813  -0.8514963  )
        30        S      tau(  30) = (  -0.2499979   0.5773512  -0.1180266  )
        31        Mo     tau(  31) = (  -0.2499821   0.5774144   0.2425369  )
        32        Mo     tau(  32) = (  -0.1258229   0.5064885   0.7278520  )
        33        S      tau(  33) = (  -0.2493952   0.5788088   0.6023234  )
        34        S      tau(  34) = (  -0.1249462   0.5052707   0.3669162  )
        35        S      tau(  35) = (  -0.1249880   0.5052329   0.1181602  )
        36        S      tau(  36) = (  -0.2509230   0.5788413   0.8515814  )
        37        Mo     tau(  37) = (  -0.3749985   0.7938567  -0.7272732  )
        38        Mo     tau(  38) = (  -0.2500001   0.7216874  -0.2424031  )
        39        S      tau(  39) = (  -0.3749980   0.7938584  -0.3667800  )
        40        S      tau(  40) = (  -0.2499984   0.7216877  -0.6030489  )
        41        S      tau(  41) = (  -0.2499984   0.7216878  -0.8514963  )
        42        S      tau(  42) = (  -0.3749982   0.7938585  -0.1180264  )
        43        Mo     tau(  43) = (  -0.3749910   0.7939458   0.2425394  )
        44        Mo     tau(  44) = (  -0.2499391   0.7230231   0.7269923  )
        45        S      tau(  45) = (  -0.3746478   0.7955125   0.6023635  )
        46        S      tau(  46) = (  -0.2500018   0.7217675   0.3668983  )
        47        S      tau(  47) = (  -0.2499845   0.7217593   0.1181709  )
        48        S      tau(  48) = (  -0.3753625   0.7942039   0.8516391  )
        49        Mo     tau(  49) = (   0.2500010   0.1443372  -0.7272732  )
        50        Mo     tau(  50) = (   0.3750034   0.0721723  -0.2424032  )
        51        S      tau(  51) = (   0.2500017   0.1443391  -0.3667788  )
        52        S      tau(  52) = (   0.3750010   0.0721682  -0.6030489  )
        53        S      tau(  53) = (   0.3750010   0.0721683  -0.8514963  )
        54        S      tau(  54) = (   0.2500016   0.1443391  -0.1180271  )
        55        Mo     tau(  55) = (   0.2500120   0.1444423   0.2425270  )
        56        Mo     tau(  56) = (   0.3753385   0.0727176   0.7280385  )
        57        S      tau(  57) = (   0.2501061   0.1471948   0.6059873  )
        58        S      tau(  58) = (   0.3749665   0.0722824   0.3669588  )
        59        S      tau(  59) = (   0.3750194   0.0722259   0.1181828  )
        60        S      tau(  60) = (   0.2503224   0.1381707   0.8567863  )
        61        Mo     tau(  61) = (   0.1250012   0.3608437  -0.7272732  )
        62        Mo     tau(  62) = (   0.2500029   0.2886782  -0.2424031  )
        63        S      tau(  63) = (   0.1250024   0.3608455  -0.3667794  )
        64        S      tau(  64) = (   0.2500012   0.2886747  -0.6030489  )
        65        S      tau(  65) = (   0.2500012   0.2886748  -0.8514963  )
        66        S      tau(  66) = (   0.1250021   0.3608455  -0.1180270  )
        67        Mo     tau(  67) = (   0.1250146   0.3609220   0.2425310  )
        68        Mo     tau(  68) = (   0.2504060   0.2889449   0.7322230  )
        69        S      tau(  69) = (   0.1260377   0.3627995   0.6088284  )
        70        S      tau(  70) = (   0.2499668   0.2887692   0.3669710  )
        71        S      tau(  71) = (   0.2500114   0.2887581   0.1181457  )
        72        S      tau(  72) = (   0.1159817   0.3569446   0.8558923  )
        73        Mo     tau(  73) = (   0.0000014   0.5773502  -0.7272732  )
        74        Mo     tau(  74) = (   0.1250045   0.5051840  -0.2424036  )
        75        S      tau(  75) = (   0.0000030   0.5773520  -0.3667799  )
        76        S      tau(  76) = (   0.1250014   0.5051812  -0.6030489  )
        77        S      tau(  77) = (   0.1250014   0.5051813  -0.8514963  )
        78        S      tau(  78) = (   0.0000026   0.5773517  -0.1180274  )
        79        Mo     tau(  79) = (   0.0000277   0.5774027   0.2425352  )
        80        Mo     tau(  80) = (   0.1244123   0.5073284   0.7323387  )
        81        S      tau(  81) = (   0.0015839   0.5778224   0.6060731  )
        82        S      tau(  82) = (   0.1249885   0.5052105   0.3669878  )
        83        S      tau(  83) = (   0.1250163   0.5052440   0.1181546  )
        84        S      tau(  84) = (  -0.0063306   0.5826378   0.8568465  )
        85        Mo     tau(  85) = (  -0.1249984   0.7938567  -0.7272732  )
        86        Mo     tau(  86) = (   0.0000069   0.7216896  -0.2424039  )
        87        S      tau(  87) = (  -0.1249975   0.7938582  -0.3667782  )
        88        S      tau(  88) = (   0.0000016   0.7216877  -0.6030489  )
        89        S      tau(  89) = (   0.0000016   0.7216878  -0.8514963  )
        90        S      tau(  90) = (  -0.1249973   0.7938582  -0.1180279  )
        91        Mo     tau(  91) = (  -0.1249896   0.7939312   0.2425787  )
        92        Mo     tau(  92) = (  -0.0004661   0.7235602   0.7280479  )
        93        S      tau(  93) = (  -0.1246539   0.7952907   0.6028036  )
        94        S      tau(  94) = (   0.0000057   0.7217075   0.3669682  )
        95        S      tau(  95) = (  -0.0000058   0.7217536   0.1181837  )
        96        S      tau(  96) = (  -0.1254262   0.7948489   0.8523899  )
        97        Mo     tau(  97) = (   0.5000010   0.1443372  -0.7272732  )
        98        Mo     tau(  98) = (   0.6250001   0.0721662  -0.2424040  )
        99        S      tau(  99) = (   0.5000017   0.1443386  -0.3667801  )
       100        S      tau( 100) = (   0.6250010   0.0721682  -0.6030489  )
       101        S      tau( 101) = (   0.6250010   0.0721683  -0.8514963  )
       102        S      tau( 102) = (   0.5000020   0.1443388  -0.1180261  )
       103        Mo     tau( 103) = (   0.4999896   0.1444085   0.2425760  )
       104        Mo     tau( 104) = (   0.6249106   0.0734024   0.7271439  )
       105        S      tau( 105) = (   0.4997403   0.1454705   0.6028629  )
       106        S      tau( 106) = (   0.6250025   0.0722337   0.3669107  )
       107        S      tau( 107) = (   0.6249747   0.0722025   0.1181744  )
       108        S      tau( 108) = (   0.5004717   0.1456393   0.8518204  )
       109        Mo     tau( 109) = (   0.3750012   0.3608437  -0.7272732  )
       110        Mo     tau( 110) = (   0.4999991   0.2886761  -0.2424038  )
       111        S      tau( 111) = (   0.3750012   0.3608452  -0.3667804  )
       112        S      tau( 112) = (   0.5000012   0.2886747  -0.6030489  )
       113        S      tau( 113) = (   0.5000012   0.2886748  -0.8514963  )
       114        S      tau( 114) = (   0.3750014   0.3608455  -0.1180261  )
       115        Mo     tau( 115) = (   0.3749750   0.3609148   0.2425684  )
       116        Mo     tau( 116) = (   0.5011524   0.2898551   0.7275448  )
       117        S      tau( 117) = (   0.3735446   0.3613798   0.6062215  )
       118        S      tau( 118) = (   0.4999580   0.2887676   0.3669508  )
       119        S      tau( 119) = (   0.4999841   0.2887256   0.1181818  )
       120        S      tau( 120) = (   0.3822446   0.3659056   0.8554316  )
       121        Mo     tau( 121) = (   0.2500014   0.5773502  -0.7272732  )
       122        Mo     tau( 122) = (   0.3749983   0.5051825  -0.2424043  )
       123        S      tau( 123) = (   0.2500017   0.5773519  -0.3667810  )
       124        S      tau( 124) = (   0.3750014   0.5051812  -0.6030489  )
       125        S      tau( 125) = (   0.3750014   0.5051813  -0.8514963  )
       126        S      tau( 126) = (   0.2500018   0.5773519  -0.1180256  )
       127        Mo     tau( 127) = (   0.2499849   0.5773839   0.2425825  )
       128        Mo     tau( 128) = (   0.3768766   0.5074715   0.7281761  )
       129        S      tau( 129) = (   0.2486635   0.5776965   0.6062935  )
       130        S      tau( 130) = (   0.3749671   0.5052274   0.3670086  )
       131        S      tau( 131) = (   0.3749970   0.5052445   0.1181960  )
       132        S      tau( 132) = (   0.2571816   0.5830870   0.8554758  )
       133        Mo     tau( 133) = (   0.1250016   0.7938567  -0.7272732  )
       134        Mo     tau( 134) = (   0.2499995   0.7216883  -0.2424036  )
       135        S      tau( 135) = (   0.1250024   0.7938578  -0.3667813  )
       136        S      tau( 136) = (   0.2500016   0.7216877  -0.6030489  )
       137        S      tau( 137) = (   0.2500016   0.7216878  -0.8514963  )
       138        S      tau( 138) = (   0.1250024   0.7938579  -0.1180253  )
       139        Mo     tau( 139) = (   0.1249925   0.7938982   0.2425783  )
       140        Mo     tau( 140) = (   0.2504874   0.7240318   0.7276005  )
       141        S      tau( 141) = (   0.1247502   0.7949264   0.6029133  )
       142        S      tau( 142) = (   0.2499928   0.7217086   0.3669584  )
       143        S      tau( 143) = (   0.2499817   0.7217168   0.1181890  )
       144        S      tau( 144) = (   0.1251679   0.7955203   0.8518202  )
       145        Mo     tau( 145) = (   0.7500010   0.1443372  -0.7272732  )
       146        Mo     tau( 146) = (   0.8750038   0.0721696  -0.2424038  )
       147        S      tau( 147) = (   0.7500016   0.1443382  -0.3667789  )
       148        S      tau( 148) = (   0.8750010   0.0721682  -0.6030489  )
       149        S      tau( 149) = (   0.8750010   0.0721683  -0.8514963  )
       150        S      tau( 150) = (   0.7500016   0.1443384  -0.1180279  )
       151        Mo     tau( 151) = (   0.7499969   0.1443861   0.2425090  )
       152        Mo     tau( 152) = (   0.8747528   0.0730779   0.7263799  )
       153        S      tau( 153) = (   0.7495020   0.1453181   0.6020842  )
       154        S      tau( 154) = (   0.8749912   0.0722441   0.3668818  )
       155        S      tau( 155) = (   0.8750227   0.0722127   0.1181591  )
       156        S      tau( 156) = (   0.7499182   0.1456588   0.8509527  )
       157        Mo     tau( 157) = (   0.6250012   0.3608437  -0.7272732  )
       158        Mo     tau( 158) = (   0.7500028   0.2886769  -0.2424041  )
       159        S      tau( 159) = (   0.6250015   0.3608451  -0.3667792  )
       160        S      tau( 160) = (   0.7500012   0.2886747  -0.6030489  )
       161        S      tau( 161) = (   0.7500012   0.2886748  -0.8514963  )
       162        S      tau( 162) = (   0.6250016   0.3608454  -0.1180280  )
       163        Mo     tau( 163) = (   0.6249910   0.3608952   0.2425431  )
       164        Mo     tau( 164) = (   0.7494837   0.2899696   0.7262894  )
       165        S      tau( 165) = (   0.6246231   0.3621365   0.6018551  )
       166        S      tau( 166) = (   0.7500034   0.2887135   0.3668814  )
       167        S      tau( 167) = (   0.7500079   0.2887338   0.1181595  )
       168        S      tau( 168) = (   0.6260048   0.3625460   0.8512927  )
       169        Mo     tau( 169) = (   0.5000014   0.5773502  -0.7272732  )
       170        Mo     tau( 170) = (   0.6250029   0.5051841  -0.2424047  )
       171        S      tau( 171) = (   0.5000014   0.5773518  -0.3667794  )
       172        S      tau( 172) = (   0.6250014   0.5051812  -0.6030489  )
       173        S      tau( 173) = (   0.6250014   0.5051813  -0.8514963  )
       174        S      tau( 174) = (   0.5000016   0.5773516  -0.1180277  )
       175        Mo     tau( 175) = (   0.4999891   0.5774067   0.2425764  )
       176        Mo     tau( 176) = (   0.6253058   0.5066864   0.7263366  )
       177        S      tau( 177) = (   0.5001147   0.5786992   0.6018768  )
       178        S      tau( 178) = (   0.6250219   0.5052389   0.3668960  )
       179        S      tau( 179) = (   0.6249897   0.5052360   0.1181749  )
       180        S      tau( 180) = (   0.5022411   0.5798745   0.8515808  )
       181        Mo     tau( 181) = (   0.3750016   0.7938567  -0.7272732  )
       182        Mo     tau( 182) = (   0.5000025   0.7216901  -0.2424039  )
       183        S      tau( 183) = (   0.3750019   0.7938578  -0.3667793  )
       184        S      tau( 184) = (   0.5000016   0.7216877  -0.6030489  )
       185        S      tau( 185) = (   0.5000016   0.7216878  -0.8514963  )
       186        S      tau( 186) = (   0.3750020   0.7938579  -0.1180272  )
       187        Mo     tau( 187) = (   0.3749890   0.7939067   0.2425443  )
       188        Mo     tau( 188) = (   0.5002702   0.7230996   0.7264112  )
       189        S      tau( 189) = (   0.3747820   0.7948530   0.6019718  )
       190        S      tau( 190) = (   0.5000014   0.7217825   0.3669010  )
       191        S      tau( 191) = (   0.5000049   0.7217309   0.1181759  )
       192        S      tau( 192) = (   0.3757788   0.7958654   0.8513800  )
       193        Pd     tau( 193) = (   0.1298567   0.5028633   0.9631584  )
       194        Pd     tau( 194) = (   0.2489715   0.2959876   0.9631435  )
       195        Pt     tau( 195) = (   0.1298695   0.5028973   1.1535936  )

     --------------------------------------------
     DFT-D3 Dispersion Correction (3-body terms):
     --------------------------------------------
       Reference C6 values for interpolation: 

         atom   Coordination number   C6
         S          0.000           268.01
         S          0.995           261.99
         S          1.990           251.62
         Mo         0.000          1691.79
         Mo         1.942          1004.01
         Mo        11.056           674.22
         Pd         0.000          1217.01
         Pd         1.863           573.90
         Pd         5.710           531.75
         Pt         0.000           782.29
         Pt         1.919           692.72
         Pt         6.667           673.75

       Values used:

         atom   Coordination number  R0_AB[au]  C6      C8
         Mo        10.208            3.547    674.22  77634.20
         Mo        10.221            3.547    674.22  77634.20
         S          3.858            3.128    251.62  12327.25
         S          3.859            3.128    251.62  12327.25
         S          3.758            3.128    251.62  12327.25
         S          3.859            3.128    251.62  12327.25
         Mo        10.220            3.547    674.22  77634.20
         Mo        10.221            3.547    674.22  77634.20
         S          3.841            3.128    251.62  12327.25
         S          3.858            3.128    251.62  12327.25
         S          3.858            3.128    251.62  12327.25
         S          3.815            3.128    251.62  12327.25
         Mo        10.208            3.547    674.22  77634.20
         Mo        10.221            3.547    674.22  77634.20
         S          3.858            3.128    251.62  12327.25
         S          3.859            3.128    251.62  12327.25
         S          3.758            3.128    251.62  12327.25
         S          3.859            3.128    251.62  12327.25
         Mo        10.220            3.547    674.22  77634.20
         Mo        10.181            3.547    674.22  77634.20
         S          3.842            3.128    251.62  12327.25
         S          3.854            3.128    251.62  12327.25
         S          3.858            3.128    251.62  12327.25
         S          3.816            3.128    251.62  12327.25
         Mo        10.208            3.547    674.22  77634.20
         Mo        10.221            3.547    674.22  77634.20
         S          3.858            3.128    251.62  12327.25
         S          3.859            3.128    251.62  12327.25
         S          3.758            3.128    251.62  12327.25
         S          3.859            3.128    251.62  12327.25
         Mo        10.219            3.547    674.22  77634.20
         Mo        10.223            3.547    674.22  77634.20
         S          3.850            3.128    251.62  12327.25
         S          3.858            3.128    251.62  12327.25
         S          3.858            3.128    251.62  12327.25
         S          3.817            3.128    251.62  12327.25
         Mo        10.208            3.547    674.22  77634.20
         Mo        10.220            3.547    674.22  77634.20
         S          3.858            3.128    251.62  12327.25
         S          3.859            3.128    251.62  12327.25
         S          3.758            3.128    251.62  12327.25
         S          3.859            3.128    251.62  12327.25
         Mo        10.219            3.547    674.22  77634.20
         Mo        10.251            3.547    674.22  77634.20
         S          3.850            3.128    251.62  12327.25
         S          3.860            3.128    251.62  12327.25
         S          3.859            3.128    251.62  12327.25
         S          3.815            3.128    251.62  12327.25
         Mo        10.208            3.547    674.22  77634.20
         Mo        10.221            3.547    674.22  77634.20
         S          3.858            3.128    251.62  12327.25
         S          3.859            3.128    251.62  12327.25
         S          3.758            3.128    251.62  12327.25
         S          3.859            3.128    251.62  12327.25
         Mo        10.221            3.547    674.22  77634.20
         Mo        10.228            3.547    674.22  77634.20
         S          3.853            3.128    251.62  12327.25
         S          3.856            3.128    251.62  12327.25
         S          3.859            3.128    251.62  12327.25
         S          4.644            3.128    251.62  12327.25
         Mo        10.208            3.547    674.22  77634.20
         Mo        10.221            3.547    674.22  77634.20
         S          3.858            3.128    251.62  12327.25
         S          3.859            3.128    251.62  12327.25
         S          3.758            3.128    251.62  12327.25
         S          3.859            3.128    251.62  12327.25
         Mo        10.222            3.547    674.22  77634.20
         Mo        10.783            3.547    674.22  77634.20
         S          3.877            3.128    251.62  12327.25
         S          3.850            3.128    251.62  12327.25
         S          3.859            3.128    251.62  12327.25
         S          5.613            3.128    251.62  12327.25
         Mo        10.208            3.547    674.22  77634.20
         Mo        10.221            3.547    674.22  77634.20
         S          3.858            3.128    251.62  12327.25
         S          3.859            3.128    251.62  12327.25
         S          3.758            3.128    251.62  12327.25
         S          3.859            3.128    251.62  12327.25
         Mo        10.221            3.547    674.22  77634.20
         Mo        10.785            3.547    674.22  77634.20
         S          3.854            3.128    251.62  12327.25
         S          3.849            3.128    251.62  12327.25
         S          3.859            3.128    251.62  12327.25
         S          4.650            3.128    251.62  12327.25
         Mo        10.208            3.547    674.22  77634.20
         Mo        10.221            3.547    674.22  77634.20
         S          3.858            3.128    251.62  12327.25
         S          3.859            3.128    251.62  12327.25
         S          3.758            3.128    251.62  12327.25
         S          3.859            3.128    251.62  12327.25
         Mo        10.220            3.547    674.22  77634.20
         Mo        10.229            3.547    674.22  77634.20
         S          3.847            3.128    251.62  12327.25
         S          3.855            3.128    251.62  12327.25
         S          3.859            3.128    251.62  12327.25
         S          3.827            3.128    251.62  12327.25
         Mo        10.208            3.547    674.22  77634.20
         Mo        10.221            3.547    674.22  77634.20
         S          3.858            3.128    251.62  12327.25
         S          3.859            3.128    251.62  12327.25
         S          3.758            3.128    251.62  12327.25
         S          3.859            3.128    251.62  12327.25
         Mo        10.221            3.547    674.22  77634.20
         Mo        10.242            3.547    674.22  77634.20
         S          3.860            3.128    251.62  12327.25
         S          3.860            3.128    251.62  12327.25
         S          3.859            3.128    251.62  12327.25
         S          3.765            3.128    251.62  12327.25
         Mo        10.208            3.547    674.22  77634.20
         Mo        10.221            3.547    674.22  77634.20
         S          3.858            3.128    251.62  12327.25
         S          3.859            3.128    251.62  12327.25
         S          3.758            3.128    251.62  12327.25
         S          3.859            3.128    251.62  12327.25
         Mo        10.222            3.547    674.22  77634.20
         Mo        10.216            3.547    674.22  77634.20
         S          3.862            3.128    251.62  12327.25
         S          3.856            3.128    251.62  12327.25
         S          3.859            3.128    251.62  12327.25
         S          4.667            3.128    251.62  12327.25
         Mo        10.208            3.547    674.21  77634.20
         Mo        10.221            3.547    674.22  77634.20
         S          3.858            3.128    251.62  12327.25
         S          3.859            3.128    251.62  12327.25
         S          3.758            3.128    251.62  12327.25
         S          3.859            3.128    251.62  12327.25
         Mo        10.222            3.547    674.22  77634.20
         Mo        10.177            3.547    674.22  77634.20
         S          3.863            3.128    251.62  12327.25
         S          3.852            3.128    251.62  12327.25
         S          3.859            3.128    251.62  12327.25
         S          4.673            3.128    251.62  12327.25
         Mo        10.208            3.547    674.21  77634.20
         Mo        10.221            3.547    674.22  77634.20
         S          3.858            3.128    251.62  12327.25
         S          3.859            3.128    251.62  12327.25
         S          3.758            3.128    251.62  12327.25
         S          3.859            3.128    251.62  12327.25
         Mo        10.221            3.547    674.22  77634.20
         Mo        10.215            3.547    674.22  77634.20
         S          3.860            3.128    251.62  12327.25
         S          3.856            3.128    251.62  12327.25
         S          3.859            3.128    251.62  12327.25
         S          3.765            3.128    251.62  12327.25
         Mo        10.208            3.547    674.22  77634.20
         Mo        10.221            3.547    674.22  77634.20
         S          3.858            3.128    251.62  12327.25
         S          3.859            3.128    251.62  12327.25
         S          3.758            3.128    251.62  12327.25
         S          3.859            3.128    251.62  12327.25
         Mo        10.220            3.547    674.22  77634.20
         Mo        10.267            3.547    674.22  77634.20
         S          3.858            3.128    251.62  12327.25
         S          3.861            3.128    251.62  12327.25
         S          3.858            3.128    251.62  12327.25
         S          3.781            3.128    251.62  12327.25
         Mo        10.208            3.547    674.22  77634.20
         Mo        10.220            3.547    674.22  77634.20
         S          3.858            3.128    251.62  12327.25
         S          3.859            3.128    251.62  12327.25
         S          3.758            3.128    251.62  12327.25
         S          3.859            3.128    251.62  12327.25
         Mo        10.220            3.547    674.22  77634.20
         Mo        10.268            3.547    674.22  77634.20
         S          3.850            3.128    251.62  12327.25
         S          3.862            3.128    251.62  12327.25
         S          3.858            3.128    251.62  12327.25
         S          3.813            3.128    251.62  12327.25
         Mo        10.208            3.547    674.22  77634.20
         Mo        10.221            3.547    674.22  77634.20
         S          3.858            3.128    251.62  12327.25
         S          3.859            3.128    251.62  12327.25
         S          3.758            3.128    251.62  12327.25
         S          3.859            3.128    251.62  12327.25
         Mo        10.220            3.547    674.22  77634.20
         Mo        10.263            3.547    674.22  77634.20
         S          3.838            3.128    251.62  12327.25
         S          3.861            3.128    251.62  12327.25
         S          3.859            3.128    251.62  12327.25
         S          3.841            3.128    251.62  12327.25
         Mo        10.208            3.547    674.22  77634.20
         Mo        10.221            3.547    674.22  77634.20
         S          3.858            3.128    251.62  12327.25
         S          3.859            3.128    251.62  12327.25
         S          3.758            3.128    251.62  12327.25
         S          3.859            3.128    251.62  12327.25
         Mo        10.220            3.547    674.22  77634.20
         Mo        10.262            3.547    674.22  77634.20
         S          3.850            3.128    251.62  12327.25
         S          3.861            3.128    251.62  12327.25
         S          3.859            3.128    251.62  12327.25
         S          3.812            3.128    251.62  12327.25
         Pd         5.018            3.168    531.75  48720.73
         Pd         4.066            3.168    531.76  48721.40
         Pt         1.023            3.168    716.00  74455.40

         Molecular C6 ( Ry / a.u.^6 ) =  14155599.45


     number of k points=     4  Gaussian smearing, width (Ry)=  0.0100
                       cart. coord. in units 2pi/alat
        k(    1) = (   0.0000000   0.0000000   0.0000000), wk =   0.5000000
        k(    2) = (   0.0000000  -0.5773499   0.0000000), wk =   0.5000000
        k(    3) = (  -0.5000000  -0.2886744   0.0000000), wk =   0.5000000
        k(    4) = (  -0.5000000  -0.8660242   0.0000000), wk =   0.5000000

     Dense  grid:  7154885 G-vectors     FFT dimensions: ( 180, 180, 512)

     Smooth grid:  3090769 G-vectors     FFT dimensions: ( 135, 135, 400)

     Estimated max dynamical RAM per process >       4.32 GB

     Estimated total dynamical RAM >     155.52 GB

     Atomic positions and unit cell read from directory:
     ./outdir/pwscf.save/
     Atomic positions from file used, from input discarded
 

     The initial density is read from file :
     ./outdir/pwscf.save/charge-density


     negative rho (up, down):  8.925E-04 0.000E+00
     Cannot read wfcs: file not found
     Starting wfcs are 1189 randomized atomic wfcs
     Checking if some PAW data can be deallocated... 

     total cpu time spent up to now is      184.6 secs

     Self-consistent Calculation

     iteration #  1     ecut=    77.00 Ry     beta= 0.20
     Davidson diagonalization with overlap
     c_bands:  5 eigenvalues not converged
     c_bands:  3 eigenvalues not converged
     c_bands:  4 eigenvalues not converged
     c_bands:  4 eigenvalues not converged
     ethr =  1.00E-05,  avg # of iterations =115.0

     negative rho (up, down):  8.275E-04 0.000E+00

     total cpu time spent up to now is    10960.1 secs

     total energy              =  -34492.42072187 Ry
     estimated scf accuracy    <       3.13145063 Ry

     iteration #  2     ecut=    77.00 Ry     beta= 0.20
     Davidson diagonalization with overlap
     ethr =  1.81E-04,  avg # of iterations = 10.8

     negative rho (up, down):  7.890E-04 0.000E+00

     total cpu time spent up to now is    11414.7 secs

     total energy              =  -34492.31122128 Ry
     estimated scf accuracy    <       1.28322496 Ry

     iteration #  3     ecut=    77.00 Ry     beta= 0.20
     Davidson diagonalization with overlap
     ethr =  7.41E-05,  avg # of iterations = 13.0

     negative rho (up, down):  7.635E-04 0.000E+00

     total cpu time spent up to now is    11878.7 secs

     total energy              =  -34492.16820030 Ry
     estimated scf accuracy    <       1.56388841 Ry

     iteration #  4     ecut=    77.00 Ry     beta= 0.20
     Davidson diagonalization with overlap
     ethr =  7.41E-05,  avg # of iterations =  4.2

     negative rho (up, down):  7.310E-04 0.000E+00

     total cpu time spent up to now is    12302.2 secs

     total energy              =  -34492.18794492 Ry
     estimated scf accuracy    <       0.52103699 Ry

     iteration #  5     ecut=    77.00 Ry     beta= 0.20
     Davidson diagonalization with overlap
     ethr =  3.01E-05,  avg # of iterations = 12.0

     negative rho (up, down):  7.289E-04 0.000E+00

     total cpu time spent up to now is    12789.0 secs

     total energy              =  -34492.23244272 Ry
     estimated scf accuracy    <       0.26993413 Ry

     iteration #  6     ecut=    77.00 Ry     beta= 0.20
     Davidson diagonalization with overlap
     ethr =  1.56E-05,  avg # of iterations =  3.0

     negative rho (up, down):  7.339E-04 0.000E+00

     total cpu time spent up to now is    13206.4 secs

     total energy              =  -34492.19976751 Ry
     estimated scf accuracy    <       0.13947299 Ry

     iteration #  7     ecut=    77.00 Ry     beta= 0.20
     Davidson diagonalization with overlap
     ethr =  8.05E-06,  avg # of iterations = 15.0

     negative rho (up, down):  7.316E-04 0.000E+00

     total cpu time spent up to now is    13692.3 secs

     total energy              =  -34492.21110200 Ry
     estimated scf accuracy    <       0.12360660 Ry

     iteration #  8     ecut=    77.00 Ry     beta= 0.20
     Davidson diagonalization with overlap
     ethr =  7.14E-06,  avg # of iterations =  6.2

     negative rho (up, down):  7.389E-04 0.000E+00

     total cpu time spent up to now is    14119.0 secs

     total energy              =  -34492.21350069 Ry
     estimated scf accuracy    <       0.01330119 Ry

     iteration #  9     ecut=    77.00 Ry     beta= 0.20
     Davidson diagonalization with overlap
     ethr =  7.68E-07,  avg # of iterations = 44.5

     negative rho (up, down):  7.552E-04 0.000E+00

     total cpu time spent up to now is    15673.2 secs

     total energy              =  -34492.22534326 Ry
     estimated scf accuracy    <       0.00764267 Ry

     iteration # 10     ecut=    77.00 Ry     beta= 0.20
     Davidson diagonalization with overlap
     ethr =  4.41E-07,  avg # of iterations =  2.0

     negative rho (up, down):  7.864E-04 0.000E+00

     total cpu time spent up to now is    16086.0 secs

     total energy              =  -34492.22418209 Ry
     estimated scf accuracy    <       0.00482216 Ry

     iteration # 11     ecut=    77.00 Ry     beta= 0.20
     Davidson diagonalization with overlap
     ethr =  2.78E-07,  avg # of iterations = 12.0

     negative rho (up, down):  8.165E-04 0.000E+00

     total cpu time spent up to now is    16551.5 secs

     total energy              =  -34492.22414857 Ry
     estimated scf accuracy    <       0.00131548 Ry

     iteration # 12     ecut=    77.00 Ry     beta= 0.20
     Davidson diagonalization with overlap
     ethr =  7.60E-08,  avg # of iterations = 16.0

     negative rho (up, down):  8.308E-04 0.000E+00

     total cpu time spent up to now is    17409.3 secs

     total energy              =  -34492.22564092 Ry
     estimated scf accuracy    <       0.00062503 Ry

     iteration # 13     ecut=    77.00 Ry     beta= 0.20
     Davidson diagonalization with overlap
     ethr =  3.61E-08,  avg # of iterations = 11.2

     negative rho (up, down):  8.441E-04 0.000E+00

     total cpu time spent up to now is    17880.2 secs

     total energy              =  -34492.22567336 Ry
     estimated scf accuracy    <       0.00020177 Ry

     iteration # 14     ecut=    77.00 Ry     beta= 0.20
     Davidson diagonalization with overlap
     ethr =  1.16E-08,  avg # of iterations = 18.2

     negative rho (up, down):  8.658E-04 0.000E+00

     total cpu time spent up to now is    18884.0 secs

     total energy              =  -34492.22585256 Ry
     estimated scf accuracy    <       0.00010499 Ry

     iteration # 15     ecut=    77.00 Ry     beta= 0.20
     Davidson diagonalization with overlap
     ethr =  6.06E-09,  avg # of iterations = 12.5

     negative rho (up, down):  8.743E-04 0.000E+00

     total cpu time spent up to now is    19430.5 secs

     total energy              =  -34492.22586706 Ry
     estimated scf accuracy    <       0.00004431 Ry

     iteration # 16     ecut=    77.00 Ry     beta= 0.20
     Davidson diagonalization with overlap
     ethr =  2.56E-09,  avg # of iterations = 15.8

     negative rho (up, down):  8.785E-04 0.000E+00

     total cpu time spent up to now is    20281.0 secs

     total energy              =  -34492.22590611 Ry
     estimated scf accuracy    <       0.00001553 Ry

     iteration # 17     ecut=    77.00 Ry     beta= 0.20
     Davidson diagonalization with overlap
     ethr =  8.97E-10,  avg # of iterations = 17.0

     negative rho (up, down):  8.823E-04 0.000E+00

     total cpu time spent up to now is    21063.8 secs

     total energy              =  -34492.22591239 Ry
     estimated scf accuracy    <       0.00000626 Ry

     iteration # 18     ecut=    77.00 Ry     beta= 0.20
     Davidson diagonalization with overlap
     ethr =  3.61E-10,  avg # of iterations = 12.8

     negative rho (up, down):  8.874E-04 0.000E+00

     total cpu time spent up to now is    21743.0 secs

     total energy              =  -34492.22591124 Ry
     estimated scf accuracy    <       0.00000208 Ry

     iteration # 19     ecut=    77.00 Ry     beta= 0.20
     Davidson diagonalization with overlap
     c_bands:  1 eigenvalues not converged
     ethr =  1.20E-10,  avg # of iterations = 17.2

     negative rho (up, down):  8.916E-04 0.000E+00

     total cpu time spent up to now is    22692.4 secs

     End of self-consistent calculation

          k = 0.0000 0.0000 0.0000 (386245 PWs)   bands (ev):

  -101.2425 -89.4534 -89.3315 -69.6774 -69.6762 -69.6084 -69.6049 -69.5817
   -69.5706 -69.5684 -66.8398 -66.8189 -66.8186 -66.8174 -66.8129 -66.8028
   -66.8004 -66.7994 -66.7980 -66.7979 -66.7978 -66.7974 -66.7974 -66.7973
   -66.7973 -66.7973 -66.7973 -66.7973 -66.7973 -66.7973 -66.7961 -66.7961
   -66.7961 -66.7961 -66.7961 -66.7960 -66.7919 -66.7889 -66.7855 -66.7813
   -66.7788 -66.7773 -66.7769 -66.7765 -66.7764 -66.7763 -66.7762 -66.7761
   -66.7760 -66.7760 -66.7760 -66.7759 -66.7759 -66.7759 -66.7759 -66.7759
   -66.7759 -66.7759 -66.7759 -66.7756 -66.7747 -66.7747 -66.7747 -66.7747
   -66.7747 -66.7746 -66.7746 -66.7746 -66.7746 -66.7615 -66.7543 -66.7525
   -66.7467 -66.7378 -55.7591 -55.4992 -55.2870 -55.2670 -55.1967 -55.1749
   -55.1508 -55.0061 -54.8442 -41.1469 -41.1464 -41.1462 -41.1460 -41.1460
   -41.1460 -41.1460 -41.1454 -41.1454 -41.1454 -41.1449 -41.1376 -41.0754
   -41.0712 -41.0711 -41.0710 -41.0710 -41.0707 -41.0707 -41.0707 -41.0707
   -41.0707 -41.0707 -41.0707 -41.0707 -41.0706 -41.0700 -41.0700 -41.0700
   -41.0700 -41.0700 -41.0700 -41.0628 -41.0608 -41.0556 -41.0497 -41.0109
   -40.9817 -40.9785 -40.9782 -40.9776 -40.9755 -40.9651 -40.9526 -40.9472
   -40.9449 -40.9448 -40.9447 -40.9446 -40.9445 -40.9444 -40.9444 -40.9444
   -40.9444 -40.9443 -40.9443 -40.9443 -40.9443 -40.9436 -40.9436 -40.9436
   -40.9436 -40.9436 -40.9436 -40.9420 -40.9372 -40.9372 -40.9370 -40.9370
   -40.9367 -40.9366 -40.9365 -40.9365 -40.9365 -40.9365 -40.9365 -40.9365
   -40.9365 -40.9359 -40.9359 -40.9359 -40.9358 -40.9358 -40.9358 -40.9349
   -40.9338 -40.9311 -40.9260 -40.9197 -40.9181 -40.9105 -40.9098 -40.9097
   -40.9096 -40.9094 -40.9093 -40.9093 -40.9093 -40.9093 -40.9093 -40.9093
   -40.9093 -40.9093 -40.9085 -40.9085 -40.9085 -40.9085 -40.9085 -40.9085
   -40.9084 -40.9073 -40.9034 -40.9005 -40.8955 -40.8951 -40.8951 -40.8950
   -40.8949 -40.8948 -40.8947 -40.8946 -40.8946 -40.8946 -40.8946 -40.8945
   -40.8945 -40.8945 -40.8945 -40.8945 -40.8945 -40.8945 -40.8943 -40.8939
   -40.8938 -40.8938 -40.8938 -40.8938 -40.8938 -40.8938 -40.8938 -40.8938
   -40.8923 -40.8908 -40.8899 -40.8879 -40.8840 -40.8816 -40.8764 -40.8313
   -40.8311 -40.8311 -40.8310 -40.8310 -40.8310 -40.8301 -40.8301 -40.8301
   -40.8287 -40.8219 -40.8171 -40.7844 -40.7843 -40.7842 -40.7839 -40.7839
   -40.7839 -40.7839 -40.7839 -40.7839 -40.7839 -40.7838 -40.7837 -40.7829
   -40.7829 -40.7829 -40.7829 -40.7829 -40.7829 -40.7823 -40.7813 -40.7748
   -40.7725 -40.7643 -40.7564 -40.7365 -40.7364 -40.7363 -40.7363 -40.7353
   -40.7353 -40.7238 -40.7165 -20.3639 -20.2898 -20.1885 -20.0830 -19.8029
   -19.4864 -19.4609 -19.4467 -19.4444 -19.4410 -19.4311 -19.4210 -19.4124
   -19.3941 -19.3879 -19.3779 -19.3440 -19.3302 -19.3247 -19.3114 -19.3051
   -19.2930 -19.2396 -19.2323 -19.2306 -19.2263 -19.2237 -19.2185 -19.0970
   -18.9955 -18.9230 -18.8140 -18.7360 -18.7135 -18.6966 -18.6790 -18.6717
   -18.6625 -18.6405 -18.6122 -18.6049 -18.5868 -18.5833 -18.5560 -18.5267
   -18.4918 -18.4776 -18.4727 -18.4691 -18.4460 -18.4357 -18.4226 -18.3804
   -18.3781 -18.3771 -18.3698 -18.3688 -18.3677 -18.3208 -18.3181 -18.3163
   -18.3156 -18.3134 -18.3130 -18.3056 -18.2926 -18.2859 -18.2837 -18.2773
   -18.2760 -18.2749 -18.2707 -18.2700 -18.2671 -18.2537 -18.2454 -18.2436
   -18.2415 -18.2405 -18.2346 -18.2256 -18.2214 -18.2200 -18.2100 -18.2029
   -18.1975 -18.1963 -18.1916 -18.1888 -18.1798 -18.1785 -18.1764 -18.1543
   -18.1456 -18.1393 -18.1282 -18.1136 -18.1118 -18.1081 -18.1070 -18.1069
   -18.0927 -18.0886 -18.0860 -18.0795 -18.0697 -18.0630 -18.0624 -18.0598
   -18.0583 -18.0528 -18.0513 -18.0503 -18.0358 -18.0352 -18.0347 -18.0268
   -18.0231 -18.0188 -18.0173 -18.0155 -18.0145 -17.9922 -17.9917 -17.9901
   -17.9897 -17.9892 -17.9888 -12.2408 -12.2207 -12.1279 -12.0482 -12.0039
   -11.9925 -11.9726 -11.9666 -11.8745 -11.8672 -11.8539 -11.7647 -11.7540
   -11.7456 -11.7319 -11.5525 -11.5467 -11.4694 -11.4529 -11.4333 -11.4303
   -11.4295 -11.4216 -11.4048 -11.3833 -11.3493 -11.3325 -11.3254 -11.3238
   -11.3204 -11.3175 -11.3059 -11.2894 -11.2782 -11.2653 -11.2635 -11.2566
   -11.2528 -11.2517 -11.2492 -11.2381 -11.2339 -11.2210 -11.2181 -11.2139
   -11.1816 -11.1663 -11.1585 -11.1502 -11.1338 -11.1316 -11.1216 -11.1124
   -11.0947 -11.0861 -11.0833 -11.0757 -11.0751 -11.0610 -11.0490 -11.0434
   -11.0425 -11.0332 -11.0309 -11.0256 -11.0247 -11.0230 -11.0226 -11.0193
   -11.0173 -11.0055 -11.0025 -10.9985 -10.9981 -10.9964 -10.9934 -10.9733
   -10.9730 -10.9716 -10.9688 -10.9662 -10.9642 -10.9598 -10.9468 -10.9454
   -10.9321 -10.9319 -10.9314 -10.9303 -10.9279 -10.9267 -10.8621 -10.8546
   -10.8490 -10.8166 -10.7885 -10.7841 -10.7775 -10.7733 -10.7708 -10.7139
   -10.5625 -10.4773 -10.3922 -10.3589 -10.3253 -10.2416 -10.1542 -10.1277
   -10.1080 -10.0618 -10.0190 -10.0045  -9.9978  -9.9946  -9.9929  -9.9793
    -9.9713  -9.9676  -9.9663  -9.9626  -9.9590  -9.9546  -9.9540  -9.9506
    -9.9456  -9.9415  -9.9366  -9.9282  -9.9216  -9.9153  -9.8929  -9.8655
    -9.8583  -9.8292  -9.8260  -9.8230  -9.8193  -9.8171  -9.8154  -9.8116
    -9.8108  -9.8104  -9.8096  -9.8069  -9.8004  -9.7972  -9.7758  -9.7681
    -9.7446  -9.7357  -9.7357  -9.7356  -9.7352  -9.7351  -9.7340  -9.7269
    -9.7257  -9.7141  -9.7113  -9.6964  -9.6904  -9.6676  -9.6661  -9.6445
    -9.6394  -9.6034  -9.5584  -9.5540  -9.5503  -9.5440  -9.5411  -9.5383
    -9.5232  -9.5220  -9.5179  -9.5014  -9.4986  -9.4881  -9.4513  -9.4433
    -9.4318  -9.4225  -9.4139  -9.4038  -9.3874  -9.3795  -9.3793  -9.3761
    -9.3730  -9.3723  -9.3683  -9.3626  -9.3264  -9.3232  -9.3023  -9.2989
    -9.2971  -9.2544  -9.2434  -9.2114  -9.1771  -9.1758  -9.1739  -9.1603
    -9.1489  -9.1460  -9.1423  -9.1401  -9.1304  -9.1227  -9.1115  -9.1115
    -9.1103  -9.1000  -9.0925  -9.0909  -9.0802  -9.0721  -9.0628  -9.0159
    -9.0157  -9.0152  -9.0151  -9.0148  -9.0144  -8.9787  -8.9604  -8.9445
    -8.9401  -8.9321  -8.9292  -8.9207  -8.8737  -8.8627  -8.8590  -8.8533
    -8.8492  -8.8452  -8.7941  -8.7878  -8.7869  -8.7856  -8.7845  -8.7835
    -8.7396  -8.7229  -8.6303  -8.6277  -8.5752  -8.5606  -8.5606  -8.5560
    -8.5556  -8.5499  -8.5492  -8.5446  -8.5357  -8.4917  -8.4742  -8.4715
    -8.4698  -8.4697  -8.4695  -8.4671  -8.4568  -8.4496  -8.4432  -8.4429
    -8.4425  -8.4396  -8.4334  -8.4272  -8.4151  -8.4150  -8.4148  -8.4136
    -8.4121  -8.4105  -8.3507  -8.2693  -8.2093  -8.1642  -8.1354  -8.0801
    -8.0533  -8.0504  -8.0485  -7.9821  -7.9681  -7.9621  -7.9029  -7.9005
    -7.8901  -7.8460  -7.8401  -7.8351  -7.8295  -7.8255  -7.8123  -7.8090
    -7.8017  -7.8011  -7.7811  -7.7765  -7.7686  -7.7487  -7.7386  -7.7329
    -7.7293  -7.7289  -7.7284  -7.7276  -7.7269  -7.7173  -7.7167  -7.7029
    -7.7025  -7.7012  -7.7007  -7.7004  -7.6944  -7.6895  -7.6781  -7.6771
    -7.6766  -7.6766  -7.6760  -7.6743  -7.6619  -7.6580  -7.6409  -7.6241
    -7.6187  -7.6154  -7.6136  -7.6032  -7.5982  -7.5947  -7.5909  -7.5819
    -7.5733  -7.5499  -7.5441  -7.5250  -7.5179  -7.5077  -7.4955  -7.4915
    -7.4880  -7.4834  -7.4811  -7.4771  -7.4759  -7.4487  -7.4456  -7.4428
    -7.4348  -7.4261  -7.4247  -7.4082  -7.4077  -7.3796  -7.3594  -7.3459
    -7.3378  -7.2922  -7.2857  -7.2775  -7.2120  -7.2041  -7.1641  -7.0962
    -7.0655  -7.0551  -7.0533  -7.0301  -7.0134  -6.9934  -6.9809  -6.9797
    -6.9686  -6.9438  -6.9262  -6.9211  -6.8975  -6.8755  -6.8698  -6.8573
    -6.8483  -6.8194  -6.8181  -6.8107  -6.8088  -6.8040  -6.7994  -6.7783
    -6.7652  -6.7592  -6.7464  -6.7435  -6.7324  -6.7138  -6.7108  -6.7098
    -6.7090  -6.7069  -6.7027  -6.7015  -6.7002  -6.6995  -6.6917  -6.6916
    -6.6913  -6.6913  -6.6910  -6.6908  -6.6751  -6.6646  -6.6623  -6.6417
    -6.6328  -6.6262  -6.6183  -6.6035  -6.6022  -6.5991  -6.5668  -6.5396
    -6.5328  -6.5302  -6.5301  -6.5255  -6.5226  -6.5144  -6.5073  -6.5012
    -6.4998  -6.4861  -6.4820  -6.4775  -6.4739  -6.4689  -6.4675  -6.4485
    -6.4462  -6.4454  -6.4444  -6.4427  -6.4424  -6.4166  -6.3414  -6.2098
    -6.1273  -5.9209  -5.9084  -5.5902  -5.5250  -5.3999  -5.3285  -5.1767
    -5.1308  -5.0976  -4.8605  -4.0547  -4.0515  -4.0460  -4.0433  -4.0398
    -4.0299  -4.0230  -4.0201  -4.0197  -4.0163  -4.0154  -4.0079  -3.9190
    -3.9005  -3.8920  -3.8892  -3.8834  -3.8780  -3.8749  -3.8720  -3.8694
    -3.8666  -3.8640  -3.8282  -3.7307  -3.7135  -3.7053  -3.7004  -3.6957
    -3.6854  -3.6810  -3.6714  -3.6681  -3.6657  -3.6633  -3.6620  -3.6567
    -3.6531  -3.6499  -3.6440  -3.6402  -3.6392  -3.6377  -3.6361  -3.6350
    -3.6310  -3.6221  -3.6202  -3.6195  -3.6116  -3.6083  -3.6048  -3.6035
    -3.5983  -3.5970  -3.5958  -3.5924  -3.5870  -3.5858  -3.5794  -3.5548
    -3.5422  -3.5415  -3.5375  -3.5372  -3.5356  -3.5333  -3.5295  -3.5183
    -3.5140  -3.5095  -3.5037  -3.4826  -3.4776  -3.4722  -3.4693  -3.4643
    -3.4602  -3.4132  -3.4083  -3.4035  -3.4001  -3.3940  -3.3869  -3.2658
    -3.2582  -3.2561  -3.2556  -3.2525  -3.2510  -3.2400  -3.2384  -3.2355
    -3.1926  -3.1895  -3.1802  -3.1752  -3.1697  -3.1694  -3.1669  -3.1664
    -3.1638  -3.1634  -3.1593  -3.1564  -3.1563  -3.1512  -3.1487  -3.1461
    -3.1418  -3.1385  -3.1326  -3.1315  -3.1268  -3.1261  -3.1255  -3.1254
    -3.1251  -3.1244  -3.1236  -3.1201  -3.1192  -3.0795  -3.0785  -3.0709
    -3.0651  -3.0556  -3.0548  -3.0414  -3.0215  -3.0206  -2.9999  -2.9998
    -2.9997  -2.9995  -2.9993  -2.9992  -2.9991  -2.9990  -2.9969  -2.9819
    -2.9783  -2.9623  -2.9495  -2.9471  -2.9298  -2.9263  -2.9194  -2.9147
    -2.9096  -2.8685  -2.8621  -2.8327  -2.8314  -2.8236  -2.8196  -2.8182
    -2.8161  -2.8151  -2.8111  -2.7699  -2.7582  -2.7531  -2.7348  -2.7339
    -2.7215  -2.6550  -2.6496  -2.6447  -2.6376  -2.6329  -2.6262

          k = 0.0000-0.5773 0.0000 (386352 PWs)   bands (ev):

  -101.2425 -89.4534 -89.3315 -69.6774 -69.6762 -69.6084 -69.6050 -69.5818
   -69.5706 -69.5684 -66.8395 -66.8129 -66.8128 -66.8126 -66.8124 -66.8124
   -66.8112 -66.8111 -66.8043 -66.8031 -66.8020 -66.8020 -66.8018 -66.8018
   -66.8005 -66.8005 -66.7946 -66.7927 -66.7890 -66.7871 -66.7870 -66.7868
   -66.7868 -66.7867 -66.7867 -66.7867 -66.7866 -66.7854 -66.7854 -66.7854
   -66.7854 -66.7849 -66.7826 -66.7824 -66.7822 -66.7822 -66.7809 -66.7809
   -66.7806 -66.7798 -66.7776 -66.7764 -66.7763 -66.7762 -66.7760 -66.7759
   -66.7759 -66.7759 -66.7759 -66.7747 -66.7747 -66.7746 -66.7746 -66.7718
   -66.7717 -66.7715 -66.7715 -66.7702 -66.7702 -66.7613 -66.7559 -66.7504
   -66.7476 -66.7377 -55.7591 -55.4992 -55.2870 -55.2670 -55.1967 -55.1749
   -55.1508 -55.0061 -54.8442 -41.1234 -41.1192 -41.1147 -41.1147 -41.1146
   -41.1144 -41.1144 -41.1144 -41.1144 -41.1143 -41.1138 -41.1138 -41.1138
   -41.1138 -41.1051 -41.1003 -41.0928 -41.0878 -41.0877 -41.0876 -41.0876
   -41.0869 -41.0869 -41.0839 -41.0757 -41.0756 -41.0755 -41.0755 -41.0749
   -41.0749 -41.0635 -41.0507 -41.0251 -41.0250 -41.0250 -41.0249 -41.0248
   -41.0248 -41.0248 -41.0248 -41.0241 -41.0241 -41.0241 -41.0241 -41.0217
   -41.0170 -41.0154 -41.0095 -41.0060 -40.9814 -40.9792 -40.9664 -40.9663
   -40.9660 -40.9660 -40.9654 -40.9654 -40.9609 -40.9568 -40.9567 -40.9566
   -40.9565 -40.9557 -40.9557 -40.9533 -40.9506 -40.9455 -40.9455 -40.9452
   -40.9452 -40.9445 -40.9445 -40.9418 -40.9349 -40.9306 -40.9204 -40.9160
   -40.9160 -40.9158 -40.9157 -40.9156 -40.9155 -40.9155 -40.9155 -40.9152
   -40.9149 -40.9149 -40.9149 -40.9149 -40.9072 -40.9071 -40.9068 -40.9068
   -40.9066 -40.9061 -40.9061 -40.9049 -40.8997 -40.8953 -40.8952 -40.8951
   -40.8951 -40.8950 -40.8949 -40.8949 -40.8948 -40.8946 -40.8945 -40.8945
   -40.8945 -40.8945 -40.8942 -40.8942 -40.8938 -40.8938 -40.8938 -40.8938
   -40.8927 -40.8862 -40.8862 -40.8861 -40.8858 -40.8858 -40.8851 -40.8851
   -40.8846 -40.8825 -40.8750 -40.8700 -40.8646 -40.8644 -40.8642 -40.8641
   -40.8641 -40.8641 -40.8641 -40.8641 -40.8633 -40.8632 -40.8632 -40.8632
   -40.8606 -40.8534 -40.8511 -40.8296 -40.8296 -40.8296 -40.8295 -40.8294
   -40.8294 -40.8294 -40.8294 -40.8285 -40.8285 -40.8285 -40.8285 -40.8258
   -40.8237 -40.8200 -40.8175 -40.8173 -40.8172 -40.8172 -40.8163 -40.8163
   -40.8128 -40.8096 -40.7982 -40.7980 -40.7979 -40.7979 -40.7970 -40.7970
   -40.7934 -40.7926 -40.7818 -40.7811 -40.7811 -40.7809 -40.7809 -40.7800
   -40.7800 -40.7650 -40.7566 -40.7506 -40.7503 -40.7503 -40.7502 -40.7493
   -40.7493 -40.7438 -40.7288 -20.2231 -20.0817 -20.0610 -20.0231 -19.9628
   -19.9321 -19.8536 -19.8411 -19.7016 -19.6486 -19.6225 -19.5975 -19.5318
   -19.5094 -19.4286 -19.4172 -19.2948 -19.0122 -18.9929 -18.9532 -18.9320
   -18.9280 -18.9171 -18.9096 -18.9039 -18.8877 -18.8761 -18.8563 -18.8464
   -18.8328 -18.8196 -18.8139 -18.7810 -18.7708 -18.7607 -18.7459 -18.7417
   -18.7382 -18.7231 -18.7106 -18.7037 -18.6705 -18.6695 -18.6652 -18.6613
   -18.6275 -18.6050 -18.6015 -18.5987 -18.5689 -18.5543 -18.5460 -18.5271
   -18.5092 -18.4950 -18.4728 -18.4464 -18.4412 -18.4344 -18.4236 -18.3915
   -18.3774 -18.3699 -18.3523 -18.3247 -18.3089 -18.3040 -18.3016 -18.2960
   -18.2947 -18.2902 -18.2881 -18.2777 -18.2664 -18.2658 -18.2638 -18.2605
   -18.2582 -18.2484 -18.2424 -18.2402 -18.2327 -18.2307 -18.2214 -18.2028
   -18.2012 -18.1983 -18.1945 -18.1922 -18.1902 -18.1861 -18.1818 -18.1799
   -18.1711 -18.1403 -18.1387 -18.1305 -18.1275 -18.1227 -18.1122 -18.0854
   -18.0843 -18.0779 -18.0678 -18.0424 -18.0406 -18.0379 -18.0317 -18.0199
   -18.0134 -18.0128 -18.0122 -18.0120 -18.0107 -18.0089 -18.0008 -17.9955
   -17.9915 -17.9754 -17.9748 -17.9545 -17.9542 -17.9375 -17.9373 -17.9217
   -17.9216 -17.9128 -17.9127 -12.1089 -12.0813 -11.9115 -11.9005 -11.8220
   -11.7884 -11.7212 -11.7096 -11.6933 -11.6875 -11.6851 -11.6726 -11.6648
   -11.6560 -11.6412 -11.6090 -11.5892 -11.5734 -11.5698 -11.5546 -11.5474
   -11.5258 -11.5131 -11.5094 -11.4888 -11.4723 -11.4647 -11.4637 -11.4562
   -11.4523 -11.4511 -11.4447 -11.4412 -11.4025 -11.3964 -11.3865 -11.3832
   -11.3683 -11.3631 -11.3600 -11.3586 -11.3480 -11.3390 -11.3388 -11.3131
   -11.3070 -11.2808 -11.2665 -11.2571 -11.2515 -11.2240 -11.1815 -11.1799
   -11.1410 -11.1333 -11.1271 -11.1169 -11.1050 -11.0970 -11.0822 -11.0756
   -11.0478 -11.0422 -11.0282 -11.0265 -11.0225 -11.0097 -11.0050 -11.0041
   -11.0038 -11.0023 -11.0002 -10.9933 -10.9903 -10.9878 -10.9865 -10.9854
   -10.9844 -10.9759 -10.9756 -10.9734 -10.9714 -10.9368 -10.9363 -10.9358
   -10.9356 -10.8629 -10.7595 -10.7336 -10.7220 -10.7192 -10.6939 -10.6766
   -10.6341 -10.6037 -10.5809 -10.5165 -10.4679 -10.4404 -10.4294 -10.3425
   -10.3400 -10.3236 -10.3177 -10.2996 -10.2965 -10.2787 -10.2701 -10.2485
   -10.2401 -10.2251 -10.2232 -10.2204 -10.2178 -10.2065 -10.2012 -10.1777
   -10.1592 -10.1230 -10.1208 -10.1196 -10.1020 -10.0979 -10.0884 -10.0837
   -10.0773 -10.0516 -10.0464 -10.0315 -10.0272  -9.9966  -9.9872  -9.9756
    -9.9641  -9.9572  -9.9559  -9.9275  -9.9237  -9.8929  -9.8902  -9.8764
    -9.8730  -9.8468  -9.8442  -9.8184  -9.8097  -9.8066  -9.7957  -9.7765
    -9.7600  -9.7502  -9.7419  -9.7312  -9.7279  -9.7254  -9.7125  -9.6855
    -9.6827  -9.6754  -9.6663  -9.6648  -9.6611  -9.6538  -9.6502  -9.6467
    -9.6314  -9.6241  -9.6174  -9.5873  -9.5753  -9.5468  -9.5313  -9.4718
    -9.4652  -9.4516  -9.4159  -9.4097  -9.3994  -9.3936  -9.3882  -9.3762
    -9.3592  -9.3480  -9.3330  -9.3263  -9.3142  -9.3072  -9.2993  -9.2737
    -9.2689  -9.2479  -9.2338  -9.2330  -9.2276  -9.2219  -9.2207  -9.1894
    -9.1755  -9.1680  -9.1624  -9.1464  -9.1415  -9.1373  -9.1339  -9.1200
    -9.1076  -9.0901  -9.0845  -9.0837  -9.0803  -9.0775  -9.0758  -9.0700
    -9.0632  -9.0623  -9.0564  -9.0552  -9.0500  -9.0481  -9.0444  -9.0410
    -9.0332  -9.0327  -9.0238  -9.0076  -9.0003  -8.9855  -8.9845  -8.9828
    -8.9823  -8.9778  -8.9761  -8.9558  -8.9539  -8.9434  -8.9279  -8.9262
    -8.9233  -8.9193  -8.9069  -8.8894  -8.8537  -8.8449  -8.8344  -8.8005
    -8.7839  -8.7018  -8.6985  -8.6955  -8.6669  -8.6439  -8.6150  -8.5875
    -8.5515  -8.5417  -8.4924  -8.4736  -8.4613  -8.4068  -8.3618  -8.3459
    -8.3208  -8.3207  -8.3125  -8.3117  -8.3027  -8.3004  -8.2975  -8.2591
    -8.2530  -8.2458  -8.1783  -8.1618  -8.1468  -8.0873  -8.0773  -8.0447
    -8.0376  -8.0345  -8.0264  -8.0232  -8.0150  -8.0082  -8.0023  -7.9977
    -7.9951  -7.9933  -7.9923  -7.9871  -7.9831  -7.9782  -7.9753  -7.9743
    -7.9671  -7.9651  -7.9626  -7.9602  -7.9586  -7.9578  -7.9550  -7.9530
    -7.9515  -7.9506  -7.9388  -7.9300  -7.9282  -7.9242  -7.9219  -7.9145
    -7.9091  -7.8958  -7.8902  -7.8892  -7.8888  -7.8853  -7.8617  -7.8597
    -7.8590  -7.8579  -7.8558  -7.8475  -7.8394  -7.8318  -7.8095  -7.8080
    -7.8060  -7.8014  -7.7991  -7.7920  -7.7889  -7.7862  -7.7779  -7.7766
    -7.7594  -7.7571  -7.7561  -7.7510  -7.7462  -7.7432  -7.7279  -7.7036
    -7.6588  -7.6541  -7.6521  -7.6486  -7.6255  -7.6117  -7.5658  -7.5429
    -7.4910  -7.3945  -7.3817  -7.3667  -7.3634  -7.3618  -7.3559  -7.3409
    -7.3234  -7.3117  -7.2997  -7.2957  -7.2935  -7.2735  -7.2657  -7.2412
    -7.2256  -7.2178  -7.2143  -7.2015  -7.1942  -7.1780  -7.1708  -7.1665
    -7.1488  -7.1257  -7.1097  -7.1030  -7.0853  -7.0848  -7.0659  -7.0553
    -7.0507  -7.0459  -7.0269  -7.0133  -6.9899  -6.9849  -6.9594  -6.9559
    -6.9330  -6.9007  -6.8797  -6.8639  -6.8398  -6.8262  -6.8175  -6.8098
    -6.8013  -6.7990  -6.7977  -6.7960  -6.7878  -6.7815  -6.7807  -6.7795
    -6.7772  -6.7722  -6.7721  -6.7718  -6.7715  -6.7608  -6.7270  -6.6825
    -6.6780  -6.6623  -6.6097  -6.5869  -6.5738  -6.5201  -6.5193  -6.5179
    -6.5076  -6.4965  -6.4876  -6.4737  -6.4718  -6.4699  -6.4693  -6.4666
    -6.4651  -6.4595  -6.4470  -6.4405  -6.4279  -6.4245  -6.4148  -6.3986
    -6.3969  -6.3920  -6.3913  -6.3758  -6.3028  -6.1939  -6.1857  -6.1712
    -6.1361  -6.1330  -6.0956  -6.0793  -6.0635  -6.0544  -6.0346  -6.0294
    -5.9331  -5.8822  -5.8259  -5.7880  -5.7703  -5.5043  -5.3641  -5.1661
    -5.1299  -5.1036  -4.8495  -4.2833  -4.2829  -4.2791  -4.2666  -4.1331
    -4.1219  -4.1110  -4.1071  -4.1063  -4.0700  -4.0483  -4.0349  -4.0283
    -4.0204  -4.0079  -4.0039  -3.9920  -3.9911  -3.9861  -3.9572  -3.8884
    -3.8778  -3.8755  -3.8374  -3.8081  -3.7958  -3.7923  -3.7908  -3.7891
    -3.7691  -3.7502  -3.7420  -3.7300  -3.7236  -3.7159  -3.7077  -3.7057
    -3.7013  -3.6811  -3.6783  -3.6742  -3.6663  -3.6650  -3.6630  -3.6555
    -3.6483  -3.6418  -3.6293  -3.6287  -3.6203  -3.6125  -3.6082  -3.6031
    -3.5971  -3.5566  -3.5483  -3.5433  -3.5402  -3.5373  -3.5364  -3.5351
    -3.5298  -3.5081  -3.5022  -3.4933  -3.4829  -3.4801  -3.4761  -3.4734
    -3.4698  -3.4678  -3.4654  -3.4486  -3.4429  -3.4385  -3.4368  -3.4217
    -3.4190  -3.4149  -3.4098  -3.4032  -3.4026  -3.4010  -3.3868  -3.3829
    -3.3765  -3.3706  -3.3668  -3.3602  -3.3534  -3.3533  -3.3527  -3.3480
    -3.3370  -3.2940  -3.2877  -3.2753  -3.2620  -3.2580  -3.2562  -3.2527
    -3.2492  -3.2202  -3.2168  -3.2157  -3.2141  -3.2130  -3.2122  -3.2058
    -3.2042  -3.2021  -3.2000  -3.1955  -3.1882  -3.1840  -3.1824  -3.1713
    -3.1685  -3.1667  -3.1618  -3.1594  -3.1527  -3.1519  -3.1468  -3.1414
    -3.1401  -3.1374  -3.1363  -3.1269  -3.1231  -3.1198  -3.1098  -3.0864
    -3.0845  -3.0801  -3.0768  -3.0680  -3.0654  -3.0528  -3.0486  -2.9861
    -2.9830  -2.9815  -2.9799  -2.9294  -2.9122  -2.9088  -2.9006  -2.8097
    -2.8016  -2.7787  -2.7658  -2.7461  -2.7447  -2.7407  -2.7336  -2.7292
    -2.7204  -2.7192  -2.7176  -2.7148  -2.7103  -2.6016  -2.5950  -2.5930
    -2.5855  -2.5832  -2.5755  -2.5689  -2.5595  -2.5343  -2.5328

          k =-0.5000-0.2887 0.0000 (386352 PWs)   bands (ev):

  -101.2425 -89.4534 -89.3315 -69.6774 -69.6762 -69.6084 -69.6050 -69.5818
   -69.5706 -69.5684 -66.8396 -66.8129 -66.8125 -66.8124 -66.8124 -66.8116
   -66.8112 -66.8111 -66.8064 -66.8020 -66.8020 -66.8018 -66.8018 -66.8017
   -66.8005 -66.8005 -66.7980 -66.7900 -66.7876 -66.7872 -66.7872 -66.7867
   -66.7867 -66.7867 -66.7866 -66.7866 -66.7866 -66.7857 -66.7854 -66.7854
   -66.7854 -66.7854 -66.7827 -66.7823 -66.7822 -66.7822 -66.7812 -66.7809
   -66.7809 -66.7794 -66.7777 -66.7769 -66.7761 -66.7761 -66.7760 -66.7759
   -66.7759 -66.7759 -66.7757 -66.7747 -66.7747 -66.7746 -66.7746 -66.7718
   -66.7717 -66.7715 -66.7715 -66.7702 -66.7702 -66.7615 -66.7547 -66.7526
   -66.7465 -66.7378 -55.7591 -55.4992 -55.2870 -55.2670 -55.1967 -55.1749
   -55.1508 -55.0061 -54.8442 -41.1305 -41.1222 -41.1150 -41.1146 -41.1145
   -41.1144 -41.1144 -41.1144 -41.1144 -41.1141 -41.1138 -41.1138 -41.1138
   -41.1138 -41.1001 -41.0904 -41.0879 -41.0876 -41.0876 -41.0876 -41.0869
   -41.0869 -41.0864 -41.0757 -41.0757 -41.0755 -41.0755 -41.0752 -41.0749
   -41.0749 -41.0681 -41.0650 -41.0250 -41.0250 -41.0250 -41.0249 -41.0249
   -41.0248 -41.0248 -41.0248 -41.0248 -41.0241 -41.0241 -41.0241 -41.0241
   -41.0202 -41.0150 -41.0104 -41.0067 -40.9828 -40.9762 -40.9665 -40.9662
   -40.9660 -40.9660 -40.9654 -40.9654 -40.9618 -40.9568 -40.9567 -40.9566
   -40.9565 -40.9557 -40.9557 -40.9509 -40.9488 -40.9455 -40.9455 -40.9452
   -40.9452 -40.9445 -40.9445 -40.9421 -40.9380 -40.9246 -40.9192 -40.9162
   -40.9161 -40.9156 -40.9156 -40.9156 -40.9155 -40.9155 -40.9155 -40.9149
   -40.9149 -40.9149 -40.9149 -40.9144 -40.9114 -40.9074 -40.9069 -40.9068
   -40.9068 -40.9061 -40.9061 -40.9015 -40.8995 -40.8973 -40.8957 -40.8955
   -40.8953 -40.8952 -40.8951 -40.8951 -40.8948 -40.8947 -40.8945 -40.8945
   -40.8945 -40.8945 -40.8944 -40.8942 -40.8942 -40.8938 -40.8938 -40.8938
   -40.8938 -40.8884 -40.8862 -40.8861 -40.8858 -40.8858 -40.8851 -40.8851
   -40.8813 -40.8794 -40.8764 -40.8726 -40.8649 -40.8644 -40.8641 -40.8641
   -40.8641 -40.8641 -40.8641 -40.8639 -40.8635 -40.8633 -40.8632 -40.8632
   -40.8632 -40.8481 -40.8372 -40.8296 -40.8296 -40.8296 -40.8295 -40.8294
   -40.8294 -40.8294 -40.8294 -40.8285 -40.8285 -40.8285 -40.8285 -40.8256
   -40.8239 -40.8215 -40.8176 -40.8172 -40.8172 -40.8172 -40.8163 -40.8163
   -40.8155 -40.8119 -40.7984 -40.7980 -40.7979 -40.7979 -40.7978 -40.7970
   -40.7970 -40.7939 -40.7812 -40.7811 -40.7809 -40.7809 -40.7800 -40.7800
   -40.7765 -40.7673 -40.7660 -40.7507 -40.7503 -40.7503 -40.7502 -40.7493
   -40.7493 -40.7444 -40.7218 -20.2296 -20.0783 -20.0609 -20.0146 -19.9624
   -19.9239 -19.8534 -19.8382 -19.7186 -19.6537 -19.6237 -19.6031 -19.5326
   -19.5131 -19.4284 -19.4185 -19.2771 -18.9987 -18.9777 -18.9721 -18.9329
   -18.9267 -18.9170 -18.9097 -18.8984 -18.8896 -18.8865 -18.8519 -18.8457
   -18.8371 -18.8226 -18.8123 -18.7732 -18.7715 -18.7577 -18.7446 -18.7395
   -18.7378 -18.7358 -18.7122 -18.6851 -18.6745 -18.6730 -18.6705 -18.6583
   -18.6270 -18.6056 -18.6004 -18.5928 -18.5826 -18.5636 -18.5496 -18.5221
   -18.5062 -18.5032 -18.4802 -18.4489 -18.4380 -18.4275 -18.4205 -18.3977
   -18.3766 -18.3603 -18.3538 -18.3394 -18.3157 -18.3004 -18.2991 -18.2963
   -18.2940 -18.2920 -18.2873 -18.2696 -18.2673 -18.2645 -18.2637 -18.2609
   -18.2581 -18.2540 -18.2419 -18.2381 -18.2312 -18.2286 -18.2203 -18.2058
   -18.1990 -18.1966 -18.1937 -18.1933 -18.1893 -18.1847 -18.1809 -18.1773
   -18.1684 -18.1491 -18.1302 -18.1273 -18.1263 -18.1175 -18.1088 -18.0896
   -18.0794 -18.0744 -18.0668 -18.0436 -18.0403 -18.0365 -18.0323 -18.0201
   -18.0177 -18.0137 -18.0127 -18.0119 -18.0107 -18.0096 -18.0092 -17.9978
   -17.9953 -17.9801 -17.9760 -17.9557 -17.9531 -17.9363 -17.9336 -17.9209
   -17.9195 -17.9128 -17.9126 -12.1466 -12.0988 -11.9103 -11.8992 -11.7727
   -11.7627 -11.7100 -11.7070 -11.6930 -11.6878 -11.6771 -11.6692 -11.6481
   -11.6370 -11.6319 -11.6051 -11.5969 -11.5843 -11.5795 -11.5485 -11.5364
   -11.5289 -11.5248 -11.5087 -11.4902 -11.4858 -11.4736 -11.4674 -11.4543
   -11.4527 -11.4510 -11.4479 -11.4425 -11.3991 -11.3987 -11.3899 -11.3812
   -11.3665 -11.3607 -11.3601 -11.3585 -11.3409 -11.3391 -11.3379 -11.3186
   -11.3137 -11.2750 -11.2718 -11.2589 -11.2581 -11.2084 -11.1957 -11.1703
   -11.1616 -11.1286 -11.1249 -11.1166 -11.1155 -11.0950 -11.0736 -11.0534
   -11.0494 -11.0333 -11.0240 -11.0229 -11.0217 -11.0192 -11.0052 -11.0034
   -11.0031 -11.0027 -11.0004 -10.9931 -10.9910 -10.9886 -10.9866 -10.9841
   -10.9834 -10.9760 -10.9748 -10.9724 -10.9647 -10.9373 -10.9361 -10.9356
   -10.9347 -10.8914 -10.8135 -10.7291 -10.7274 -10.7175 -10.7152 -10.6730
   -10.6686 -10.6376 -10.5777 -10.5272 -10.4417 -10.3967 -10.3708 -10.3482
   -10.3426 -10.3313 -10.3148 -10.3041 -10.2905 -10.2848 -10.2563 -10.2482
   -10.2428 -10.2302 -10.2283 -10.2177 -10.2116 -10.2044 -10.2003 -10.1852
   -10.1615 -10.1363 -10.1323 -10.1140 -10.1116 -10.1065 -10.0929 -10.0904
   -10.0856 -10.0685 -10.0532 -10.0379 -10.0092 -10.0061  -9.9900  -9.9822
    -9.9689  -9.9652  -9.9535  -9.9390  -9.9160  -9.9131  -9.8963  -9.8803
    -9.8610  -9.8527  -9.8502  -9.8194  -9.8186  -9.8021  -9.7949  -9.7668
    -9.7503  -9.7445  -9.7382  -9.7352  -9.7293  -9.7240  -9.7051  -9.6851
    -9.6807  -9.6714  -9.6686  -9.6664  -9.6551  -9.6506  -9.6489  -9.6306
    -9.6229  -9.6194  -9.6168  -9.5571  -9.5555  -9.5165  -9.4992  -9.4906
    -9.4814  -9.4274  -9.4121  -9.4053  -9.3982  -9.3914  -9.3886  -9.3768
    -9.3676  -9.3425  -9.3385  -9.3299  -9.3239  -9.3038  -9.2837  -9.2737
    -9.2561  -9.2558  -9.2432  -9.2343  -9.2289  -9.2228  -9.2169  -9.2008
    -9.1828  -9.1753  -9.1549  -9.1499  -9.1436  -9.1413  -9.1346  -9.1157
    -9.1088  -9.0891  -9.0839  -9.0812  -9.0799  -9.0762  -9.0756  -9.0734
    -9.0709  -9.0642  -9.0622  -9.0607  -9.0510  -9.0431  -9.0381  -9.0374
    -9.0332  -9.0324  -9.0164  -9.0146  -9.0000  -8.9868  -8.9849  -8.9833
    -8.9789  -8.9760  -8.9758  -8.9567  -8.9511  -8.9392  -8.9266  -8.9245
    -8.9222  -8.9198  -8.9066  -8.8925  -8.8527  -8.8493  -8.8168  -8.7947
    -8.7681  -8.7303  -8.6961  -8.6955  -8.6560  -8.6367  -8.6312  -8.5720
    -8.5484  -8.5390  -8.4967  -8.4819  -8.4697  -8.4454  -8.3556  -8.3220
    -8.3207  -8.3168  -8.3116  -8.3078  -8.3068  -8.3004  -8.2989  -8.2630
    -8.2379  -8.2263  -8.1755  -8.1661  -8.1596  -8.1389  -8.1099  -8.0407
    -8.0330  -8.0312  -8.0284  -8.0206  -8.0116  -8.0099  -8.0030  -7.9984
    -7.9966  -7.9943  -7.9909  -7.9858  -7.9829  -7.9795  -7.9772  -7.9746
    -7.9732  -7.9681  -7.9628  -7.9624  -7.9610  -7.9587  -7.9577  -7.9567
    -7.9516  -7.9516  -7.9422  -7.9336  -7.9316  -7.9272  -7.9245  -7.9166
    -7.9087  -7.9068  -7.8972  -7.8901  -7.8885  -7.8873  -7.8868  -7.8596
    -7.8594  -7.8577  -7.8575  -7.8507  -7.8417  -7.8183  -7.8092  -7.8031
    -7.8015  -7.8001  -7.7959  -7.7899  -7.7870  -7.7846  -7.7792  -7.7762
    -7.7575  -7.7566  -7.7550  -7.7468  -7.7417  -7.7322  -7.7182  -7.6714
    -7.6535  -7.6505  -7.6440  -7.6418  -7.6320  -7.6146  -7.6038  -7.5259
    -7.4793  -7.4242  -7.4000  -7.3648  -7.3605  -7.3589  -7.3526  -7.3195
    -7.3157  -7.3044  -7.3010  -7.2867  -7.2801  -7.2505  -7.2419  -7.2380
    -7.2289  -7.2210  -7.2104  -7.2073  -7.1859  -7.1726  -7.1697  -7.1588
    -7.1490  -7.1178  -7.1123  -7.1034  -7.0840  -7.0820  -7.0618  -7.0599
    -7.0571  -7.0384  -7.0364  -7.0191  -7.0109  -6.9782  -6.9546  -6.9528
    -6.9454  -6.8990  -6.8757  -6.8574  -6.8523  -6.8294  -6.8101  -6.8100
    -6.8020  -6.8003  -6.7991  -6.7973  -6.7964  -6.7846  -6.7825  -6.7801
    -6.7800  -6.7733  -6.7724  -6.7718  -6.7718  -6.7679  -6.7587  -6.6934
    -6.6806  -6.6730  -6.6270  -6.5983  -6.5873  -6.5273  -6.5194  -6.5177
    -6.5122  -6.4944  -6.4905  -6.4828  -6.4703  -6.4700  -6.4669  -6.4666
    -6.4651  -6.4620  -6.4471  -6.4408  -6.4208  -6.4177  -6.4109  -6.4013
    -6.3977  -6.3920  -6.3894  -6.3856  -6.2381  -6.2125  -6.1816  -6.1789
    -6.1281  -6.1243  -6.0807  -6.0724  -6.0592  -6.0380  -6.0320  -6.0237
    -5.8917  -5.8835  -5.8620  -5.7884  -5.7826  -5.5115  -5.3653  -5.1794
    -5.1316  -5.0989  -4.8384  -4.2819  -4.2793  -4.2743  -4.2671  -4.1338
    -4.1241  -4.1107  -4.1013  -4.0906  -4.0749  -4.0409  -4.0358  -4.0268
    -4.0224  -4.0073  -4.0055  -3.9918  -3.9917  -3.9862  -3.9699  -3.8852
    -3.8780  -3.8602  -3.8437  -3.8157  -3.7990  -3.7974  -3.7921  -3.7891
    -3.7833  -3.7542  -3.7432  -3.7389  -3.7211  -3.7200  -3.7101  -3.7038
    -3.6991  -3.6828  -3.6798  -3.6740  -3.6654  -3.6650  -3.6617  -3.6571
    -3.6501  -3.6434  -3.6390  -3.6237  -3.6202  -3.6146  -3.6095  -3.6066
    -3.5972  -3.5646  -3.5448  -3.5425  -3.5402  -3.5354  -3.5312  -3.5308
    -3.5274  -3.5104  -3.5093  -3.4918  -3.4854  -3.4801  -3.4740  -3.4716
    -3.4702  -3.4689  -3.4649  -3.4525  -3.4411  -3.4367  -3.4298  -3.4240
    -3.4200  -3.4158  -3.4138  -3.4031  -3.4025  -3.3915  -3.3883  -3.3821
    -3.3777  -3.3691  -3.3682  -3.3634  -3.3579  -3.3533  -3.3533  -3.3502
    -3.3312  -3.2911  -3.2860  -3.2712  -3.2622  -3.2586  -3.2539  -3.2515
    -3.2505  -3.2219  -3.2172  -3.2163  -3.2141  -3.2139  -3.2116  -3.2073
    -3.2035  -3.2014  -3.1979  -3.1921  -3.1889  -3.1835  -3.1794  -3.1733
    -3.1691  -3.1677  -3.1592  -3.1575  -3.1557  -3.1537  -3.1469  -3.1424
    -3.1393  -3.1379  -3.1360  -3.1299  -3.1232  -3.1218  -3.1073  -3.0926
    -3.0889  -3.0738  -3.0734  -3.0686  -3.0552  -3.0530  -3.0457  -2.9872
    -2.9842  -2.9781  -2.9728  -2.9151  -2.9139  -2.9122  -2.9092  -2.8112
    -2.8015  -2.7809  -2.7638  -2.7514  -2.7466  -2.7348  -2.7278  -2.7257
    -2.7232  -2.7178  -2.7174  -2.7169  -2.7092  -2.5999  -2.5949  -2.5913
    -2.5898  -2.5839  -2.5778  -2.5655  -2.5469  -2.5340  -2.5335

          k =-0.5000-0.8660 0.0000 (386352 PWs)   bands (ev):

  -101.2425 -89.4534 -89.3315 -69.6774 -69.6762 -69.6084 -69.6050 -69.5818
   -69.5706 -69.5684 -66.8395 -66.8132 -66.8127 -66.8126 -66.8124 -66.8124
   -66.8112 -66.8111 -66.8041 -66.8027 -66.8021 -66.8020 -66.8018 -66.8018
   -66.8005 -66.8005 -66.7947 -66.7928 -66.7894 -66.7871 -66.7870 -66.7869
   -66.7868 -66.7867 -66.7867 -66.7867 -66.7867 -66.7854 -66.7854 -66.7854
   -66.7854 -66.7844 -66.7825 -66.7824 -66.7822 -66.7822 -66.7816 -66.7809
   -66.7809 -66.7787 -66.7779 -66.7763 -66.7763 -66.7761 -66.7760 -66.7760
   -66.7759 -66.7759 -66.7759 -66.7747 -66.7747 -66.7747 -66.7746 -66.7718
   -66.7717 -66.7715 -66.7715 -66.7702 -66.7702 -66.7616 -66.7553 -66.7506
   -66.7477 -66.7377 -55.7591 -55.4992 -55.2870 -55.2670 -55.1967 -55.1749
   -55.1508 -55.0061 -54.8442 -41.1216 -41.1165 -41.1146 -41.1146 -41.1146
   -41.1144 -41.1144 -41.1144 -41.1144 -41.1144 -41.1138 -41.1138 -41.1138
   -41.1138 -41.1072 -41.1033 -41.0949 -41.0878 -41.0877 -41.0876 -41.0876
   -41.0869 -41.0869 -41.0830 -41.0757 -41.0757 -41.0755 -41.0755 -41.0749
   -41.0749 -41.0651 -41.0489 -41.0251 -41.0250 -41.0250 -41.0250 -41.0248
   -41.0248 -41.0248 -41.0248 -41.0241 -41.0241 -41.0241 -41.0241 -41.0209
   -41.0177 -41.0133 -41.0091 -41.0057 -40.9831 -40.9774 -40.9664 -40.9663
   -40.9660 -40.9660 -40.9654 -40.9654 -40.9615 -40.9568 -40.9567 -40.9566
   -40.9566 -40.9557 -40.9557 -40.9531 -40.9508 -40.9455 -40.9455 -40.9452
   -40.9452 -40.9445 -40.9445 -40.9427 -40.9356 -40.9280 -40.9213 -40.9160
   -40.9160 -40.9160 -40.9158 -40.9157 -40.9155 -40.9155 -40.9155 -40.9155
   -40.9149 -40.9149 -40.9149 -40.9149 -40.9072 -40.9071 -40.9068 -40.9068
   -40.9066 -40.9061 -40.9061 -40.9050 -40.9001 -40.8953 -40.8952 -40.8951
   -40.8951 -40.8950 -40.8949 -40.8949 -40.8947 -40.8947 -40.8945 -40.8945
   -40.8945 -40.8945 -40.8942 -40.8942 -40.8938 -40.8938 -40.8938 -40.8938
   -40.8907 -40.8871 -40.8862 -40.8861 -40.8858 -40.8858 -40.8851 -40.8851
   -40.8851 -40.8832 -40.8749 -40.8700 -40.8645 -40.8643 -40.8643 -40.8642
   -40.8641 -40.8641 -40.8641 -40.8641 -40.8632 -40.8632 -40.8632 -40.8632
   -40.8621 -40.8527 -40.8491 -40.8296 -40.8296 -40.8296 -40.8295 -40.8294
   -40.8294 -40.8294 -40.8294 -40.8285 -40.8285 -40.8285 -40.8285 -40.8285
   -40.8231 -40.8211 -40.8175 -40.8174 -40.8172 -40.8172 -40.8163 -40.8163
   -40.8134 -40.8067 -40.7982 -40.7980 -40.7979 -40.7979 -40.7970 -40.7970
   -40.7945 -40.7935 -40.7812 -40.7811 -40.7809 -40.7809 -40.7800 -40.7800
   -40.7770 -40.7697 -40.7551 -40.7505 -40.7504 -40.7503 -40.7503 -40.7493
   -40.7493 -40.7406 -40.7316 -20.2244 -20.0808 -20.0610 -20.0213 -19.9627
   -19.9308 -19.8536 -19.8408 -19.7068 -19.6486 -19.6229 -19.5976 -19.5320
   -19.5096 -19.4284 -19.4173 -19.2908 -19.0080 -18.9948 -18.9509 -18.9314
   -18.9306 -18.9171 -18.9092 -18.9025 -18.8964 -18.8723 -18.8558 -18.8459
   -18.8333 -18.8201 -18.8132 -18.7789 -18.7721 -18.7610 -18.7451 -18.7431
   -18.7387 -18.7228 -18.7099 -18.7022 -18.6716 -18.6707 -18.6666 -18.6616
   -18.6291 -18.6052 -18.6018 -18.5982 -18.5686 -18.5597 -18.5444 -18.5273
   -18.5094 -18.4984 -18.4639 -18.4464 -18.4430 -18.4351 -18.4228 -18.3916
   -18.3753 -18.3713 -18.3526 -18.3254 -18.3099 -18.3036 -18.3004 -18.2952
   -18.2939 -18.2907 -18.2869 -18.2785 -18.2651 -18.2636 -18.2626 -18.2598
   -18.2584 -18.2491 -18.2418 -18.2405 -18.2329 -18.2315 -18.2207 -18.2027
   -18.2001 -18.1982 -18.1948 -18.1917 -18.1906 -18.1866 -18.1811 -18.1800
   -18.1699 -18.1414 -18.1385 -18.1308 -18.1272 -18.1211 -18.1112 -18.0872
   -18.0858 -18.0777 -18.0670 -18.0431 -18.0423 -18.0386 -18.0317 -18.0208
   -18.0140 -18.0132 -18.0129 -18.0124 -18.0103 -18.0095 -18.0036 -17.9963
   -17.9923 -17.9785 -17.9772 -17.9548 -17.9539 -17.9350 -17.9339 -17.9201
   -17.9192 -17.9127 -17.9125 -12.1104 -12.0811 -11.9114 -11.9014 -11.8145
   -11.7938 -11.7230 -11.7092 -11.6933 -11.6865 -11.6842 -11.6735 -11.6635
   -11.6571 -11.6389 -11.6097 -11.5893 -11.5753 -11.5683 -11.5528 -11.5468
   -11.5263 -11.5124 -11.5077 -11.4914 -11.4714 -11.4638 -11.4628 -11.4556
   -11.4520 -11.4517 -11.4442 -11.4396 -11.4029 -11.3966 -11.3863 -11.3823
   -11.3673 -11.3637 -11.3602 -11.3586 -11.3472 -11.3392 -11.3388 -11.3150
   -11.3079 -11.2803 -11.2688 -11.2582 -11.2520 -11.2252 -11.1862 -11.1795
   -11.1398 -11.1309 -11.1285 -11.1159 -11.1093 -11.0963 -11.0818 -11.0752
   -11.0496 -11.0448 -11.0267 -11.0246 -11.0200 -11.0132 -11.0058 -11.0045
   -11.0039 -11.0019 -11.0016 -10.9949 -10.9900 -10.9875 -10.9865 -10.9850
   -10.9841 -10.9766 -10.9757 -10.9727 -10.9712 -10.9369 -10.9363 -10.9357
   -10.9357 -10.8551 -10.7708 -10.7312 -10.7226 -10.7185 -10.6970 -10.6758
   -10.6347 -10.5940 -10.5697 -10.5259 -10.4558 -10.4429 -10.4356 -10.3453
   -10.3397 -10.3252 -10.3183 -10.3006 -10.2959 -10.2810 -10.2659 -10.2452
   -10.2389 -10.2268 -10.2220 -10.2209 -10.2202 -10.2080 -10.1992 -10.1790
   -10.1586 -10.1229 -10.1214 -10.1176 -10.1020 -10.0982 -10.0917 -10.0830
   -10.0736 -10.0516 -10.0483 -10.0396 -10.0264  -9.9972  -9.9908  -9.9723
    -9.9630  -9.9578  -9.9547  -9.9279  -9.9242  -9.9001  -9.8901  -9.8791
    -9.8723  -9.8472  -9.8431  -9.8153  -9.8102  -9.8048  -9.7931  -9.7783
    -9.7612  -9.7495  -9.7403  -9.7335  -9.7294  -9.7275  -9.7101  -9.6853
    -9.6818  -9.6736  -9.6658  -9.6648  -9.6601  -9.6535  -9.6497  -9.6463
    -9.6282  -9.6237  -9.6176  -9.5785  -9.5718  -9.5479  -9.5323  -9.4730
    -9.4656  -9.4522  -9.4180  -9.4074  -9.4028  -9.3920  -9.3893  -9.3714
    -9.3585  -9.3486  -9.3334  -9.3262  -9.3143  -9.3043  -9.2991  -9.2745
    -9.2721  -9.2480  -9.2367  -9.2310  -9.2273  -9.2227  -9.2182  -9.1889
    -9.1804  -9.1662  -9.1660  -9.1462  -9.1417  -9.1363  -9.1344  -9.1177
    -9.1072  -9.0905  -9.0842  -9.0836  -9.0806  -9.0784  -9.0763  -9.0719
    -9.0636  -9.0623  -9.0596  -9.0541  -9.0512  -9.0473  -9.0440  -9.0405
    -9.0331  -9.0327  -9.0254  -9.0095  -8.9952  -8.9859  -8.9836  -8.9829
    -8.9816  -8.9779  -8.9756  -8.9560  -8.9530  -8.9427  -8.9278  -8.9263
    -8.9234  -8.9184  -8.9082  -8.8899  -8.8539  -8.8442  -8.8376  -8.7942
    -8.7863  -8.7106  -8.7007  -8.6976  -8.6744  -8.6425  -8.6223  -8.5800
    -8.5481  -8.5427  -8.4961  -8.4672  -8.4541  -8.4022  -8.3816  -8.3408
    -8.3207  -8.3205  -8.3117  -8.3113  -8.3004  -8.3002  -8.2812  -8.2599
    -8.2522  -8.2402  -8.1753  -8.1622  -8.1501  -8.0816  -8.0727  -8.0464
    -8.0362  -8.0320  -8.0269  -8.0214  -8.0144  -8.0097  -8.0059  -8.0015
    -7.9956  -7.9936  -7.9890  -7.9879  -7.9853  -7.9809  -7.9754  -7.9743
    -7.9675  -7.9650  -7.9625  -7.9613  -7.9586  -7.9579  -7.9560  -7.9524
    -7.9514  -7.9510  -7.9411  -7.9315  -7.9287  -7.9255  -7.9220  -7.9158
    -7.9066  -7.8982  -7.8904  -7.8889  -7.8889  -7.8866  -7.8613  -7.8598
    -7.8593  -7.8578  -7.8550  -7.8477  -7.8397  -7.8314  -7.8150  -7.8055
    -7.8031  -7.8014  -7.7997  -7.7917  -7.7890  -7.7883  -7.7781  -7.7764
    -7.7597  -7.7572  -7.7564  -7.7516  -7.7444  -7.7382  -7.7237  -7.6980
    -7.6594  -7.6530  -7.6489  -7.6470  -7.6285  -7.6148  -7.5752  -7.5466
    -7.4901  -7.4140  -7.3935  -7.3747  -7.3660  -7.3613  -7.3549  -7.3446
    -7.3256  -7.3153  -7.3014  -7.2926  -7.2898  -7.2754  -7.2564  -7.2427
[...]
Mo              -1.5777621001        4.5593975145        3.0614396963
Mo              -0.0498607470        3.6466963289        9.1644838410
S               -1.5923290565        4.5870299585        7.5903751424
S               -0.0018410593        3.6502277225        4.6299219373
S               -0.0022817760        3.6491880412        1.4937024862
S               -1.6115582000        4.5689495292       10.7409288104
Mo              -3.1512226931        7.2774749019       -9.1672481230    0   0   0
Mo              -1.5755910988        6.3678216792       -3.0555115988    0   0   0
S               -3.1512162438        7.2774954350       -4.6232578178    0   0   0
S               -1.5756025210        6.3677884239       -7.6014065489    0   0   0
S               -1.5756020673        6.3677895528      -10.7330757790    0   0   0
S               -3.1512127704        7.2774877076       -1.4877200710    0   0   0
Mo              -3.1534792747        7.2883653609        3.0610470983
Mo              -1.5963085765        6.3936200163        9.1832029421
S               -3.1545709018        7.3106374325        7.5994152134
S               -1.5773005318        6.3793389255        4.6287389524
S               -1.5780541732        6.3781711882        1.4929119995
S               -3.1801566671        7.3095899046       10.7399975955
Mo              -4.7268400355       10.0065304219       -9.1672481230    0   0   0
Mo              -3.1512405618        9.0968403586       -3.0554816746    0   0   0
S               -4.7268341792       10.0065523623       -4.6232463762    0   0   0
S               -3.1512198634        9.0968439439       -7.6014065489    0   0   0
S               -3.1512194097        9.0968450728      -10.7330757790    0   0   0
S               -4.7268370797       10.0065537885       -1.4877176751    0   0   0
Mo              -4.7291728322       10.0177209612        3.0612087984
Mo              -3.1621140584        9.1289831990        9.1703410209
S               -4.7351145079       10.0430032632        7.5993542460
S               -3.1536884523        9.1079822156        4.6287828411
S               -3.1534827885        9.1076985413        1.4934960127
S               -4.7480137504       10.0268071334       10.7365685603
Mo               3.1512517547        1.8193638619       -9.1672481230    0   0   0
Mo               4.7269020221        0.9097289540       -3.0554823951    0   0   0
S                3.1512612351        1.8193882564       -4.6232320683    0   0   0
S                4.7268719268        0.9096773839       -7.6014065489    0   0   0
S                4.7268723805        0.9096785128      -10.7330757790    0   0   0
S                3.1512592485        1.8193890201       -1.4877261251    0   0   0
Mo               3.1490534859        1.8306942707        3.0607618772
Mo               4.7225074018        0.9339481820        9.1789456882
S                3.1439044760        1.8688414440        7.6385244727
S                4.7239132748        0.9209152450        4.6293551796
S                4.7248361053        0.9203178549        1.4933744215
S                3.1448771034        1.7349442127       10.8139647390
Mo               1.5756344123        4.5484193819       -9.1672481230    0   0   0
Mo               3.1512756394        3.6387769522       -3.0554814834    0   0   0
S                1.5756504879        4.5484423799       -4.6232390542    0   0   0
S                3.1512545844        3.6387329039       -7.6014065489    0   0   0
S                3.1512550381        3.6387340328      -10.7330757790    0   0   0
S                1.5756466253        4.5484431864       -1.4877251801    0   0   0
Mo               1.5735175508        4.5593115327        3.0611369884
Mo               3.1562689417        3.6489805125        9.2334786199
S                1.5840849404        4.5897373896        7.6756704455
S                3.1484858401        3.6498183562        4.6294175680
S                3.1491571069        3.6496445806        1.4928670865
S                1.4849099140        4.5311074933       10.7482466007
Mo               0.0000170699        7.2774749019       -9.1672481230    0   0   0
Mo               1.5756764447        6.3678236689       -3.0554877708    0   0   0
S                0.0000381981        7.2774979204       -4.6232454413    0   0   0
S                1.5756372420        6.3677884239       -7.6014065489    0   0   0
S                1.5756376957        6.3677895528      -10.7330757790    0   0   0
S                0.0000328088        7.2774946042       -1.4877307940    0   0   0
Mo              -0.0021455191        7.2880747559        3.0605237831
Mo               1.5527650728        6.4194192419        9.2374686395
S                0.0021283474        7.2982570885        7.6455145668
S                1.5726450272        6.3783475752        4.6297056352
S                1.5736309872        6.3782642269        1.4931643299
S               -0.1134163424        7.3671793840       10.8212481892
Mo              -1.5756002725       10.0065304219       -9.1672481230    0   0   0
Mo               0.0000873425        9.0968676911       -3.0554912329    0   0   0
S               -1.5755883952       10.0065504530       -4.6232240150    0   0   0
S                0.0000198996        9.0968439439       -7.6014065489    0   0   0
S                0.0000203533        9.0968450728      -10.7330757790    0   0   0
S               -1.5755859047       10.0065492576       -1.4877362381    0   0   0
Mo              -1.5778873071       10.0174004470        3.0614137269
Mo              -0.0160892679        9.1338621373        9.1842228793
S               -1.5820247101       10.0373339551        7.6041790735
S               -0.0025391965        9.1068421196        4.6292488919
S               -0.0023859635        9.1077128022        1.4931454364
S               -1.5919948800       10.0368536559       10.7499813108
Mo               6.3024915177        1.8193638619       -9.1672481230    0   0   0
Mo               7.8781001445        0.9096521684       -3.0554919963    0   0   0
S                6.3025008696        1.8193826232       -4.6232480596    0   0   0
S                7.8781116898        0.9096773839       -7.6014065489    0   0   0
S                7.8781121435        0.9096785128      -10.7330757790    0   0   0
S                6.3025042007        1.8193849068       -1.4877147524    0   0   0
Mo               6.2998868232        1.8302563994        3.0617003821
Mo               7.8660021254        0.9389171672        9.1622984451
S                6.2876258546        1.8473971637        7.5958154796
S                7.8755690692        0.9204040228        4.6287270829
S                7.8754572906        0.9201048590        1.4935830025
S                6.3030826804        1.8517588490       10.7376388776
Mo               4.7268741753        4.5484193819       -9.1672481230    0   0   0
Mo               6.3024679138        3.6387501714       -3.0554895197    0   0   0
S                4.7268748770        4.5484386753       -4.6232519432    0   0   0
S                6.3024943474        3.6387329039       -7.6014065489    0   0   0
S                6.3024948011        3.6387340328      -10.7330757790    0   0   0
S                4.7268770533        4.5484432419       -1.4877137856    0   0   0
Mo               4.7240969739        4.5592471064        3.0615107401
Mo               6.3072363833        3.6671318243        9.1655196759
S                4.6959133618        4.5739542149        7.6390744046
S                6.2995811515        3.6500368774        4.6296471424
S                6.3001495996        3.6493996235        1.4938842053
S                4.8016362794        4.6103249134       10.7792537579
Mo               3.1512568329        7.2774749019       -9.1672481230    0   0   0
Mo               4.7268384135        6.3678043337       -3.0554959052    0   0   0
S                3.1512606125        7.2774972547       -4.6232589675    0   0   0
S                4.7268770050        6.3677884239       -7.6014065489    0   0   0
S                4.7268774587        6.3677895528      -10.7330757790    0   0   0
S                3.1512629079        7.2774963749       -1.4877081835    0   0   0
Mo               3.1484814061        7.2879037024        3.0616363536
Mo               4.7327572104        6.4097015043        9.1863154717
S                3.1212440378        7.2965200579        7.6440535146
S                4.7237635835        6.3784959971        4.6298502898
S                4.7243391679        6.3783962453        1.4935917141
S                3.2065702958        7.3655991880       10.7832237872
Mo               1.5756394905       10.0065304219       -9.1672481230    0   0   0
Mo               3.1512330605        9.0968514907       -3.0554878870    0   0   0
S                1.5756499830       10.0065443759       -4.6232632674    0   0   0
S                3.1512596626        9.0968439439       -7.6014065489    0   0   0
S                3.1512601163        9.0968450728      -10.7330757790    0   0   0
S                1.5756503041       10.0065459699       -1.4877044377    0   0   0
Mo               1.5730977472       10.0168976761        3.0614797807
Mo               3.1411241714        9.1426968393        9.1719806172
S                1.5559860739       10.0301444463        7.5998967314
S                3.1484632228        9.1071182055        4.6296578428
S                3.1488829865        9.1071678240        1.4935958031
S                1.5657177024       10.0474962030       10.7429671623
Mo               9.4537312807        1.8193638619       -9.1672481230    0   0   0
Mo              11.0293863460        0.9096952246       -3.0554894007    0   0   0
S                9.4537395970        1.8193770750       -4.6232328036    0   0   0
S               11.0293514528        0.9096773839       -7.6014065489    0   0   0
S               11.0293519066        0.9096785128      -10.7330757790    0   0   0
S                9.4537393632        1.8193794783       -1.4877366147    0   0   0
Mo               9.4513043943        1.8300615065        3.0609519631
Mo              11.0160033813        0.9350789709        9.1578331244
S                9.4401345366        1.8461048933        7.5875119057
S               11.0267565248        0.9206672982        4.6287527357
S               11.0273184343        0.9201995034        1.4935516885
S                9.4409927164        1.8488433696       10.7256641993
Mo               7.8781139383        4.5484193819       -9.1672481230    0   0   0
Mo               9.4537539161        3.6387607911       -3.0554933032    0   0   0
S                7.8781175448        4.5484378232       -4.6232366318    0   0   0
S                9.4537341104        3.6387329039       -7.6014065489    0   0   0
S                9.4537345641        3.6387340328      -10.7330757790    0   0   0
S                7.8781194018        4.5484411585       -1.4877377057    0   0   0
Mo               7.8756217084        4.5593643715        3.0614934055
Mo               9.4384602358        3.6687421751        9.1556149626
S                7.8655832478        4.5801964830        7.5866853048
S                9.4513635546        3.6495611675        4.6285590599
S                9.4514343162        3.6495213946        1.4934669121
S                7.8796279529        4.5820791480       10.7305513088
Mo               6.3024965959        7.2774749019       -9.1672481230    0   0   0
Mo               7.8781361655        6.3678242352       -3.0555014130    0   0   0
S                6.3024973331        7.2774953556       -4.6232392528    0   0   0
S                7.8781167680        6.3677884239       -7.6014065489    0   0   0
S                7.8781172217        6.3677895528      -10.7330757790    0   0   0
S                6.3024989866        7.2774929744       -1.4877349119    0   0   0
Mo               6.2998057755        7.2882827129        3.0614483937
Mo               7.8669819961        6.4003655634        9.1591230941
S                6.2844129146        7.3053638268        7.5922385015
S                7.8757274676        6.3791453995        4.6288468798
S                7.8755738110        6.3784420131        1.4934495139
S                6.3142553404        7.3221462626       10.7420273413
Mo               4.7268792535       10.0065304219       -9.1672481230    0   0   0
Mo               6.3025111524        9.0968738021       -3.0554915260    0   0   0
S                4.7268840634       10.0065452125       -4.6232380477    0   0   0
S                6.3024994256        9.0968439439       -7.6014065489    0   0   0
S                6.3024998793        9.0968450728      -10.7330757790    0   0   0
S                4.7268847312       10.0065459141       -1.4877283294    0   0   0
Mo               4.7242511878       10.0171826640        3.0614759256
Mo               6.2892948645        9.1273995674        9.1601898792
S                4.7096998155       10.0329566576        7.5900710435
S                6.3000887150        9.1080588028        4.6288863687
S                6.3000246130        9.1075569756        1.4935762104
S                4.7220523790       10.0459122564       10.7354628850
Pd               1.5301016565        6.3131429962       12.1682279321
Pd               3.0523147790        3.6859010797       12.1615071376
Pt               2.5571538154        5.1466049051       14.1636103682



     Writing config-only to output data dir ./outdir/pwscf.save/ :
     XML data file
     NEW-OLD atomic charge density approx. for the potential

     negative rho (up, down):  8.889E-04 0.000E+00

     total cpu time spent up to now is   250083.9 secs

     Self-consistent Calculation

     iteration #  1     ecut=    77.00 Ry     beta= 0.20
     Davidson diagonalization with overlap
     ethr =  1.00E-06,  avg # of iterations = 17.0

     negative rho (up, down):  8.904E-04 0.000E+00

     total cpu time spent up to now is   250810.3 secs

     total energy              =  -34492.22895613 Ry
     estimated scf accuracy    <       0.01450505 Ry

     iteration #  2     ecut=    77.00 Ry     beta= 0.20
     Davidson diagonalization with overlap
     ethr =  8.37E-07,  avg # of iterations = 18.2

     negative rho (up, down):  8.887E-04 0.000E+00

     total cpu time spent up to now is   251296.0 secs

     total energy              =  -34492.22320295 Ry
     estimated scf accuracy    <       0.27129845 Ry

     iteration #  3     ecut=    77.00 Ry     beta= 0.20
     Davidson diagonalization with overlap
     ethr =  8.37E-07,  avg # of iterations = 12.8

     negative rho (up, down):  8.881E-04 0.000E+00

     total cpu time spent up to now is   251744.4 secs

     total energy              =  -34492.23034901 Ry
     estimated scf accuracy    <       0.00039938 Ry

     iteration #  4     ecut=    77.00 Ry     beta= 0.20
     Davidson diagonalization with overlap
     c_bands:  2 eigenvalues not converged
     c_bands:  3 eigenvalues not converged
     c_bands:  3 eigenvalues not converged
     c_bands:  3 eigenvalues not converged
     ethr =  2.31E-08,  avg # of iterations = 20.0

     negative rho (up, down):  8.885E-04 0.000E+00

     total cpu time spent up to now is   252622.1 secs

     total energy              =  -34492.22992209 Ry
     estimated scf accuracy    <       0.00040948 Ry

     iteration #  5     ecut=    77.00 Ry     beta= 0.20
     Davidson diagonalization with overlap
     ethr =  2.31E-08,  avg # of iterations =  6.8

     negative rho (up, down):  8.888E-04 0.000E+00

     total cpu time spent up to now is   253053.3 secs

     total energy              =  -34492.22916714 Ry
     estimated scf accuracy    <       0.00034675 Ry

     iteration #  6     ecut=    77.00 Ry     beta= 0.20
     Davidson diagonalization with overlap
     ethr =  2.00E-08,  avg # of iterations =  5.0

     negative rho (up, down):  8.891E-04 0.000E+00

     total cpu time spent up to now is   253476.1 secs

     total energy              =  -34492.22855411 Ry
     estimated scf accuracy    <       0.00026383 Ry

     iteration #  7     ecut=    77.00 Ry     beta= 0.20
     Davidson diagonalization with overlap
     ethr =  1.52E-08,  avg # of iterations =  8.0

     negative rho (up, down):  8.895E-04 0.000E+00

     total cpu time spent up to now is   253909.5 secs

     total energy              =  -34492.22826076 Ry
     estimated scf accuracy    <       0.00014890 Ry

     iteration #  8     ecut=    77.00 Ry     beta= 0.20
     Davidson diagonalization with overlap
     ethr =  8.60E-09,  avg # of iterations =  8.8

     negative rho (up, down):  8.897E-04 0.000E+00

     total cpu time spent up to now is   254347.0 secs

     total energy              =  -34492.22801354 Ry
     estimated scf accuracy    <       0.00008466 Ry

     iteration #  9     ecut=    77.00 Ry     beta= 0.20
     Davidson diagonalization with overlap
     ethr =  4.89E-09,  avg # of iterations = 10.0

     negative rho (up, down):  8.900E-04 0.000E+00

     total cpu time spent up to now is   254800.0 secs

     total energy              =  -34492.22774412 Ry
     estimated scf accuracy    <       0.00005290 Ry

     iteration # 10     ecut=    77.00 Ry     beta= 0.20
     Davidson diagonalization with overlap
     ethr =  3.05E-09,  avg # of iterations = 10.2

     negative rho (up, down):  8.903E-04 0.000E+00

     total cpu time spent up to now is   255426.3 secs

     total energy              =  -34492.22765941 Ry
     estimated scf accuracy    <       0.00002681 Ry

     iteration # 11     ecut=    77.00 Ry     beta= 0.20
     Davidson diagonalization with overlap
     ethr =  1.55E-09,  avg # of iterations = 13.0

     negative rho (up, down):  8.906E-04 0.000E+00

     total cpu time spent up to now is   255901.2 secs

     total energy              =  -34492.22762209 Ry
     estimated scf accuracy    <       0.00001177 Ry

     iteration # 12     ecut=    77.00 Ry     beta= 0.20
     Davidson diagonalization with overlap
     ethr =  6.80E-10,  avg # of iterations = 11.0

     negative rho (up, down):  8.909E-04 0.000E+00

     total cpu time spent up to now is   256417.0 secs

     total energy              =  -34492.22761981 Ry
     estimated scf accuracy    <       0.00000292 Ry

     iteration # 13     ecut=    77.00 Ry     beta= 0.20
     Davidson diagonalization with overlap
     c_bands:  1 eigenvalues not converged
     ethr =  1.69E-10,  avg # of iterations = 16.8

     negative rho (up, down):  8.912E-04 0.000E+00

     total cpu time spent up to now is   257221.6 secs

     total energy              =  -34492.22762162 Ry
     estimated scf accuracy    <       0.00000148 Ry

     iteration # 14     ecut=    77.00 Ry     beta= 0.20
     Davidson diagonalization with overlap
     ethr =  8.55E-11,  avg # of iterations = 11.0

     negative rho (up, down):  8.914E-04 0.000E+00

     total cpu time spent up to now is   257675.8 secs

     total energy              =  -34492.22762171 Ry
     estimated scf accuracy    <       0.00000072 Ry

     iteration # 15     ecut=    77.00 Ry     beta= 0.20
     Davidson diagonalization with overlap
     ethr =  4.16E-11,  avg # of iterations = 13.8

     negative rho (up, down):  8.916E-04 0.000E+00

     total cpu time spent up to now is   258372.4 secs

     total energy              =  -34492.22762158 Ry
     estimated scf accuracy    <       0.00000027 Ry

     iteration # 16     ecut=    77.00 Ry     beta= 0.20
     Davidson diagonalization with overlap
     ethr =  1.54E-11,  avg # of iterations = 11.5

     negative rho (up, down):  8.918E-04 0.000E+00

     total cpu time spent up to now is   258986.6 secs

     total energy              =  -34492.22762158 Ry
     estimated scf accuracy    <       0.00000008 Ry

     iteration # 17     ecut=    77.00 Ry     beta= 0.20
     Davidson diagonalization with overlap
