ITEM: TIMESTEP
0
ITEM: NUMBER OF ATOMS
537
ITEM: BOX BOUNDS xy xz yz pp pp ff
-9.8299323600000008e+00 2.9489797079999999e+01 -9.8299323600000008e+00
0.0000000000000000e+00 2.7601942391000001e+01 0.0000000000000000e+00
0.0000000000000000e+00 3.6159325252999999e+01 0.0000000000000000e+00
ITEM: ATOMS id type element x y z ix iy iz
1 5 Si 0.0107922 5.40113 5.83817 0 0 0
2 5 Si 1.38607 1.27865 6.4883 0 0 0
3 5 Si 3.89733 2.51221 5 0 0 0
4 4 O 0.867075 4.68982 7.12125 0 0 0
5 4 O -1.13785 6.50901 6.45469 0 0 0
6 4 O 2.94713 1.78388 6.22748 0 0 0
7 4 O -0.952567 4.11933 5.15665 0 0 0
8 4 O 0.442021 1.86105 5.21008 0 0 0
9 4 O 0.873461 1.79135 7.98682 0 0 0
10 5 Si 0.106333 1.06354 9.29484 0 0 0
11 5 Si -0.936148 3.88733 9.95414 0 0 0
12 5 Si 1.5328 5.10101 8.58267 0 0 0
13 4 O 1.2519 0.53822 10.3708 0 0 0
14 4 O 4.04756 2.23288 9.98862 0 0 0
15 4 O 0.615217 4.50128 9.85687 0 0 0
16 4 O 1.55924 6.74966 8.75312 0 0 0
17 4 O 3.04078 4.40192 8.66853 0 0 0
18 4 O 3.37544 4.54793 11.3781 0 0 0
19 5 Si -2.44719 12.3017 5.83776 0 0 0
20 5 Si -1.07171 8.1796 6.48794 0 0 0
21 5 Si 1.43985 9.41269 5 0 0 0
22 4 O -1.58977 11.5914 7.12085 0 0 0
23 4 O -3.59505 13.4093 6.45441 0 0 0
24 4 O 0.489697 8.68453 6.22774 0 0 0
25 4 O -3.41005 11.0198 5.15665 0 0 0
26 4 O -2.01546 8.76153 5.21008 0 0 0
27 4 O -1.58429 8.69198 7.98684 0 0 0
28 5 Si -2.35071 7.96432 9.29492 0 0 0
29 5 Si -3.39387 10.7881 9.95343 0 0 0
30 5 Si -0.924329 12.0009 8.58262 0 0 0
31 4 O -1.20554 7.43922 10.3712 0 0 0
32 4 O 1.59046 9.13369 9.98802 0 0 0
33 4 O -1.84248 11.4013 9.85711 0 0 0
34 4 O -0.89815 13.6499 8.75399 0 0 0
35 4 O 0.583795 11.3015 8.66807 0 0 0
36 4 O 0.917505 11.4486 11.3777 0 0 0
73 5 Si 4.92561 5.40104 5.83762 0 0 0
74 5 Si 6.30066 1.27925 6.48837 0 0 0
75 5 Si 8.8123 2.51221 5 0 0 0
76 4 O 5.78203 4.69005 7.12116 0 0 0
77 4 O 3.77736 6.50846 6.45466 0 0 0
78 4 O 7.86214 1.78439 6.22758 0 0 0
79 4 O 3.9624 4.11933 5.15665 0 0 0
80 4 O 5.35699 1.86105 5.21008 0 0 0
81 4 O 5.78714 1.79172 7.98671 0 0 0
82 5 Si 5.02097 1.06397 9.29511 0 0 0
83 5 Si 3.97823 3.88735 9.95366 0 0 0
84 5 Si 6.44797 5.10064 8.5827 0 0 0
85 4 O 6.16679 0.537717 10.3706 0 0 0
86 4 O 8.96265 2.23297 9.98799 0 0 0
87 4 O 5.52971 4.50119 9.85706 0 0 0
88 4 O 6.47456 6.74963 8.75361 0 0 0
89 4 O 7.95633 4.40149 8.66913 0 0 0
90 4 O 8.29047 4.54781 11.3787 0 0 0
91 5 Si 2.46834 12.302 5.83846 0 0 0
92 5 Si 3.84297 8.17941 6.48826 0 0 0
93 5 Si 6.35482 9.41269 5 0 0 0
94 4 O 3.32503 11.5909 7.12137 0 0 0
95 4 O 1.31951 13.409 6.45595 0 0 0
96 4 O 5.40467 8.68407 6.22733 0 0 0
97 4 O 1.50492 11.0198 5.15665 0 0 0
98 4 O 2.8995 8.76153 5.21008 0 0 0
99 4 O 3.32994 8.69151 7.9871 0 0 0
100 5 Si 2.56339 7.9639 9.29463 0 0 0
101 5 Si 1.52141 10.7879 9.95374 0 0 0
102 5 Si 3.99045 12.0012 8.58253 0 0 0
103 4 O 3.7087 7.43844 10.3703 0 0 0
104 4 O 6.5051 9.13363 9.98785 0 0 0
105 4 O 3.07203 11.4015 9.85696 0 0 0
106 4 O 4.01787 13.6498 8.75401 0 0 0
107 4 O 5.49843 11.3019 8.66833 0 0 0
108 4 O 5.83238 11.4488 11.378 0 0 0
145 5 Si 9.84093 5.40119 5.83848 0 0 0
146 5 Si 11.215 1.27945 6.48766 0 0 0
147 5 Si 13.7273 2.51221 5 0 0 0
148 4 O 10.697 4.69073 7.1214 0 0 0
149 4 O 8.69188 6.50904 6.45438 0 0 0
150 4 O 12.7771 1.78388 6.22765 0 0 0
151 4 O 8.87737 4.11933 5.15665 0 0 0
152 4 O 10.272 1.86105 5.21008 0 0 0
153 4 O 10.7023 1.79139 7.98661 0 0 0
154 5 Si 9.93606 1.06409 9.29477 0 0 0
155 5 Si 8.894 3.88753 9.9546 0 0 0
156 5 Si 11.3626 5.10093 8.58284 0 0 0
157 4 O 11.0816 0.538007 10.3701 0 0 0
158 4 O 13.8778 2.23355 9.98781 0 0 0
159 4 O 10.4446 4.50153 9.85753 0 0 0
160 4 O 11.3895 6.74963 8.75396 0 0 0
161 4 O 12.8708 4.40231 8.66902 0 0 0
163 5 Si 7.38298 12.302 5.83754 0 0 0
164 5 Si 8.75835 8.17994 6.48772 0 0 0
165 5 Si 11.2698 9.41269 5 0 0 0
166 4 O 8.23977 11.591 7.12067 0 0 0
167 4 O 6.23441 13.4094 6.45406 0 0 0
168 4 O 10.3199 8.68479 6.22756 0 0 0
169 4 O 6.41988 11.0198 5.15665 0 0 0
170 4 O 7.81447 8.76153 5.21008 0 0 0
171 4 O 8.24532 8.69231 7.98664 0 0 0
172 5 Si 7.47884 7.96439 9.29488 0 0 0
173 5 Si 6.43616 10.7879 9.95362 0 0 0
174 5 Si 8.90542 12.0012 8.58213 0 0 0
175 4 O 8.6243 7.43919 10.371 0 0 0
176 4 O 11.4202 9.13318 9.9884 0 0 0
177 4 O 7.98757 11.401 9.85681 0 0 0
178 4 O 8.93217 13.6503 8.75357 0 0 0
179 4 O 10.4138 11.3018 8.66764 0 0 0
378 4 O -1.54029 4.54807 11.3779 1 0 0
396 4 O -3.99672 11.4487 11.3778 1 0 0
434 2 H 2.4322 4.35102 11.5434 0 0 0
435 2 H -1.3749 6.62271 10.8878 0 0 0
436 2 H -0.0261351 11.252 11.542 0 0 0
437 2 H -3.83211 13.5235 10.8882 0 0 0
442 2 H 7.34691 4.35148 11.5436 0 0 0
443 2 H 3.53962 6.62336 10.8884 0 0 0
444 2 H 4.88955 11.2514 11.5429 0 0 0
445 2 H 1.08268 13.5237 10.8885 0 0 0
450 2 H 12.2619 4.35118 11.543 0 0 0
451 2 H 8.45511 6.62307 10.8878 0 0 0
452 2 H 9.80286 11.2513 11.541 0 0 0
453 2 H 5.9986 13.5235 10.8883 0 0 0
484 1 C 7.87498 13.4116 16.8849 0 0 0
485 1 C 9.41992 13.3231 16.7357 0 0 0
486 1 C 10.1053 12.322 17.7088 0 0 0
496 2 H 7.27183 13.5488 14.772 0 0 0
498 2 H 7.4615 12.3735 16.9719 0 0 0
500 2 H 9.66339 13.0101 15.692 0 0 0
501 2 H 9.59087 11.3283 17.6394 0 0 0
489 1 C 9.9758 12.7286 19.1901 0 0 0
507 4 O 10.3942 11.911 20.1102 0 0 0
514 1 C 9.14294 13.652 25.2934 0 0 0
517 1 C 9.34802 13.5442 23.7694 0 0 0
529 2 H 9.13708 12.5916 25.6569 0 0 0
531 2 H 6.99259 13.6603 24.9168 0 0 0
534 2 H 7.25602 13.1131 27.4068 0 0 0
535 4 O 8.53617 12.8072 23.0718 0 0 0
537 3 Mg 9.69322 13.2592 21.4615 0 0 0
37 5 Si -4.90393 19.2026 5.83843 0 0 0
38 5 Si -3.5291 15.0795 6.48858 0 0 0
39 5 Si -1.01763 16.3132 5 0 0 0
40 4 O -4.04722 18.4912 7.12105 0 0 0
41 4 O -6.0527 20.31 6.45511 0 0 0
42 4 O -1.96775 15.5845 6.22751 0 0 0
43 4 O -5.86753 17.9203 5.15665 0 0 0
44 4 O -4.47294 15.662 5.21008 0 0 0
45 4 O -4.04233 15.5922 7.98701 0 0 0
46 5 Si -4.80911 14.8643 9.29486 0 0 0
47 5 Si -5.85111 17.6884 9.95409 0 0 0
48 5 Si -3.38212 18.9015 8.58226 0 0 0
49 4 O -3.66348 14.3393 10.3706 0 0 0
50 4 O -0.867535 16.0336 9.98963 0 0 0
51 4 O -4.30012 18.3023 9.85657 0 0 0
52 4 O -3.35515 20.5504 8.75371 0 0 0
53 4 O -1.87415 18.2023 8.66908 0 0 0
54 4 O -1.53925 18.3489 11.3792 0 0 0
55 5 Si -7.3617 26.1028 5.8374 0 0 0
56 5 Si -5.98688 21.9804 6.48815 0 0 0
57 5 Si -3.47512 23.2137 5 0 0 0
58 4 O -6.50504 25.3918 7.12048 0 0 0
59 4 O -8.51005 27.2102 6.45398 0 0 0
60 4 O -4.42552 22.4852 6.22764 0 0 0
61 4 O -8.32502 24.8208 5.15665 0 0 0
62 4 O -6.93043 22.5625 5.21008 0 0 0
63 4 O -6.49944 22.4925 7.98685 0 0 0
64 5 Si -7.26617 21.7655 9.29489 0 0 0
65 5 Si -8.30923 24.5887 9.95384 0 0 0
66 5 Si -5.83981 25.8021 8.58259 0 0 0
67 4 O -6.12088 21.2397 10.3708 0 0 0
68 4 O -3.32473 22.9332 9.98883 0 0 0
69 4 O -6.75779 25.202 9.85696 0 0 0
70 4 O -5.81288 27.4506 8.75355 0 0 0
71 4 O -4.33109 25.1022 8.66817 0 0 0
72 4 O -3.99738 25.2496 11.3788 0 0 0
109 5 Si 0.0108661 19.202 5.83813 0 0 0
110 5 Si 1.38606 15.0801 6.48789 0 0 0
111 5 Si 3.89733 16.3132 5 0 0 0
112 4 O 0.867209 18.4911 7.12164 0 0 0
113 4 O -1.13721 20.3098 6.45463 0 0 0
114 4 O 2.94713 15.5856 6.22714 0 0 0
115 4 O -0.952567 17.9203 5.15665 0 0 0
116 4 O 0.442021 15.662 5.21008 0 0 0
117 4 O 0.872268 15.593 7.98673 0 0 0
118 5 Si 0.106406 14.8647 9.29525 0 0 0
119 5 Si -0.936318 17.6886 9.9545 0 0 0
120 5 Si 1.53284 18.9018 8.58274 0 0 0
121 4 O 1.25305 14.3388 10.3703 0 0 0
122 4 O 4.04732 16.0336 9.98872 0 0 0
123 4 O 0.614997 18.3021 9.85706 0 0 0
124 4 O 1.55965 20.5507 8.75363 0 0 0
125 4 O 3.04089 18.2024 8.66876 0 0 0
126 4 O 3.37515 18.3489 11.3784 0 0 0
127 5 Si -2.44686 26.1026 5.83809 0 0 0
128 5 Si -1.07224 21.9804 6.48823 0 0 0
129 5 Si 1.43985 23.2137 5 0 0 0
130 4 O -1.59076 25.391 7.12146 0 0 0
131 4 O -3.59553 27.2104 6.45501 0 0 0
132 4 O 0.489112 22.4852 6.22822 0 0 0
133 4 O -3.41005 24.8208 5.15665 0 0 0
134 4 O -2.01546 22.5625 5.21008 0 0 0
135 4 O -1.5849 22.4928 7.98704 0 0 0
136 5 Si -2.35127 21.7647 9.29445 0 0 0
137 5 Si -3.39433 24.5882 9.95469 0 0 0
138 5 Si -0.924899 25.8025 8.58272 0 0 0
139 4 O -1.20599 21.2393 10.3709 0 0 0
140 4 O 1.59022 22.934 9.98877 0 0 0
141 4 O -1.84255 25.202 9.85695 0 0 0
142 4 O -0.897709 27.451 8.75363 0 0 0
143 4 O 0.583637 25.103 8.66846 0 0 0
144 4 O 0.917399 25.2496 11.3788 0 0 0
181 5 Si 4.92574 19.2022 5.83732 0 0 0
182 5 Si 6.30096 15.0798 6.48864 0 0 0
183 5 Si 8.8123 16.3132 5 0 0 0
184 4 O 5.78239 18.4914 7.12102 0 0 0
185 4 O 3.77739 20.3099 6.45425 0 0 0
186 4 O 7.86219 15.5847 6.22751 0 0 0
187 4 O 3.9624 17.9203 5.15665 0 0 0
188 4 O 5.35699 15.662 5.21008 0 0 0
189 4 O 5.78774 15.5923 7.98695 0 0 0
190 5 Si 5.02142 14.8646 9.29539 0 0 0
191 5 Si 3.97853 17.6881 9.9542 0 0 0
192 5 Si 6.44801 18.9016 8.58245 0 0 0
193 4 O 6.16695 14.3395 10.3716 0 0 0
194 4 O 8.96282 16.0336 9.9887 0 0 0
195 4 O 5.52974 18.3016 9.85681 0 0 0
196 4 O 6.47426 20.5503 8.75366 0 0 0
197 4 O 7.9561 18.2022 8.66846 0 0 0
199 5 Si 2.46808 26.1025 5.83816 0 0 0
200 5 Si 3.84314 21.9804 6.48834 0 0 0
201 5 Si 6.35482 23.2137 5 0 0 0
202 4 O 3.32417 25.3915 7.12105 0 0 0
203 4 O 1.31936 27.2104 6.45423 0 0 0
204 4 O 5.40436 22.4855 6.22782 0 0 0
205 4 O 1.50492 24.8208 5.15665 0 0 0
206 4 O 2.8995 22.5625 5.21008 0 0 0
207 4 O 3.33 22.4932 7.98686 0 0 0
208 5 Si 2.56387 21.765 9.2948 0 0 0
209 5 Si 1.52057 24.5884 9.95445 0 0 0
210 5 Si 3.99003 25.8029 8.58238 0 0 0
211 4 O 3.70922 21.2397 10.3703 0 0 0
212 4 O 6.5047 22.9341 9.98861 0 0 0
213 4 O 3.07202 25.2025 9.85695 0 0 0
214 4 O 4.01689 27.4512 8.75369 0 0 0
215 4 O 5.49849 25.103 8.6687 0 0 0
414 4 O -6.45517 18.3489 11.3779 1 0 0
432 4 O -8.91261 25.2493 11.3776 1 0 0
433 2 H -8.74705 27.3244 10.888 0 -1 0
438 2 H -2.4828 18.1519 11.5443 0 0 0
439 2 H -6.28939 20.4235 10.8877 0 0 0
440 2 H -4.94165 25.0525 11.5431 0 0 0
441 2 H -3.8332 27.3245 10.8881 0 -1 0
446 2 H 2.43152 18.1517 11.5428 0 0 0
447 2 H -1.37513 20.4242 10.8883 0 0 0
448 2 H -0.0263854 25.0526 11.5435 0 0 0
449 2 H 1.08187 27.325 10.8882 0 -1 0
454 2 H 7.34693 18.1521 11.5432 0 0 0
455 2 H 3.53995 20.4241 10.888 0 0 0
456 2 H 4.8885 25.0522 11.5439 0 0 0
481 1 C 8.67604 15.8975 14.5533 0 0 0
482 1 C 7.45792 15.6262 15.476 0 0 0
483 1 C 7.1202 14.1222 15.7232 0 0 0
491 2 H 8.5516 15.3855 13.5672 0 0 0
493 2 H 7.60601 16.1443 16.4578 0 0 0
494 2 H 6.56275 16.1136 15.0147 0 0 0
495 2 H 6.02775 14.0421 15.949 0 0 0
497 2 H 7.635 13.9216 17.848 0 0 0
508 4 O 9.46513 13.8757 19.5346 0 0 0
515 1 C 7.70864 14.2336 25.5527 0 0 0
516 1 C 7.24923 14.1646 27.0294 0 0 0
530 2 H 7.67613 15.2933 25.1941 0 0 0
532 2 H 6.20789 14.5532 27.1284 0 0 0
533 2 H 7.89285 14.7716 27.7085 0 0 0
162 4 O 13.2052 4.548 11.3775 0 0 0
180 4 O 10.7467 11.4486 11.3775 0 0 0
217 5 Si 14.7557 5.40078 5.83746 0 0 0
218 5 Si 16.1303 1.27915 6.48826 0 0 0
219 5 Si 18.6422 2.51221 5 0 0 0
220 4 O 15.6123 4.69016 7.12107 0 0 0
221 4 O 13.6067 6.50844 6.45357 0 0 0
222 4 O 17.6919 1.78395 6.22768 0 0 0
223 4 O 13.7923 4.11933 5.15665 0 0 0
224 4 O 15.1869 1.86105 5.21008 0 0 0
225 4 O 15.6175 1.79138 7.98674 0 0 0
226 5 Si 14.851 1.06427 9.29504 0 0 0
227 5 Si 13.8082 3.88764 9.95375 0 0 0
228 5 Si 16.2772 5.10111 8.58281 0 0 0
229 4 O 15.9963 0.538186 10.3701 0 0 0
230 4 O 18.7924 2.23238 9.98881 0 0 0
231 4 O 15.3593 4.501 9.85701 0 0 0
232 4 O 16.3042 6.74986 8.75341 0 0 0
233 4 O 17.7861 4.40159 8.66809 0 0 0
234 4 O 18.12 4.54846 11.3787 0 0 0
235 5 Si 12.2981 12.3015 5.83808 0 0 0
236 5 Si 13.6736 8.17884 6.48837 0 0 0
237 5 Si 16.1847 9.41269 5 0 0 0
238 4 O 13.1549 11.5905 7.12138 0 0 0
239 4 O 11.1497 13.4095 6.45452 0 0 0
240 4 O 15.2348 8.68417 6.22682 0 0 0
241 4 O 11.3348 11.0198 5.15665 0 0 0
242 4 O 12.7294 8.76153 5.21008 0 0 0
243 4 O 13.1609 8.69168 7.98714 0 0 0
244 5 Si 12.394 7.96384 9.29498 0 0 0
245 5 Si 11.3511 10.7876 9.95354 0 0 0
246 5 Si 13.8204 12.0014 8.58261 0 0 0
247 4 O 13.5396 7.43887 10.371 0 0 0
248 4 O 16.335 9.13314 9.98872 0 0 0
249 4 O 12.9026 11.4009 9.85672 0 0 0
250 4 O 13.8466 13.65 8.75382 0 0 0
251 4 O 15.3287 11.3024 8.66847 0 0 0
252 4 O 15.663 11.449 11.3786 0 0 0
289 5 Si 19.6705 5.40078 5.83807 0 0 0
290 5 Si 21.045 1.27918 6.48817 0 0 0
291 5 Si 23.5572 2.51221 5 0 0 0
292 4 O 20.527 4.68985 7.12147 0 0 0
293 4 O 18.5217 6.50884 6.45458 0 0 0
294 4 O 22.6067 1.78367 6.22749 0 0 0
295 4 O 18.7073 4.11933 5.15665 0 0 0
296 4 O 20.1019 1.86105 5.21008 0 0 0
297 4 O 20.5321 1.79162 7.98692 0 0 0
298 5 Si 19.7661 1.06333 9.29472 0 0 0
299 5 Si 18.7231 3.8871 9.95412 0 0 0
300 5 Si 21.1925 5.10143 8.58286 0 0 0
301 4 O 20.9118 0.538127 10.3712 0 0 0
302 4 O 23.7075 2.23236 9.98785 0 0 0
303 4 O 20.2748 4.50117 9.85726 0 0 0
304 4 O 21.2199 6.75048 8.75359 0 0 0
305 4 O 22.7007 4.40178 8.66857 0 0 0
306 4 O 23.0349 4.54799 11.3782 0 0 0
307 5 Si 17.2129 12.3019 5.83718 0 0 0
308 5 Si 18.5877 8.17943 6.48807 0 0 0
309 5 Si 21.0997 9.41269 5 0 0 0
310 4 O 18.07 11.5912 7.12061 0 0 0
311 4 O 16.0646 13.4094 6.45429 0 0 0
312 4 O 20.1492 8.68412 6.22773 0 0 0
313 4 O 16.2498 11.0198 5.15665 0 0 0
314 4 O 17.6444 8.76153 5.21008 0 0 0
315 4 O 18.075 8.69178 7.98657 0 0 0
316 5 Si 17.3085 7.96433 9.2946 0 0 0
317 5 Si 16.2663 10.7878 9.95407 0 0 0
318 5 Si 18.7357 12.0013 8.58231 0 0 0
319 4 O 18.4537 7.43849 10.3708 0 0 0
320 4 O 21.2502 9.13359 9.98844 0 0 0
321 4 O 17.8178 11.4011 9.85668 0 0 0
322 4 O 18.762 13.6502 8.75373 0 0 0
323 4 O 20.2439 11.3017 8.66875 0 0 0
324 4 O 20.5778 11.4482 11.3781 0 0 0
361 5 Si 24.5855 5.40159 5.83748 0 0 0
362 5 Si 25.9603 1.27923 6.48787 0 0 0
363 5 Si 28.4722 2.51221 5 0 0 0
364 4 O 25.4423 4.69079 7.12074 0 0 0
365 4 O 23.437 6.50932 6.45466 0 0 0
366 4 O 27.5222 1.78385 6.22813 0 0 0
367 4 O 23.6223 4.11933 5.15665 0 0 0
368 4 O 25.0169 1.86105 5.21008 0 0 0
369 4 O 25.4471 1.7914 7.9866 0 0 0
370 5 Si 24.6812 1.06315 9.29464 0 0 0
371 5 Si 23.6381 3.887 9.95379 0 0 0
372 5 Si 26.1079 5.10048 8.58261 0 0 0
373 4 O 25.8267 0.53864 10.3709 0 0 0
374 4 O 28.623 2.23283 9.98829 0 0 0
375 4 O 25.1898 4.5008 9.85693 0 0 0
376 4 O 26.1349 6.74933 8.75415 0 0 0
377 4 O 27.6159 4.40067 8.66855 0 0 0
379 5 Si 22.128 12.302 5.83855 0 0 0
380 5 Si 23.5028 8.1797 6.48837 0 0 0
381 5 Si 26.0147 9.41269 5 0 0 0
382 4 O 22.985 11.5904 7.12135 0 0 0
383 4 O 20.9797 13.4094 6.45519 0 0 0
384 4 O 25.0641 8.68433 6.22796 0 0 0
385 4 O 21.1648 11.0198 5.15665 0 0 0
386 4 O 22.5594 8.76153 5.21008 0 0 0
387 4 O 22.9902 8.69165 7.98714 0 0 0
388 5 Si 22.2237 7.96454 9.29504 0 0 0
389 5 Si 21.1816 10.788 9.95408 0 0 0
390 5 Si 23.6504 12.0012 8.58258 0 0 0
391 4 O 23.3686 7.43908 10.371 0 0 0
392 4 O 26.1651 9.13344 9.98777 0 0 0
393 4 O 22.7326 11.4017 9.85667 0 0 0
394 4 O 23.6772 13.65 8.75369 0 0 0
395 4 O 25.1584 11.3028 8.66854 0 0 0
458 2 H 17.176 4.3513 11.5422 0 0 0
459 2 H 13.3713 6.62306 10.8886 0 0 0
460 2 H 14.7201 11.2514 11.5439 0 0 0
461 2 H 10.9122 13.5235 10.8879 0 0 0
466 2 H 22.0911 4.35091 11.5423 0 0 0
467 2 H 18.285 6.62345 10.8882 0 0 0
468 2 H 19.634 11.2517 11.5426 0 0 0
469 2 H 15.8271 13.5238 10.888 0 0 0
474 2 H 27.0059 4.35078 11.5421 0 0 0
475 2 H 23.2003 6.62297 10.8881 0 0 0
476 2 H 24.5499 11.2513 11.5436 0 0 0
477 2 H 20.7425 13.5236 10.8883 0 0 0
487 1 C 11.6241 12.0746 17.4008 0 0 0
488 1 C 11.898 11.4118 16.029 0 0 0
502 2 H 12.1714 13.0484 17.4681 0 0 0
504 2 H 12.9911 11.2281 15.9005 0 0 0
505 2 H 11.5674 12.0453 15.1725 0 0 0
506 2 H 11.3765 10.4276 15.9435 0 0 0
503 2 H 12.0302 11.4246 18.2118 0 0 0
512 1 C 11.6734 13.7493 25.947 0 0 0
523 2 H 13.6595 13.6676 26.8041 0 0 0
526 2 H 11.5482 12.6574 26.1651 0 0 0
198 4 O 8.29014 18.3494 11.378 0 0 0
216 4 O 5.83211 25.2496 11.378 0 0 0
253 5 Si 9.84079 19.2021 5.83761 0 0 0
254 5 Si 11.2153 15.08 6.48817 0 0 0
255 5 Si 13.7273 16.3132 5 0 0 0
256 4 O 10.6967 18.4912 7.12124 0 0 0
257 4 O 8.69236 20.3098 6.45402 0 0 0
258 4 O 12.7767 15.5844 6.22771 0 0 0
259 4 O 8.87737 17.9203 5.15665 0 0 0
260 4 O 10.272 15.662 5.21008 0 0 0
261 4 O 10.7023 15.5922 7.98695 0 0 0
262 5 Si 9.93597 14.8649 9.2947 0 0 0
263 5 Si 8.89351 17.6882 9.95412 0 0 0
264 5 Si 11.3629 18.9017 8.58253 0 0 0
265 4 O 11.0812 14.3387 10.3708 0 0 0
266 4 O 13.8779 16.0337 9.98836 0 0 0
267 4 O 10.4445 18.3024 9.85703 0 0 0
268 4 O 11.3893 20.5506 8.75301 0 0 0
269 4 O 12.8712 18.2025 8.66857 0 0 0
270 4 O 13.2051 18.3487 11.3782 0 0 0
271 5 Si 7.38326 26.1026 5.83875 0 0 0
272 5 Si 8.75772 21.9805 6.48782 0 0 0
273 5 Si 11.2698 23.2137 5 0 0 0
274 4 O 8.23916 25.3916 7.12161 0 0 0
275 4 O 6.23434 27.2105 6.45473 0 0 0
276 4 O 10.3194 22.4854 6.22779 0 0 0
277 4 O 6.41988 24.8208 5.15665 0 0 0
278 4 O 7.81447 22.5625 5.21008 0 0 0
279 4 O 8.24466 22.4931 7.98674 0 0 0
280 5 Si 7.47836 21.7651 9.29492 0 0 0
281 5 Si 6.43593 24.5888 9.95436 0 0 0
282 5 Si 8.90515 25.802 8.58275 0 0 0
283 4 O 8.62429 21.2395 10.3709 0 0 0
284 4 O 11.4204 22.9342 9.98843 0 0 0
285 4 O 7.9869 25.2027 9.85671 0 0 0
286 4 O 8.93216 27.4505 8.75388 0 0 0
287 4 O 10.4132 25.1024 8.66908 0 0 0
288 4 O 10.7473 25.2489 11.3786 0 0 0
325 5 Si 14.756 19.2018 5.83805 0 0 0
326 5 Si 16.1302 15.0798 6.48822 0 0 0
327 5 Si 18.6422 16.3132 5 0 0 0
328 4 O 15.6122 18.4914 7.12145 0 0 0
329 4 O 13.6071 20.3096 6.45403 0 0 0
330 4 O 17.6918 15.5847 6.22833 0 0 0
331 4 O 13.7923 17.9203 5.15665 0 0 0
332 4 O 15.1869 15.662 5.21008 0 0 0
333 4 O 15.6168 15.5924 7.98657 0 0 0
334 5 Si 14.8507 14.8646 9.29462 0 0 0
335 5 Si 13.8084 17.6882 9.95443 0 0 0
336 5 Si 16.2776 18.9017 8.58277 0 0 0
337 4 O 15.9965 14.3386 10.3702 0 0 0
338 4 O 18.7925 16.0337 9.98893 0 0 0
339 4 O 15.3597 18.3016 9.85702 0 0 0
340 4 O 16.3046 20.5505 8.75357 0 0 0
341 4 O 17.7861 18.2026 8.66869 0 0 0
342 4 O 18.1199 18.3488 11.3791 0 0 0
343 5 Si 12.2979 26.1025 5.83815 0 0 0
344 5 Si 13.673 21.9804 6.48748 0 0 0
345 5 Si 16.1847 23.2137 5 0 0 0
346 4 O 13.1546 25.3916 7.1215 0 0 0
347 4 O 11.1494 27.2104 6.455 0 0 0
348 4 O 15.2347 22.4852 6.22737 0 0 0
349 4 O 11.3348 24.8208 5.15665 0 0 0
350 4 O 12.7294 22.5625 5.21008 0 0 0
351 4 O 13.1606 22.4928 7.98687 0 0 0
352 5 Si 12.3938 21.765 9.29469 0 0 0
353 5 Si 11.3508 24.5887 9.95418 0 0 0
354 5 Si 13.8202 25.8017 8.58286 0 0 0
355 4 O 13.5397 21.2387 10.3702 0 0 0
356 4 O 16.335 22.9342 9.9888 0 0 0
357 4 O 12.902 25.2024 9.85725 0 0 0
358 4 O 13.8472 27.4505 8.75372 0 0 0
359 4 O 15.3282 25.1027 8.6691 0 0 0
360 4 O 15.6625 25.2495 11.3786 0 0 0
397 5 Si 19.6702 19.202 5.83837 0 0 0
398 5 Si 21.0456 15.08 6.48797 0 0 0
399 5 Si 23.5572 16.3132 5 0 0 0
400 4 O 20.5269 18.491 7.12144 0 0 0
401 4 O 18.522 20.3101 6.45442 0 0 0
402 4 O 22.607 15.5846 6.22744 0 0 0
403 4 O 18.7073 17.9203 5.15665 0 0 0
404 4 O 20.1019 15.662 5.21008 0 0 0
405 4 O 20.5329 15.5924 7.9866 0 0 0
406 5 Si 19.7663 14.8651 9.29483 0 0 0
407 5 Si 18.7232 17.6883 9.95461 0 0 0
408 5 Si 21.1927 18.9017 8.58301 0 0 0
409 4 O 20.9119 14.3389 10.3709 0 0 0
410 4 O 23.7078 16.0338 9.98826 0 0 0
411 4 O 20.2747 18.3021 9.85744 0 0 0
412 4 O 21.2198 20.551 8.75379 0 0 0
413 4 O 22.7008 18.2021 8.66902 0 0 0
415 5 Si 17.213 26.1021 5.83842 0 0 0
416 5 Si 18.5883 21.9805 6.4882 0 0 0
417 5 Si 21.0997 23.2137 5 0 0 0
418 4 O 18.0692 25.3913 7.12188 0 0 0
419 4 O 16.0642 27.2103 6.4543 0 0 0
420 4 O 20.1495 22.4855 6.22766 0 0 0
421 4 O 16.2498 24.8208 5.15665 0 0 0
422 4 O 17.6444 22.5625 5.21008 0 0 0
423 4 O 18.0748 22.4929 7.98681 0 0 0
424 5 Si 17.3084 21.7655 9.29494 0 0 0
425 5 Si 16.2658 24.5888 9.95452 0 0 0
426 5 Si 18.7353 25.8021 8.58294 0 0 0
427 4 O 18.4544 21.2393 10.3706 0 0 0
428 4 O 21.2505 22.9344 9.9881 0 0 0
429 4 O 17.8173 25.2027 9.85671 0 0 0
430 4 O 18.762 27.4508 8.75352 0 0 0
431 4 O 20.2432 25.1033 8.66864 0 0 0
457 2 H 5.99679 27.3244 10.8879 0 -1 0
462 2 H 12.2611 18.1519 11.5428 0 0 0
463 2 H 8.45458 20.424 10.888 0 0 0
464 2 H 9.80382 25.0526 11.5435 0 0 0
465 2 H 10.9126 27.325 10.8884 0 -1 0
470 2 H 17.1767 18.1515 11.5438 0 0 0
471 2 H 13.3692 20.4239 10.8885 0 0 0
472 2 H 14.7189 25.0529 11.5438 0 0 0
473 2 H 15.8278 27.3244 10.888 0 -1 0
478 2 H 22.0908 18.1515 11.5427 0 0 0
479 2 H 18.2846 20.4244 10.8883 0 0 0
480 2 H 19.6342 25.0522 11.5427 0 0 0
490 2 H 8.78411 16.9913 14.3527 0 0 0
492 2 H 9.6371 15.5423 14.9935 0 0 0
499 2 H 9.87764 14.3302 16.8856 0 0 0
509 1 C 12.2819 16.8383 27.4787 0 0 0
510 1 C 13.1681 15.7972 26.7447 0 0 0
511 1 C 12.7483 14.3045 26.9269 0 0 0
513 1 C 10.2794 14.4347 26.0104 0 0 0
518 2 H 12.71 17.8647 27.375 0 0 0
519 2 H 12.2191 16.6089 28.5711 0 0 0
520 2 H 11.2394 16.8704 27.085 0 0 0
521 2 H 13.2138 16.0434 25.653 0 0 0
522 2 H 14.2157 15.9129 27.1198 0 0 0
524 2 H 12.4107 14.1425 27.9836 0 0 0
525 2 H 12.0583 13.8139 24.9013 0 0 0
527 2 H 10.3353 15.4586 25.5697 0 0 0
528 2 H 9.98867 14.5601 27.0813 0 0 0
536 4 O 10.3103 14.1819 23.1692 0 0 0
ITEM: TIMESTEP
100000
ITEM: NUMBER OF ATOMS
537
ITEM: BOX BOUNDS xy xz yz pp pp ff
-9.8299323600000008e+00 2.9489797079999999e+01 -9.8299323600000008e+00
0.0000000000000000e+00 2.7601942391000001e+01 0.0000000000000000e+00
0.0000000000000000e+00 3.6159325252999999e+01 0.0000000000000000e+00
ITEM: ATOMS id type element x y z ix iy iz
1 5 Si 0.0107922 5.40113 5.83817 0 0 0
2 5 Si 1.38607 1.27865 6.4883 0 0 0
3 5 Si 3.89733 2.51221 5 0 0 0
4 4 O 0.867075 4.68982 7.12125 0 0 0
5 4 O -1.13785 6.50901 6.45469 0 0 0
6 4 O 2.94713 1.78388 6.22748 0 0 0
7 4 O -0.952567 4.11933 5.15665 0 0 0
8 4 O 0.442021 1.86105 5.21008 0 0 0
9 4 O 0.873461 1.79135 7.98682 0 0 0
10 5 Si 0.106333 1.06354 9.29484 0 0 0
11 5 Si -0.936148 3.88733 9.95414 0 0 0
12 5 Si 1.5328 5.10101 8.58267 0 0 0
13 4 O 1.2519 0.53822 10.3708 0 0 0
14 4 O 4.04756 2.23288 9.98862 0 0 0
15 4 O 0.615217 4.50128 9.85687 0 0 0
16 4 O 1.55924 6.74966 8.75312 0 0 0
17 4 O 3.04078 4.40192 8.66853 0 0 0
18 4 O 3.37544 4.54793 11.3781 0 0 0
19 5 Si -2.44719 12.3017 5.83776 0 0 0
20 5 Si -1.07171 8.1796 6.48794 0 0 0
21 5 Si 1.43985 9.41269 5 0 0 0
22 4 O -1.58977 11.5914 7.12085 0 0 0
23 4 O -3.59505 13.4093 6.45441 0 0 0
24 4 O 0.489697 8.68453 6.22774 0 0 0
25 4 O -3.41005 11.0198 5.15665 0 0 0
26 4 O -2.01546 8.76153 5.21008 0 0 0
27 4 O -1.58429 8.69198 7.98684 0 0 0
28 5 Si -2.35071 7.96432 9.29492 0 0 0
29 5 Si -3.39387 10.7881 9.95343 0 0 0
30 5 Si -0.924329 12.0009 8.58262 0 0 0
31 4 O -1.20554 7.43922 10.3712 0 0 0
32 4 O 1.59046 9.13369 9.98802 0 0 0
33 4 O -1.84248 11.4013 9.85711 0 0 0
34 4 O -0.89815 13.6499 8.75399 0 0 0
35 4 O 0.583795 11.3015 8.66807 0 0 0
36 4 O 0.917505 11.4486 11.3777 0 0 0
73 5 Si 4.92561 5.40104 5.83762 0 0 0
74 5 Si 6.30066 1.27925 6.48837 0 0 0
75 5 Si 8.8123 2.51221 5 0 0 0
76 4 O 5.78203 4.69005 7.12116 0 0 0
77 4 O 3.77736 6.50846 6.45466 0 0 0
78 4 O 7.86214 1.78439 6.22758 0 0 0
79 4 O 3.9624 4.11933 5.15665 0 0 0
80 4 O 5.35699 1.86105 5.21008 0 0 0
81 4 O 5.78714 1.79172 7.98671 0 0 0
82 5 Si 5.02097 1.06397 9.29511 0 0 0
83 5 Si 3.97823 3.88735 9.95366 0 0 0
84 5 Si 6.44797 5.10064 8.5827 0 0 0
85 4 O 6.16679 0.537717 10.3706 0 0 0
86 4 O 8.96265 2.23297 9.98799 0 0 0
87 4 O 5.52971 4.50119 9.85706 0 0 0
88 4 O 6.47456 6.74963 8.75361 0 0 0
89 4 O 7.95633 4.40149 8.66913 0 0 0
90 4 O 8.29047 4.54781 11.3787 0 0 0
91 5 Si 2.46834 12.302 5.83846 0 0 0
92 5 Si 3.84297 8.17941 6.48826 0 0 0
93 5 Si 6.35482 9.41269 5 0 0 0
94 4 O 3.32503 11.5909 7.12137 0 0 0
95 4 O 1.31951 13.409 6.45595 0 0 0
96 4 O 5.40467 8.68407 6.22733 0 0 0
97 4 O 1.50492 11.0198 5.15665 0 0 0
98 4 O 2.8995 8.76153 5.21008 0 0 0
99 4 O 3.32994 8.69151 7.9871 0 0 0
100 5 Si 2.56339 7.9639 9.29463 0 0 0
101 5 Si 1.52141 10.7879 9.95374 0 0 0
102 5 Si 3.99045 12.0012 8.58253 0 0 0
103 4 O 3.7087 7.43844 10.3703 0 0 0
104 4 O 6.5051 9.13363 9.98785 0 0 0
105 4 O 3.07203 11.4015 9.85696 0 0 0
106 4 O 4.01787 13.6498 8.75401 0 0 0
107 4 O 5.49843 11.3019 8.66833 0 0 0
108 4 O 5.83238 11.4488 11.378 0 0 0
145 5 Si 9.84093 5.40119 5.83848 0 0 0
146 5 Si 11.215 1.27945 6.48766 0 0 0
147 5 Si 13.7273 2.51221 5 0 0 0
148 4 O 10.697 4.69073 7.1214 0 0 0
149 4 O 8.69188 6.50904 6.45438 0 0 0
150 4 O 12.7771 1.78388 6.22765 0 0 0
151 4 O 8.87737 4.11933 5.15665 0 0 0
152 4 O 10.272 1.86105 5.21008 0 0 0
153 4 O 10.7023 1.79139 7.98661 0 0 0
154 5 Si 9.93606 1.06409 9.29477 0 0 0
155 5 Si 8.894 3.88753 9.9546 0 0 0
156 5 Si 11.3626 5.10093 8.58284 0 0 0
157 4 O 11.0816 0.538007 10.3701 0 0 0
158 4 O 13.8778 2.23355 9.98781 0 0 0
159 4 O 10.4446 4.50153 9.85753 0 0 0
160 4 O 11.3895 6.74963 8.75396 0 0 0
161 4 O 12.8708 4.40231 8.66902 0 0 0
163 5 Si 7.38298 12.302 5.83754 0 0 0
164 5 Si 8.75835 8.17994 6.48772 0 0 0
165 5 Si 11.2698 9.41269 5 0 0 0
166 4 O 8.23977 11.591 7.12067 0 0 0
167 4 O 6.23441 13.4094 6.45406 0 0 0
168 4 O 10.3199 8.68479 6.22756 0 0 0
169 4 O 6.41988 11.0198 5.15665 0 0 0
170 4 O 7.81447 8.76153 5.21008 0 0 0
171 4 O 8.24532 8.69231 7.98664 0 0 0
172 5 Si 7.47884 7.96439 9.29488 0 0 0
173 5 Si 6.43616 10.7879 9.95362 0 0 0
174 5 Si 8.90542 12.0012 8.58213 0 0 0
175 4 O 8.6243 7.43919 10.371 0 0 0
176 4 O 11.4202 9.13318 9.9884 0 0 0
177 4 O 7.98757 11.401 9.85681 0 0 0
178 4 O 8.93217 13.6503 8.75357 0 0 0
179 4 O 10.4138 11.3018 8.66764 0 0 0
378 4 O -1.54029 4.54807 11.3779 1 0 0
396 4 O -3.99672 11.4487 11.3778 1 0 0
434 2 H 2.4322 4.35102 11.5434 0 0 0
435 2 H -1.3749 6.62271 10.8878 0 0 0
436 2 H -0.0261351 11.252 11.542 0 0 0
437 2 H -3.83211 13.5235 10.8882 0 0 0
442 2 H 7.34691 4.35148 11.5436 0 0 0
443 2 H 3.53962 6.62336 10.8884 0 0 0
444 2 H 4.88955 11.2514 11.5429 0 0 0
445 2 H 1.08268 13.5237 10.8885 0 0 0
450 2 H 12.2619 4.35118 11.543 0 0 0
451 2 H 8.45511 6.62307 10.8878 0 0 0
452 2 H 9.80286 11.2513 11.541 0 0 0
453 2 H 5.9986 13.5235 10.8883 0 0 0
484 1 C 9.34193 12.9469 14.2445 0 0 0
483 1 C 8.02646 13.1802 13.4449 0 0 0
497 2 H 9.09294 12.7302 15.3104 0 0 0
496 2 H 8.26509 13.2906 12.3552 0 0 0
498 2 H 9.82169 12.0172 13.8425 0 0 0
495 2 H 7.42666 12.2396 13.5252 0 0 0
532 2 H 10.2775 8.86937 23.8105 0 0 0
531 2 H 10.8079 9.7002 21.5013 0 0 0
530 2 H 10.1895 11.0469 22.5085 0 0 0
515 1 C 11.0527 10.3468 22.3774 0 0 0
516 1 C 11.2072 9.46196 23.6383 0 0 0
37 5 Si -4.90393 19.2026 5.83843 0 0 0
38 5 Si -3.5291 15.0795 6.48858 0 0 0
39 5 Si -1.01763 16.3132 5 0 0 0
40 4 O -4.04722 18.4912 7.12105 0 0 0
41 4 O -6.0527 20.31 6.45511 0 0 0
42 4 O -1.96775 15.5845 6.22751 0 0 0
43 4 O -5.86753 17.9203 5.15665 0 0 0
44 4 O -4.47294 15.662 5.21008 0 0 0
45 4 O -4.04233 15.5922 7.98701 0 0 0
46 5 Si -4.80911 14.8643 9.29486 0 0 0
47 5 Si -5.85111 17.6884 9.95409 0 0 0
48 5 Si -3.38212 18.9015 8.58226 0 0 0
49 4 O -3.66348 14.3393 10.3706 0 0 0
50 4 O -0.867535 16.0336 9.98963 0 0 0
51 4 O -4.30012 18.3023 9.85657 0 0 0
52 4 O -3.35515 20.5504 8.75371 0 0 0
53 4 O -1.87415 18.2023 8.66908 0 0 0
54 4 O -1.53925 18.3489 11.3792 0 0 0
55 5 Si -7.3617 26.1028 5.8374 0 0 0
56 5 Si -5.98688 21.9804 6.48815 0 0 0
57 5 Si -3.47512 23.2137 5 0 0 0
58 4 O -6.50504 25.3918 7.12048 0 0 0
59 4 O -8.51005 27.2102 6.45398 0 0 0
60 4 O -4.42552 22.4852 6.22764 0 0 0
61 4 O -8.32502 24.8208 5.15665 0 0 0
62 4 O -6.93043 22.5625 5.21008 0 0 0
63 4 O -6.49944 22.4925 7.98685 0 0 0
64 5 Si -7.26617 21.7655 9.29489 0 0 0
65 5 Si -8.30923 24.5887 9.95384 0 0 0
66 5 Si -5.83981 25.8021 8.58259 0 0 0
67 4 O -6.12088 21.2397 10.3708 0 0 0
68 4 O -3.32473 22.9332 9.98883 0 0 0
69 4 O -6.75779 25.202 9.85696 0 0 0
70 4 O -5.81288 27.4506 8.75355 0 0 0
71 4 O -4.33109 25.1022 8.66817 0 0 0
72 4 O -3.99738 25.2496 11.3788 0 0 0
109 5 Si 0.0108661 19.202 5.83813 0 0 0
110 5 Si 1.38606 15.0801 6.48789 0 0 0
111 5 Si 3.89733 16.3132 5 0 0 0
112 4 O 0.867209 18.4911 7.12164 0 0 0
113 4 O -1.13721 20.3098 6.45463 0 0 0
114 4 O 2.94713 15.5856 6.22714 0 0 0
115 4 O -0.952567 17.9203 5.15665 0 0 0
116 4 O 0.442021 15.662 5.21008 0 0 0
117 4 O 0.872268 15.593 7.98673 0 0 0
118 5 Si 0.106406 14.8647 9.29525 0 0 0
119 5 Si -0.936318 17.6886 9.9545 0 0 0
120 5 Si 1.53284 18.9018 8.58274 0 0 0
121 4 O 1.25305 14.3388 10.3703 0 0 0
122 4 O 4.04732 16.0336 9.98872 0 0 0
123 4 O 0.614997 18.3021 9.85706 0 0 0
124 4 O 1.55965 20.5507 8.75363 0 0 0
125 4 O 3.04089 18.2024 8.66876 0 0 0
126 4 O 3.37515 18.3489 11.3784 0 0 0
127 5 Si -2.44686 26.1026 5.83809 0 0 0
128 5 Si -1.07224 21.9804 6.48823 0 0 0
129 5 Si 1.43985 23.2137 5 0 0 0
130 4 O -1.59076 25.391 7.12146 0 0 0
131 4 O -3.59553 27.2104 6.45501 0 0 0
132 4 O 0.489112 22.4852 6.22822 0 0 0
133 4 O -3.41005 24.8208 5.15665 0 0 0
134 4 O -2.01546 22.5625 5.21008 0 0 0
135 4 O -1.5849 22.4928 7.98704 0 0 0
136 5 Si -2.35127 21.7647 9.29445 0 0 0
137 5 Si -3.39433 24.5882 9.95469 0 0 0
138 5 Si -0.924899 25.8025 8.58272 0 0 0
139 4 O -1.20599 21.2393 10.3709 0 0 0
140 4 O 1.59022 22.934 9.98877 0 0 0
141 4 O -1.84255 25.202 9.85695 0 0 0
142 4 O -0.897709 27.451 8.75363 0 0 0
143 4 O 0.583637 25.103 8.66846 0 0 0
144 4 O 0.917399 25.2496 11.3788 0 0 0
181 5 Si 4.92574 19.2022 5.83732 0 0 0
182 5 Si 6.30096 15.0798 6.48864 0 0 0
183 5 Si 8.8123 16.3132 5 0 0 0
184 4 O 5.78239 18.4914 7.12102 0 0 0
185 4 O 3.77739 20.3099 6.45425 0 0 0
186 4 O 7.86219 15.5847 6.22751 0 0 0
187 4 O 3.9624 17.9203 5.15665 0 0 0
188 4 O 5.35699 15.662 5.21008 0 0 0
189 4 O 5.78774 15.5923 7.98695 0 0 0
190 5 Si 5.02142 14.8646 9.29539 0 0 0
191 5 Si 3.97853 17.6881 9.9542 0 0 0
192 5 Si 6.44801 18.9016 8.58245 0 0 0
193 4 O 6.16695 14.3395 10.3716 0 0 0
194 4 O 8.96282 16.0336 9.9887 0 0 0
195 4 O 5.52974 18.3016 9.85681 0 0 0
196 4 O 6.47426 20.5503 8.75366 0 0 0
197 4 O 7.9561 18.2022 8.66846 0 0 0
199 5 Si 2.46808 26.1025 5.83816 0 0 0
200 5 Si 3.84314 21.9804 6.48834 0 0 0
201 5 Si 6.35482 23.2137 5 0 0 0
202 4 O 3.32417 25.3915 7.12105 0 0 0
203 4 O 1.31936 27.2104 6.45423 0 0 0
204 4 O 5.40436 22.4855 6.22782 0 0 0
205 4 O 1.50492 24.8208 5.15665 0 0 0
206 4 O 2.8995 22.5625 5.21008 0 0 0
207 4 O 3.33 22.4932 7.98686 0 0 0
208 5 Si 2.56387 21.765 9.2948 0 0 0
209 5 Si 1.52057 24.5884 9.95445 0 0 0
210 5 Si 3.99003 25.8029 8.58238 0 0 0
211 4 O 3.70922 21.2397 10.3703 0 0 0
212 4 O 6.5047 22.9341 9.98861 0 0 0
213 4 O 3.07202 25.2025 9.85695 0 0 0
214 4 O 4.01689 27.4512 8.75369 0 0 0
215 4 O 5.49849 25.103 8.6687 0 0 0
414 4 O -6.45517 18.3489 11.3779 1 0 0
432 4 O -8.91261 25.2493 11.3776 1 0 0
433 2 H -8.74705 27.3244 10.888 0 -1 0
438 2 H -2.4828 18.1519 11.5443 0 0 0