
     Program PWSCF v.7.3 starts on 19Mar2024 at 15:25:58 

     This program is part of the open-source Quantum ESPRESSO suite
     for quantum simulation of materials; please cite
         "P. Giannozzi et al., J. Phys.:Condens. Matter 21 395502 (2009);
         "P. Giannozzi et al., J. Phys.:Condens. Matter 29 465901 (2017);
         "P. Giannozzi et al., J. Chem. Phys. 152 154105 (2020);
          URL http://www.quantum-espresso.org", 
     in publications or presentations arising from this work. More details at
     http://www.quantum-espresso.org/quote

     Parallel version (MPI & OpenMP), running on      36 processor cores
     Number of MPI processes:                36
     Threads/MPI process:                     1

     MPI processes distributed on     1 nodes
     555307 MiB available memory on the printing compute node when the environment starts
 
     Waiting for input...
     Reading input from standard input
Warning: card &CELL ignored
Warning: card / ignored

     Current dimensions of program PWSCF are:
     Max number of different atomic species (ntypx) = 10
     Max number of k-points (npk) =  40000
     Max angular momentum in pseudopotentials (lmaxx) =  4
     file Mo.pbe-spn-kjpaw_psl.1.0.0.UPF: wavefunction(s)  4S 4D renormalized
     file S.pbe-n-kjpaw_psl.1.0.0.UPF: wavefunction(s)  3S 3P renormalized
     file Pd.pbe-spn-kjpaw_psl.1.0.0.UPF: wavefunction(s)  4S 5S 4D renormalized
     file Pt.pbe-spfn-kjpaw_psl.1.0.0.UPF: wavefunction(s)  5P 4F renormalized
 
     R & G space division:  proc/nbgrp/npool/nimage =      36
     Subspace diagonalization in iterative solution of the eigenvalue problem:
     one sub-group per band group will be used
     scalapack distributed-memory algorithm (size of sub-group:  6*  6 procs)

 
     Parallelization info
     --------------------
     sticks:   dense  smooth     PW     G-vecs:    dense   smooth      PW
     Min         585     334     89               198743    85850   11735
     Max         586     335     90               198750    85861   11748
     Sum       21073   12049   3205              7154885  3090769  422587
 
     Using Slab Decomposition
 


     bravais-lattice index     =            0
     lattice parameter (alat)  =      23.8199  a.u.
     unit-cell volume          =   33861.0370 (a.u.)^3
     number of atoms/cell      =          194
     number of atomic types    =            4
     number of electrons       =      1714.00
     number of Kohn-Sham states=         1028
     kinetic-energy cutoff     =      77.0000  Ry
     charge density cutoff     =     539.0000  Ry
     scf convergence threshold =      1.0E-06
     mixing beta               =       0.2000
     number of iterations used =            8  plain     mixing
     energy convergence thresh.=      1.0E-04
     force convergence thresh. =      1.0E-03
     Exchange-correlation= SLA  PW   PBX  PBC
                           (   1   4   3   4   0   0   0)
     nstep                     =         1000


     Effective Screening Medium Method
     =================================
     Boundary Conditions: Vacuum-Slab-Vacuum
     total charge in unit cell        =   0.0000
     grid points for fit at edges     =        4 
 

     celldm(1)=  23.819920  celldm(2)=   0.000000  celldm(3)=   0.000000
     celldm(4)=   0.000000  celldm(5)=   0.000000  celldm(6)=   0.000000

     crystal axes: (cart. coord. in units of alat)
               a(1) = (   1.000000   0.000000   0.000000 )  
               a(2) = (  -0.499999   0.866026   0.000000 )  
               a(3) = (   0.000000   0.000000   2.893000 )  

     reciprocal axes: (cart. coord. in units 2 pi/alat)
               b(1) = (  1.000000  0.577349  0.000000 )  
               b(2) = (  0.000000  1.154700  0.000000 )  
               b(3) = (  0.000000  0.000000  0.345662 )  


     PseudoPot. # 1 for Mo read from file:
     ./pseudo/Mo.pbe-spn-kjpaw_psl.1.0.0.UPF
     MD5 check sum: 317bf72632116215fd98f72de1686f13
     Pseudo is Projector augmented-wave + core cor, Zval = 14.0
     Generated using 'atomic' code by A. Dal Corso  v.7.2
     Shape of augmentation charge: PSQ
     Using radial grid of 1229 points,  6 beta functions with: 
                l(1) =   0
                l(2) =   0
                l(3) =   1
                l(4) =   1
                l(5) =   2
                l(6) =   2
     Q(r) pseudized with 0 coefficients 


     PseudoPot. # 2 for S  read from file:
     ./pseudo/S.pbe-n-kjpaw_psl.1.0.0.UPF
     MD5 check sum: 8b7b5302570d38d5e87fed6a1065abda
     Pseudo is Projector augmented-wave + core cor, Zval =  6.0
     Generated using 'atomic' code by A. Dal Corso  v.7.2
     Shape of augmentation charge: PSQ
     Using radial grid of 1151 points,  6 beta functions with: 
                l(1) =   0
                l(2) =   0
                l(3) =   1
                l(4) =   1
                l(5) =   2
                l(6) =   2
     Q(r) pseudized with 0 coefficients 


     PseudoPot. # 3 for Pd read from file:
     ./pseudo/Pd.pbe-spn-kjpaw_psl.1.0.0.UPF
     MD5 check sum: a60571a671f2502b8a6a4569d20a6edb
     Pseudo is Projector augmented-wave + core cor, Zval = 18.0
     Generated using 'atomic' code by A. Dal Corso  v.7.2
     Shape of augmentation charge: PSQ
     Using radial grid of 1235 points,  6 beta functions with: 
                l(1) =   0
                l(2) =   0
                l(3) =   1
                l(4) =   1
                l(5) =   2
                l(6) =   2
     Q(r) pseudized with 0 coefficients 


     PseudoPot. # 4 for Pt read from file:
     ./pseudo/Pt.pbe-spfn-kjpaw_psl.1.0.0.UPF
     MD5 check sum: 620096ebf4e6ebacc94de60fd67efcb5
     Pseudo is Projector augmented-wave + core cor, Zval = 32.0
     Generated using 'atomic' code by A. Dal Corso  v.7.2
     Shape of augmentation charge: PSQ
     Using radial grid of 1277 points,  8 beta functions with: 
                l(1) =   0
                l(2) =   0
                l(3) =   1
                l(4) =   1
                l(5) =   2
                l(6) =   2
                l(7) =   3
                l(8) =   3
     Q(r) pseudized with 0 coefficients 


     atomic species   valence    mass     pseudopotential
     Mo               14.00    95.95000     Mo( 1.00)
     S                 6.00    32.06000     S ( 1.00)
     Pd               18.00   106.42000     Pd( 1.00)
     Pt               32.00   195.08400     Pt( 1.00)

     No symmetry found



   Cartesian axes

     site n.     atom                  positions (alat units)
         1        Mo     tau(   1) = (   0.0000010   0.1443372  -0.7272732  )
         2        Mo     tau(   2) = (   0.1249995   0.0721706  -0.2424038  )
         3        S      tau(   3) = (   0.0000015   0.1443386  -0.3667807  )
         4        S      tau(   4) = (   0.1250010   0.0721682  -0.6030489  )
         5        S      tau(   5) = (   0.1250010   0.0721683  -0.8514963  )
         6        S      tau(   6) = (   0.0000015   0.1443389  -0.1180260  )
         7        Mo     tau(   7) = (   0.0000007   0.1443589   0.2424205  )
         8        Mo     tau(   8) = (   0.1250041   0.0720322   0.7266168  )
         9        S      tau(   9) = (   0.0000742   0.1444871   0.6020949  )
        10        S      tau(  10) = (   0.1250024   0.0721701   0.3667478  )
        11        S      tau(  11) = (   0.1250035   0.0721876   0.1180348  )
        12        S      tau(  12) = (  -0.0004118   0.1430864   0.8514340  )
        13        Mo     tau(  13) = (  -0.1249989   0.3608437  -0.7272732  )
        14        Mo     tau(  14) = (   0.0000030   0.2886752  -0.2424042  )
        15        S      tau(  15) = (  -0.1249977   0.3608450  -0.3667802  )
        16        S      tau(  16) = (   0.0000012   0.2886747  -0.6030489  )
        17        S      tau(  17) = (   0.0000012   0.2886748  -0.8514963  )
        18        S      tau(  18) = (  -0.1249977   0.3608454  -0.1180274  )
        19        Mo     tau(  19) = (  -0.1249729   0.3608584   0.2424608  )
        20        Mo     tau(  20) = (  -0.0007193   0.2876626   0.7275440  )
        21        S      tau(  21) = (  -0.1251115   0.3607789   0.6027257  )
        22        S      tau(  22) = (   0.0000621   0.2887099   0.3668377  )
        23        S      tau(  23) = (  -0.0000096   0.2886902   0.1180527  )
        24        S      tau(  24) = (  -0.1254673   0.3605734   0.8517408  )
        25        Mo     tau(  25) = (  -0.2499987   0.5773502  -0.7272732  )
        26        Mo     tau(  26) = (  -0.1249977   0.5051839  -0.2424055  )
        27        S      tau(  27) = (  -0.2499981   0.5773518  -0.3667809  )
        28        S      tau(  28) = (  -0.1249986   0.5051812  -0.6030489  )
        29        S      tau(  29) = (  -0.1249986   0.5051813  -0.8514963  )
        30        S      tau(  30) = (  -0.2499979   0.5773512  -0.1180266  )
        31        Mo     tau(  31) = (  -0.2499795   0.5773389   0.2424205  )
        32        Mo     tau(  32) = (  -0.1262356   0.5050639   0.7275441  )
        33        S      tau(  33) = (  -0.2498323   0.5773390   0.6020948  )
        34        S      tau(  34) = (  -0.1249376   0.5052159   0.3668377  )
        35        S      tau(  35) = (  -0.1249905   0.5051638   0.1180531  )
        36        S      tau(  36) = (  -0.2512883   0.5776183   0.8514340  )
        37        Mo     tau(  37) = (  -0.3749985   0.7938567  -0.7272732  )
        38        Mo     tau(  38) = (  -0.2500001   0.7216874  -0.2424031  )
        39        S      tau(  39) = (  -0.3749980   0.7938584  -0.3667800  )
        40        S      tau(  40) = (  -0.2499984   0.7216877  -0.6030489  )
        41        S      tau(  41) = (  -0.2499984   0.7216878  -0.8514963  )
        42        S      tau(  42) = (  -0.3749982   0.7938585  -0.1180264  )
        43        Mo     tau(  43) = (  -0.3749962   0.7938568   0.2423838  )
        44        Mo     tau(  44) = (  -0.2501148   0.7217588   0.7266170  )
        45        S      tau(  45) = (  -0.3749945   0.7938590   0.6021274  )
        46        S      tau(  46) = (  -0.2499958   0.7216877   0.3667488  )
        47        S      tau(  47) = (  -0.2499810   0.7216794   0.1180323  )
        48        S      tau(  48) = (  -0.3749953   0.7938585   0.8511588  )
        49        Mo     tau(  49) = (   0.2500010   0.1443372  -0.7272732  )
        50        Mo     tau(  50) = (   0.3750034   0.0721723  -0.2424032  )
        51        S      tau(  51) = (   0.2500017   0.1443391  -0.3667788  )
        52        S      tau(  52) = (   0.3750010   0.0721682  -0.6030489  )
        53        S      tau(  53) = (   0.3750010   0.0721683  -0.8514963  )
        54        S      tau(  54) = (   0.2500016   0.1443391  -0.1180271  )
        55        Mo     tau(  55) = (   0.2500054   0.1443594   0.2424211  )
        56        Mo     tau(  56) = (   0.3749279   0.0721263   0.7263991  )
        57        S      tau(  57) = (   0.2499344   0.1444864   0.6020948  )
        58        S      tau(  58) = (   0.3750316   0.0721860   0.3667597  )
        59        S      tau(  59) = (   0.3749924   0.0721644   0.1180346  )
        60        S      tau(  60) = (   0.2504199   0.1430865   0.8514340  )
        61        Mo     tau(  61) = (   0.1250012   0.3608437  -0.7272732  )
        62        Mo     tau(  62) = (   0.2500029   0.2886782  -0.2424031  )
        63        S      tau(  63) = (   0.1250024   0.3608455  -0.3667794  )
        64        S      tau(  64) = (   0.2500012   0.2886747  -0.6030489  )
        65        S      tau(  65) = (   0.2500012   0.2886748  -0.8514963  )
        66        S      tau(  66) = (   0.1250021   0.3608455  -0.1180270  )
        67        Mo     tau(  67) = (   0.1250038   0.3608653   0.2423963  )
        68        Mo     tau(  68) = (   0.2507284   0.2876625   0.7275438  )
        69        S      tau(  69) = (   0.1250046   0.3627170   0.6061948  )
        70        S      tau(  70) = (   0.2499461   0.2887116   0.3668373  )
        71        S      tau(  71) = (   0.2500171   0.2886900   0.1180543  )
        72        S      tau(  72) = (   0.1250046   0.3519103   0.8557806  )
        73        Mo     tau(  73) = (   0.0000014   0.5773502  -0.7272732  )
        74        Mo     tau(  74) = (   0.1250045   0.5051840  -0.2424036  )
        75        S      tau(  75) = (   0.0000030   0.5773520  -0.3667799  )
        76        S      tau(  76) = (   0.1250014   0.5051812  -0.6030489  )
        77        S      tau(  77) = (   0.1250014   0.5051813  -0.8514963  )
        78        S      tau(  78) = (   0.0000026   0.5773517  -0.1180274  )
        79        Mo     tau(  79) = (   0.0000222   0.5773400   0.2423964  )
        80        Mo     tau(  80) = (   0.1250047   0.5051836   0.7321380  )
        81        S      tau(  81) = (   0.0016251   0.5764170   0.6061946  )
        82        S      tau(  82) = (   0.1250047   0.5051815   0.3667777  )
        83        S      tau(  83) = (   0.1250048   0.5051819   0.1179962  )
        84        S      tau(  84) = (  -0.0077335   0.5818202   0.8557807  )
        85        Mo     tau(  85) = (  -0.1249984   0.7938567  -0.7272732  )
        86        Mo     tau(  86) = (   0.0000069   0.7216896  -0.2424039  )
        87        S      tau(  87) = (  -0.1249975   0.7938582  -0.3667782  )
        88        S      tau(  88) = (   0.0000016   0.7216877  -0.6030489  )
        89        S      tau(  89) = (   0.0000016   0.7216878  -0.8514963  )
        90        S      tau(  90) = (  -0.1249973   0.7938582  -0.1180279  )
        91        Mo     tau(  91) = (  -0.1249774   0.7938494   0.2424207  )
        92        Mo     tau(  92) = (  -0.0005116   0.7228241   0.7275438  )
        93        S      tau(  93) = (  -0.1249026   0.7937246   0.6020948  )
        94        S      tau(  94) = (   0.0000043   0.7216209   0.3668361  )
        95        S      tau(  95) = (   0.0000226   0.7216928   0.1180549  )
        96        S      tau(  96) = (  -0.1258721   0.7948451   0.8514341  )
        97        Mo     tau(  97) = (   0.5000010   0.1443372  -0.7272732  )
        98        Mo     tau(  98) = (   0.6250001   0.0721662  -0.2424040  )
        99        S      tau(  99) = (   0.5000017   0.1443386  -0.3667801  )
       100        S      tau( 100) = (   0.6250010   0.0721682  -0.6030489  )
       101        S      tau( 101) = (   0.6250010   0.0721683  -0.8514963  )
       102        S      tau( 102) = (   0.5000020   0.1443388  -0.1180261  )
       103        Mo     tau( 103) = (   0.5000075   0.1443411   0.2423793  )
       104        Mo     tau( 104) = (   0.6250042   0.0723339   0.7270464  )
       105        S      tau( 105) = (   0.5002366   0.1444733   0.6023595  )
       106        S      tau( 106) = (   0.6250029   0.0721787   0.3667562  )
       107        S      tau( 107) = (   0.6250040   0.0721260   0.1180315  )
       108        S      tau( 108) = (   0.4998752   0.1442648   0.8512770  )
       109        Mo     tau( 109) = (   0.3750012   0.3608437  -0.7272732  )
       110        Mo     tau( 110) = (   0.4999991   0.2886761  -0.2424038  )
       111        S      tau( 111) = (   0.3750012   0.3608452  -0.3667804  )
       112        S      tau( 112) = (   0.5000012   0.2886747  -0.6030489  )
       113        S      tau( 113) = (   0.5000012   0.2886748  -0.8514963  )
       114        S      tau( 114) = (   0.3750014   0.3608455  -0.1180261  )
       115        Mo     tau( 115) = (   0.3749795   0.3608597   0.2424601  )
       116        Mo     tau( 116) = (   0.5001461   0.2885951   0.7270464  )
       117        S      tau( 117) = (   0.3751205   0.3607791   0.6027254  )
       118        S      tau( 118) = (   0.5000105   0.2886721   0.3667569  )
       119        S      tau( 119) = (   0.4999655   0.2886989   0.1180297  )
       120        S      tau( 120) = (   0.3754765   0.3605739   0.8517402  )
       121        Mo     tau( 121) = (   0.2500014   0.5773502  -0.7272732  )
       122        Mo     tau( 122) = (   0.3749983   0.5051825  -0.2424043  )
       123        S      tau( 123) = (   0.2500017   0.5773519  -0.3667810  )
       124        S      tau( 124) = (   0.3750014   0.5051812  -0.6030489  )
       125        S      tau( 125) = (   0.3750014   0.5051813  -0.8514963  )
       126        S      tau( 126) = (   0.2500018   0.5773519  -0.1180256  )
       127        Mo     tau( 127) = (   0.2499863   0.5773402   0.2423965  )
       128        Mo     tau( 128) = (   0.3762454   0.5050642   0.7275433  )
       129        S      tau( 129) = (   0.2483844   0.5764169   0.6061944  )
       130        S      tau( 130) = (   0.3749442   0.5052158   0.3668400  )
       131        S      tau( 131) = (   0.3749972   0.5051650   0.1180510  )
       132        S      tau( 132) = (   0.2577438   0.5818204   0.8557797  )
       133        Mo     tau( 133) = (   0.1250016   0.7938567  -0.7272732  )
       134        Mo     tau( 134) = (   0.2499995   0.7216883  -0.2424036  )
       135        S      tau( 135) = (   0.1250024   0.7938578  -0.3667813  )
       136        S      tau( 136) = (   0.2500016   0.7216877  -0.6030489  )
       137        S      tau( 137) = (   0.2500016   0.7216878  -0.8514963  )
       138        S      tau( 138) = (   0.1250024   0.7938579  -0.1180253  )
       139        Mo     tau( 139) = (   0.1250047   0.7938294   0.2424606  )
       140        Mo     tau( 140) = (   0.2505220   0.7228241   0.7275433  )
       141        S      tau( 141) = (   0.1250053   0.7939926   0.6027252  )
       142        S      tau( 142) = (   0.2500048   0.7216200   0.3668387  )
       143        S      tau( 143) = (   0.2499864   0.7216915   0.1180524  )
       144        S      tau( 144) = (   0.1250054   0.7944033   0.8517402  )
       145        Mo     tau( 145) = (   0.7500010   0.1443372  -0.7272732  )
       146        Mo     tau( 146) = (   0.8750038   0.0721696  -0.2424038  )
       147        S      tau( 147) = (   0.7500016   0.1443382  -0.3667789  )
       148        S      tau( 148) = (   0.8750010   0.0721682  -0.6030489  )
       149        S      tau( 149) = (   0.8750010   0.0721683  -0.8514963  )
       150        S      tau( 150) = (   0.7500016   0.1443384  -0.1180279  )
       151        Mo     tau( 151) = (   0.7499986   0.1443409   0.2423802  )
       152        Mo     tau( 152) = (   0.8750804   0.0721266   0.7263988  )
       153        S      tau( 153) = (   0.7497713   0.1444738   0.6023592  )
       154        S      tau( 154) = (   0.8749758   0.0721848   0.3667595  )
       155        S      tau( 155) = (   0.8750127   0.0721632   0.1180342  )
       156        S      tau( 156) = (   0.7501331   0.1442647   0.8512770  )
       157        Mo     tau( 157) = (   0.6250012   0.3608437  -0.7272732  )
       158        Mo     tau( 158) = (   0.7500028   0.2886769  -0.2424041  )
       159        S      tau( 159) = (   0.6250015   0.3608451  -0.3667792  )
       160        S      tau( 160) = (   0.7500012   0.2886747  -0.6030489  )
       161        S      tau( 161) = (   0.7500012   0.2886748  -0.8514963  )
       162        S      tau( 162) = (   0.6250016   0.3608454  -0.1180280  )
       163        Mo     tau( 163) = (   0.6250032   0.3608391   0.2423797  )
       164        Mo     tau( 164) = (   0.7498627   0.2885951   0.7270467  )
       165        S      tau( 165) = (   0.6250046   0.3605769   0.6023590  )
       166        S      tau( 166) = (   0.7499943   0.2886711   0.3667569  )
       167        S      tau( 167) = (   0.7500399   0.2886970   0.1180318  )
       168        S      tau( 168) = (   0.6250043   0.3609947   0.8512770  )
       169        Mo     tau( 169) = (   0.5000014   0.5773502  -0.7272732  )
       170        Mo     tau( 170) = (   0.6250029   0.5051841  -0.2424047  )
       171        S      tau( 171) = (   0.5000014   0.5773518  -0.3667794  )
       172        S      tau( 172) = (   0.6250014   0.5051812  -0.6030489  )
       173        S      tau( 173) = (   0.6250014   0.5051813  -0.8514963  )
       174        S      tau( 174) = (   0.5000016   0.5773516  -0.1180277  )
       175        Mo     tau( 175) = (   0.4999855   0.5773383   0.2424207  )
       176        Mo     tau( 176) = (   0.6250049   0.5052713   0.7263986  )
       177        S      tau( 177) = (   0.4998428   0.5773389   0.6020941  )
       178        S      tau( 178) = (   0.6250030   0.5051500   0.3667588  )
       179        S      tau( 179) = (   0.6250025   0.5051935   0.1180351  )
       180        S      tau( 180) = (   0.5012979   0.5776190   0.8514332  )
       181        Mo     tau( 181) = (   0.3750016   0.7938567  -0.7272732  )
       182        Mo     tau( 182) = (   0.5000025   0.7216901  -0.2424039  )
       183        S      tau( 183) = (   0.3750019   0.7938578  -0.3667793  )
       184        S      tau( 184) = (   0.5000016   0.7216877  -0.6030489  )
       185        S      tau( 185) = (   0.5000016   0.7216878  -0.8514963  )
       186        S      tau( 186) = (   0.3750020   0.7938579  -0.1180272  )
       187        Mo     tau( 187) = (   0.3749848   0.7938487   0.2424206  )
       188        Mo     tau( 188) = (   0.5001249   0.7217591   0.7266160  )
       189        S      tau( 189) = (   0.3749125   0.7937251   0.6020942  )
       190        S      tau( 190) = (   0.5000021   0.7216868   0.3667472  )
       191        S      tau( 191) = (   0.4999874   0.7216780   0.1180346  )
       192        S      tau( 192) = (   0.3758826   0.7948451   0.8514332  )
       193        Pd     tau( 193) = (   0.1250063   0.5051842   0.9601361  )
       194        Pt     tau( 194) = (   0.5001206   0.2886166   0.9707291  )

     --------------------------------------------
     DFT-D3 Dispersion Correction (3-body terms):
     --------------------------------------------
       Reference C6 values for interpolation: 

         atom   Coordination number   C6
         S          0.000           268.01
         S          0.995           261.99
         S          1.990           251.62
         Mo         0.000          1691.79
         Mo         1.942          1004.01
         Mo        11.056           674.22
         Pd         0.000          1217.01
         Pd         1.863           573.90
         Pd         5.710           531.75
         Pt         0.000           782.29
         Pt         1.919           692.72
         Pt         6.667           673.75

       Values used:

         atom   Coordination number  R0_AB[au]  C6      C8
         Mo        10.208            3.547    674.22  77634.20
         Mo        10.221            3.547    674.22  77634.20
         S          3.858            3.128    251.62  12327.25
         S          3.859            3.128    251.62  12327.25
         S          3.758            3.128    251.62  12327.25
         S          3.859            3.128    251.62  12327.25
         Mo        10.220            3.547    674.22  77634.20
         Mo        10.234            3.547    674.22  77634.20
         S          3.847            3.128    251.62  12327.25
         S          3.861            3.128    251.62  12327.25
         S          3.859            3.128    251.62  12327.25
         S          3.805            3.128    251.62  12327.25
         Mo        10.208            3.547    674.22  77634.20
         Mo        10.221            3.547    674.22  77634.20
         S          3.858            3.128    251.62  12327.25
         S          3.859            3.128    251.62  12327.25
         S          3.758            3.128    251.62  12327.25
         S          3.859            3.128    251.62  12327.25
         Mo        10.221            3.547    674.22  77634.20
         Mo        10.191            3.547    674.22  77634.20
         S          3.855            3.128    251.62  12327.25
         S          3.856            3.128    251.62  12327.25
         S          3.859            3.128    251.62  12327.25
         S          3.757            3.128    251.62  12327.25
         Mo        10.208            3.547    674.22  77634.20
         Mo        10.221            3.547    674.22  77634.20
         S          3.858            3.128    251.62  12327.25
         S          3.859            3.128    251.62  12327.25
         S          3.758            3.128    251.62  12327.25
         S          3.859            3.128    251.62  12327.25
         Mo        10.220            3.547    674.22  77634.20
         Mo        10.191            3.547    674.22  77634.20
         S          3.847            3.128    251.62  12327.25
         S          3.856            3.128    251.62  12327.25
         S          3.859            3.128    251.62  12327.25
         S          3.806            3.128    251.62  12327.25
         Mo        10.208            3.547    674.22  77634.20
         Mo        10.221            3.547    674.22  77634.20
         S          3.858            3.128    251.62  12327.25
         S          3.859            3.128    251.62  12327.25
         S          3.758            3.128    251.62  12327.25
         S          3.859            3.128    251.62  12327.25
         Mo        10.219            3.547    674.22  77634.20
         Mo        10.234            3.547    674.22  77634.20
         S          3.856            3.128    251.62  12327.25
         S          3.861            3.128    251.62  12327.25
         S          3.859            3.128    251.62  12327.25
         S          3.782            3.128    251.62  12327.25
         Mo        10.208            3.547    674.22  77634.20
         Mo        10.221            3.547    674.22  77634.20
         S          3.858            3.128    251.62  12327.25
         S          3.859            3.128    251.62  12327.25
         S          3.758            3.128    251.62  12327.25
         S          3.859            3.128    251.62  12327.25
         Mo        10.220            3.547    674.22  77634.20
         Mo        10.254            3.547    674.22  77634.20
         S          3.847            3.128    251.62  12327.25
         S          3.860            3.128    251.62  12327.25
         S          3.859            3.128    251.62  12327.25
         S          3.817            3.128    251.62  12327.25
         Mo        10.208            3.547    674.22  77634.20
         Mo        10.221            3.547    674.22  77634.20
         S          3.858            3.128    251.62  12327.25
         S          3.859            3.128    251.62  12327.25
         S          3.758            3.128    251.62  12327.25
         S          3.859            3.128    251.62  12327.25
         Mo        10.222            3.547    674.22  77634.20
         Mo        10.201            3.547    674.22  77634.20
         S          3.865            3.128    251.62  12327.25
         S          3.856            3.128    251.62  12327.25
         S          3.859            3.128    251.62  12327.25
         S          4.654            3.128    251.62  12327.25
         Mo        10.208            3.547    674.22  77634.20
         Mo        10.221            3.547    674.22  77634.20
         S          3.858            3.128    251.62  12327.25
         S          3.859            3.128    251.62  12327.25
         S          3.758            3.128    251.62  12327.25
         S          3.859            3.128    251.62  12327.25
         Mo        10.222            3.547    674.22  77634.20
         Mo        10.821            3.547    674.22  77634.20
         S          3.865            3.128    251.62  12327.25
         S          3.853            3.128    251.62  12327.25
         S          3.859            3.128    251.62  12327.25
         S          4.653            3.128    251.62  12327.25
         Mo        10.208            3.547    674.22  77634.20
         Mo        10.221            3.547    674.22  77634.20
         S          3.858            3.128    251.62  12327.25
         S          3.859            3.128    251.62  12327.25
         S          3.758            3.128    251.62  12327.25
         S          3.859            3.128    251.62  12327.25
         Mo        10.220            3.547    674.22  77634.20
         Mo        10.191            3.547    674.22  77634.20
         S          3.847            3.128    251.62  12327.25
         S          3.856            3.128    251.62  12327.25
         S          3.859            3.128    251.62  12327.25
         S          3.806            3.128    251.62  12327.25
         Mo        10.208            3.547    674.22  77634.20
         Mo        10.221            3.547    674.22  77634.20
         S          3.858            3.128    251.62  12327.25
         S          3.859            3.128    251.62  12327.25
         S          3.758            3.128    251.62  12327.25
         S          3.859            3.128    251.62  12327.25
         Mo        10.220            3.547    674.22  77634.20
         Mo        10.240            3.547    674.22  77634.20
         S          3.863            3.128    251.62  12327.25
         S          3.860            3.128    251.62  12327.25
         S          3.859            3.128    251.62  12327.25
         S          4.731            3.128    251.62  12327.25
         Mo        10.208            3.547    674.22  77634.20
         Mo        10.221            3.547    674.22  77634.20
         S          3.858            3.128    251.62  12327.25
         S          3.859            3.128    251.62  12327.25
         S          3.758            3.128    251.62  12327.25
         S          3.859            3.128    251.62  12327.25
         Mo        10.221            3.547    674.22  77634.20
         Mo        10.826            3.547    674.22  77634.20
         S          3.856            3.128    251.62  12327.25
         S          3.860            3.128    251.62  12327.25
         S          3.859            3.128    251.62  12327.25
         S          4.724            3.128    251.62  12327.25
         Mo        10.208            3.547    674.22  77634.20
         Mo        10.221            3.547    674.22  77634.20
         S          3.858            3.128    251.62  12327.25
         S          3.859            3.128    251.62  12327.25
         S          3.758            3.128    251.62  12327.25
         S          3.859            3.128    251.62  12327.25
         Mo        10.222            3.547    674.22  77634.20
         Mo        10.201            3.547    674.22  77634.20
         S          3.865            3.128    251.62  12327.25
         S          3.856            3.128    251.62  12327.25
         S          3.859            3.128    251.62  12327.25
         S          4.654            3.128    251.62  12327.25
         Mo        10.208            3.547    674.22  77634.20
         Mo        10.221            3.547    674.22  77634.20
         S          3.858            3.128    251.62  12327.25
         S          3.859            3.128    251.62  12327.25
         S          3.758            3.128    251.62  12327.25
         S          3.859            3.128    251.62  12327.25
         Mo        10.221            3.547    674.21  77634.20
         Mo        10.191            3.547    674.22  77634.20
         S          3.855            3.128    251.62  12327.25
         S          3.856            3.128    251.62  12327.25
         S          3.859            3.128    251.62  12327.25
         S          3.757            3.128    251.62  12327.25
         Mo        10.208            3.547    674.22  77634.20
         Mo        10.221            3.547    674.22  77634.20
         S          3.858            3.128    251.62  12327.25
         S          3.859            3.128    251.62  12327.25
         S          3.758            3.128    251.62  12327.25
         S          3.859            3.128    251.62  12327.25
         Mo        10.220            3.547    674.22  77634.20
         Mo        10.244            3.547    674.22  77634.20
         S          3.862            3.128    251.62  12327.25
         S          3.860            3.128    251.62  12327.25
         S          3.859            3.128    251.62  12327.25
         S          3.777            3.128    251.62  12327.25
         Mo        10.208            3.547    674.22  77634.20
         Mo        10.220            3.547    674.22  77634.20
         S          3.858            3.128    251.62  12327.25
         S          3.859            3.128    251.62  12327.25
         S          3.758            3.128    251.62  12327.25
         S          3.859            3.128    251.62  12327.25
         Mo        10.220            3.547    674.22  77634.20
         Mo        10.240            3.547    674.22  77634.20
         S          3.863            3.128    251.62  12327.25
         S          3.860            3.128    251.62  12327.25
         S          3.859            3.128    251.62  12327.25
         S          4.731            3.128    251.62  12327.25
         Mo        10.208            3.547    674.22  77634.20
         Mo        10.221            3.547    674.22  77634.20
         S          3.858            3.128    251.62  12327.25
         S          3.859            3.128    251.62  12327.25
         S          3.758            3.128    251.62  12327.25
         S          3.859            3.128    251.62  12327.25
         Mo        10.220            3.547    674.22  77634.20
         Mo        10.254            3.547    674.22  77634.20
         S          3.847            3.128    251.62  12327.25
         S          3.860            3.128    251.62  12327.25
         S          3.859            3.128    251.62  12327.25
         S          3.817            3.128    251.62  12327.25
         Mo        10.208            3.547    674.21  77634.20
         Mo        10.221            3.547    674.22  77634.20
         S          3.858            3.128    251.62  12327.25
         S          3.859            3.128    251.62  12327.25
         S          3.758            3.128    251.62  12327.25
         S          3.859            3.128    251.62  12327.25
         Mo        10.220            3.547    674.22  77634.20
         Mo        10.234            3.547    674.22  77634.20
         S          3.847            3.128    251.62  12327.25
         S          3.861            3.128    251.62  12327.25
         S          3.859            3.128    251.62  12327.25
         S          3.805            3.128    251.62  12327.25
         Pd         3.767            3.168    558.46  51168.37
         Pt         3.613            3.168    692.72  72035.25

         Molecular C6 ( Ry / a.u.^6 ) =  13983844.84


     number of k points=     4  Gaussian smearing, width (Ry)=  0.0100
                       cart. coord. in units 2pi/alat
        k(    1) = (   0.0000000   0.0000000   0.0000000), wk =   0.5000000
        k(    2) = (   0.0000000  -0.5773499   0.0000000), wk =   0.5000000
        k(    3) = (  -0.5000000  -0.2886744   0.0000000), wk =   0.5000000
        k(    4) = (  -0.5000000  -0.8660242   0.0000000), wk =   0.5000000

     Dense  grid:  7154885 G-vectors     FFT dimensions: ( 180, 180, 512)

     Smooth grid:  3090769 G-vectors     FFT dimensions: ( 135, 135, 400)

     Estimated max dynamical RAM per process >       4.31 GB

     Estimated total dynamical RAM >     155.10 GB

     Atomic positions and unit cell read from directory:
     ./outdir/pwscf.save/
     Atomic positions from file used, from input discarded
 

     The initial density is read from file :
     ./outdir/pwscf.save/charge-density


     negative rho (up, down):  8.971E-04 0.000E+00
     Cannot read wfcs: file not found
     Starting wfcs are 1179 randomized atomic wfcs
     Checking if some PAW data can be deallocated... 

     total cpu time spent up to now is      178.3 secs

     Self-consistent Calculation

     iteration #  1     ecut=    77.00 Ry     beta= 0.20
     Davidson diagonalization with overlap
     c_bands:  3 eigenvalues not converged
     c_bands:  7 eigenvalues not converged
     c_bands:  4 eigenvalues not converged
     c_bands:  4 eigenvalues not converged
     ethr =  1.00E-05,  avg # of iterations =110.0

     negative rho (up, down):  8.246E-04 0.000E+00

     total cpu time spent up to now is    10474.2 secs

     total energy              =  -33980.26665409 Ry
     estimated scf accuracy    <       0.10427359 Ry

     iteration #  2     ecut=    77.00 Ry     beta= 0.20
     Davidson diagonalization with overlap
     c_bands:  3 eigenvalues not converged
     c_bands:  3 eigenvalues not converged
     c_bands:  1 eigenvalues not converged
     ethr =  6.08E-06,  avg # of iterations = 17.5

     negative rho (up, down):  7.907E-04 0.000E+00

     total cpu time spent up to now is    10959.6 secs

     total energy              =  -33980.27194320 Ry
     estimated scf accuracy    <       0.04700858 Ry

     iteration #  3     ecut=    77.00 Ry     beta= 0.20
     Davidson diagonalization with overlap
     c_bands:  3 eigenvalues not converged
     c_bands:  4 eigenvalues not converged
     c_bands:  3 eigenvalues not converged
     ethr =  2.74E-06,  avg # of iterations = 27.5

     negative rho (up, down):  7.482E-04 0.000E+00

     total cpu time spent up to now is    11660.8 secs

     total energy              =  -33980.27395992 Ry
     estimated scf accuracy    <       0.01671403 Ry

     iteration #  4     ecut=    77.00 Ry     beta= 0.20
     Davidson diagonalization with overlap
     c_bands:  2 eigenvalues not converged
     c_bands:  2 eigenvalues not converged
     ethr =  9.75E-07,  avg # of iterations = 18.5

     negative rho (up, down):  7.701E-04 0.000E+00

     total cpu time spent up to now is    12434.9 secs

     total energy              =  -33980.28211671 Ry
     estimated scf accuracy    <       0.00367968 Ry

     iteration #  5     ecut=    77.00 Ry     beta= 0.20
     Davidson diagonalization with overlap
     c_bands:  1 eigenvalues not converged
     c_bands:  1 eigenvalues not converged
     ethr =  2.15E-07,  avg # of iterations = 17.2

     negative rho (up, down):  8.107E-04 0.000E+00

     total cpu time spent up to now is    13213.3 secs

     total energy              =  -33980.28392491 Ry
     estimated scf accuracy    <       0.00177924 Ry

     iteration #  6     ecut=    77.00 Ry     beta= 0.20
     Davidson diagonalization with overlap
     c_bands:  1 eigenvalues not converged
     c_bands:  2 eigenvalues not converged
     ethr =  1.04E-07,  avg # of iterations = 15.5

     negative rho (up, down):  8.395E-04 0.000E+00

     total cpu time spent up to now is    13779.9 secs

     total energy              =  -33980.28418113 Ry
     estimated scf accuracy    <       0.00064289 Ry

     iteration #  7     ecut=    77.00 Ry     beta= 0.20
     Davidson diagonalization with overlap
     ethr =  3.75E-08,  avg # of iterations = 14.2

     negative rho (up, down):  8.540E-04 0.000E+00

     total cpu time spent up to now is    14525.1 secs

     total energy              =  -33980.28456145 Ry
     estimated scf accuracy    <       0.00016769 Ry

     iteration #  8     ecut=    77.00 Ry     beta= 0.20
     Davidson diagonalization with overlap
     ethr =  9.78E-09,  avg # of iterations = 16.0

     negative rho (up, down):  8.676E-04 0.000E+00

     total cpu time spent up to now is    15384.3 secs

     total energy              =  -33980.28468510 Ry
     estimated scf accuracy    <       0.00006310 Ry

     iteration #  9     ecut=    77.00 Ry     beta= 0.20
     Davidson diagonalization with overlap
     c_bands:  4 eigenvalues not converged
     ethr =  3.68E-09,  avg # of iterations = 13.8

     negative rho (up, down):  8.820E-04 0.000E+00

     total cpu time spent up to now is    16087.5 secs

     total energy              =  -33980.28470144 Ry
     estimated scf accuracy    <       0.00002651 Ry

     iteration # 10     ecut=    77.00 Ry     beta= 0.20
     Davidson diagonalization with overlap
     c_bands:  2 eigenvalues not converged
     ethr =  1.55E-09,  avg # of iterations = 15.2

     negative rho (up, down):  8.879E-04 0.000E+00

     total cpu time spent up to now is    16773.5 secs

     total energy              =  -33980.28470874 Ry
     estimated scf accuracy    <       0.00001318 Ry

     iteration # 11     ecut=    77.00 Ry     beta= 0.20
     Davidson diagonalization with overlap
     c_bands:  1 eigenvalues not converged
     c_bands:  5 eigenvalues not converged
     ethr =  7.69E-10,  avg # of iterations = 14.5

     negative rho (up, down):  8.912E-04 0.000E+00

     total cpu time spent up to now is    17444.9 secs

     total energy              =  -33980.28471241 Ry
     estimated scf accuracy    <       0.00000304 Ry

     iteration # 12     ecut=    77.00 Ry     beta= 0.20
     Davidson diagonalization with overlap
     c_bands:  1 eigenvalues not converged
     ethr =  1.77E-10,  avg # of iterations = 19.0

     negative rho (up, down):  8.926E-04 0.000E+00

     total cpu time spent up to now is    18650.1 secs

     total energy              =  -33980.28471664 Ry
     estimated scf accuracy    <       0.00000191 Ry

     iteration # 13     ecut=    77.00 Ry     beta= 0.20
     Davidson diagonalization with overlap
     ethr =  1.12E-10,  avg # of iterations =  6.0

     negative rho (up, down):  8.974E-04 0.000E+00

     total cpu time spent up to now is    19073.5 secs

     End of self-consistent calculation

          k = 0.0000 0.0000 0.0000 (386245 PWs)   bands (ev):

  -102.9601 -88.6627 -71.2712 -71.2552 -71.2493 -71.2467 -71.2343 -71.2316
   -71.2240 -66.5551 -66.5548 -66.5548 -66.5535 -66.5487 -66.5363 -66.5358
   -66.5338 -66.5337 -66.5336 -66.5336 -66.5336 -66.5335 -66.5335 -66.5335
   -66.5335 -66.5335 -66.5335 -66.5333 -66.5329 -66.5323 -66.5322 -66.5322
   -66.5322 -66.5322 -66.5322 -66.5281 -66.5157 -66.5137 -66.5124 -66.5123
   -66.5123 -66.5122 -66.5122 -66.5122 -66.5122 -66.5122 -66.5121 -66.5121
   -66.5121 -66.5121 -66.5121 -66.5120 -66.5120 -66.5120 -66.5119 -66.5119
   -66.5109 -66.5108 -66.5108 -66.5108 -66.5108 -66.5108 -66.5108 -66.5108
   -66.5108 -66.5012 -66.5009 -66.4983 -66.4961 -66.4945 -66.4902 -66.4741
   -66.4668 -57.2148 -57.1925 -57.1751 -54.4765 -54.4659 -54.4524 -40.8822
   -40.8822 -40.8822 -40.8822 -40.8822 -40.8821 -40.8816 -40.8816 -40.8815
   -40.8734 -40.8680 -40.8658 -40.8070 -40.8069 -40.8069 -40.8069 -40.8069
   -40.8069 -40.8069 -40.8068 -40.8068 -40.8068 -40.8068 -40.8066 -40.8062
   -40.8062 -40.8062 -40.8062 -40.8062 -40.8062 -40.7991 -40.7950 -40.7917
   -40.7889 -40.7793 -40.7759 -40.7670 -40.7345 -40.7144 -40.7143 -40.7138
   -40.7071 -40.6807 -40.6807 -40.6806 -40.6806 -40.6806 -40.6805 -40.6805
   -40.6805 -40.6805 -40.6805 -40.6805 -40.6804 -40.6803 -40.6797 -40.6797
   -40.6797 -40.6797 -40.6797 -40.6797 -40.6756 -40.6741 -40.6740 -40.6729
   -40.6728 -40.6727 -40.6727 -40.6727 -40.6727 -40.6727 -40.6726 -40.6726
   -40.6726 -40.6726 -40.6725 -40.6720 -40.6720 -40.6720 -40.6720 -40.6720
   -40.6720 -40.6717 -40.6694 -40.6691 -40.6657 -40.6534 -40.6474 -40.6457
   -40.6456 -40.6455 -40.6455 -40.6455 -40.6455 -40.6455 -40.6455 -40.6455
   -40.6454 -40.6454 -40.6453 -40.6451 -40.6448 -40.6446 -40.6446 -40.6446
   -40.6446 -40.6446 -40.6446 -40.6417 -40.6369 -40.6365 -40.6329 -40.6310
   -40.6309 -40.6308 -40.6308 -40.6308 -40.6307 -40.6307 -40.6307 -40.6307
   -40.6307 -40.6307 -40.6307 -40.6306 -40.6306 -40.6306 -40.6306 -40.6306
   -40.6305 -40.6305 -40.6300 -40.6300 -40.6300 -40.6300 -40.6300 -40.6300
   -40.6299 -40.6299 -40.6299 -40.6281 -40.6267 -40.6248 -40.6197 -40.6175
   -40.6158 -40.6114 -40.6081 -40.5672 -40.5672 -40.5672 -40.5672 -40.5672
   -40.5671 -40.5662 -40.5662 -40.5662 -40.5553 -40.5532 -40.5481 -40.5202
   -40.5201 -40.5201 -40.5201 -40.5201 -40.5201 -40.5200 -40.5200 -40.5200
   -40.5200 -40.5200 -40.5198 -40.5191 -40.5191 -40.5191 -40.5191 -40.5190
   -40.5190 -40.5064 -40.5062 -40.5011 -40.4983 -40.4961 -40.4895 -40.4724
   -40.4724 -40.4724 -40.4724 -40.4714 -40.4714 -40.4505 -40.4460 -20.0813
   -20.0193 -19.9185 -19.8161 -19.3067 -19.2928 -19.2423 -19.1985 -19.1942
   -19.1809 -19.1643 -19.1640 -19.1608 -19.1489 -19.1442 -19.1238 -19.0740
   -19.0738 -19.0705 -19.0613 -19.0579 -19.0408 -18.9720 -18.9717 -18.9704
   -18.9669 -18.9662 -18.9596 -18.8524 -18.7321 -18.5704 -18.5515 -18.5331
   -18.5073 -18.4573 -18.4430 -18.4283 -18.4094 -18.3765 -18.3637 -18.3541
   -18.3448 -18.3424 -18.3189 -18.2821 -18.2419 -18.2219 -18.2187 -18.2175
   -18.2031 -18.1810 -18.1540 -18.1342 -18.1258 -18.1154 -18.1119 -18.1049
   -18.1008 -18.0943 -18.0921 -18.0535 -18.0520 -18.0501 -18.0501 -18.0484
   -18.0483 -18.0249 -18.0203 -18.0169 -18.0157 -18.0147 -18.0077 -18.0067
   -18.0060 -18.0058 -17.9923 -17.9843 -17.9819 -17.9808 -17.9763 -17.9669
   -17.9655 -17.9641 -17.9502 -17.9458 -17.9417 -17.9384 -17.9331 -17.9307
   -17.9221 -17.9220 -17.9196 -17.8837 -17.8817 -17.8797 -17.8780 -17.8627
   -17.8574 -17.8545 -17.8492 -17.8491 -17.8280 -17.8261 -17.8224 -17.8151
   -17.8117 -17.8071 -17.8015 -17.7982 -17.7973 -17.7913 -17.7898 -17.7879
   -17.7717 -17.7713 -17.7706 -17.7625 -17.7607 -17.7588 -17.7541 -17.7530
   -17.7520 -17.7280 -17.7276 -17.7273 -17.7256 -17.7251 -17.7247 -12.0118
   -11.9131 -11.8290 -11.7919 -11.7324 -11.7202 -11.7113 -11.6993 -11.6094
   -11.5975 -11.5930 -11.4918 -11.4841 -11.4830 -11.4409 -11.3610 -11.2975
   -11.2733 -11.1855 -11.1772 -11.1722 -11.1684 -11.1616 -11.1608 -11.1142
   -11.0963 -11.0695 -11.0644 -11.0641 -11.0619 -11.0541 -11.0526 -11.0365
   -11.0278 -11.0189 -11.0108 -11.0027 -10.9948 -10.9946 -10.9941 -10.9852
   -10.9771 -10.9655 -10.9609 -10.9565 -10.9348 -10.9180 -10.9098 -10.8893
   -10.8862 -10.8819 -10.8674 -10.8603 -10.8451 -10.8404 -10.8288 -10.8259
   -10.8128 -10.8111 -10.7986 -10.7885 -10.7858 -10.7763 -10.7745 -10.7738
   -10.7667 -10.7627 -10.7592 -10.7585 -10.7559 -10.7492 -10.7486 -10.7430
   -10.7407 -10.7401 -10.7365 -10.7121 -10.7111 -10.7081 -10.7072 -10.7038
   -10.7023 -10.7006 -10.6986 -10.6897 -10.6684 -10.6683 -10.6677 -10.6672
   -10.6656 -10.6650 -10.5954 -10.5944 -10.5881 -10.5417 -10.5306 -10.5213
   -10.5176 -10.5166 -10.5131 -10.4698 -10.4055 -10.2324 -10.2167 -10.1290
   -10.0708 -10.0578  -9.9498  -9.8966  -9.8585  -9.8401  -9.7760  -9.7509
    -9.7453  -9.7392  -9.7363  -9.7342  -9.7156  -9.7089  -9.7036  -9.7016
    -9.7006  -9.7002  -9.6977  -9.6920  -9.6839  -9.6837  -9.6796  -9.6755
    -9.6747  -9.6540  -9.6460  -9.6376  -9.6032  -9.5828  -9.5720  -9.5669
    -9.5642  -9.5631  -9.5602  -9.5555  -9.5497  -9.5487  -9.5486  -9.5475
    -9.5470  -9.5443  -9.5423  -9.5044  -9.4869  -9.4805  -9.4719  -9.4719
    -9.4718  -9.4713  -9.4711  -9.4709  -9.4611  -9.4597  -9.4566  -9.4396
    -9.4323  -9.4308  -9.4195  -9.3909  -9.3793  -9.3076  -9.3060  -9.3058
    -9.2998  -9.2931  -9.2763  -9.2720  -9.2708  -9.2684  -9.2593  -9.2457
    -9.2414  -9.2095  -9.1948  -9.1794  -9.1749  -9.1670  -9.1608  -9.1392
    -9.1387  -9.1210  -9.1186  -9.1125  -9.1115  -9.1110  -9.1065  -9.0976
    -9.0833  -9.0739  -9.0708  -9.0395  -9.0350  -9.0060  -8.9902  -8.9758
    -8.9486  -8.9370  -8.9128  -8.9127  -8.9097  -8.9012  -8.8897  -8.8783
    -8.8777  -8.8692  -8.8486  -8.8477  -8.8475  -8.8464  -8.8402  -8.8306
    -8.8263  -8.8227  -8.8115  -8.7529  -8.7519  -8.7517  -8.7517  -8.7509
    -8.7503  -8.7039  -8.6934  -8.6866  -8.6822  -8.6694  -8.6588  -8.6335
    -8.6064  -8.6008  -8.5965  -8.5922  -8.5829  -8.5765  -8.5282  -8.5250
    -8.5223  -8.5221  -8.5208  -8.5175  -8.4597  -8.4551  -8.4063  -8.3851
    -8.3566  -8.2967  -8.2967  -8.2921  -8.2915  -8.2867  -8.2851  -8.2834
    -8.2617  -8.2401  -8.2145  -8.2063  -8.2062  -8.2059  -8.2052  -8.2043
    -8.1986  -8.1883  -8.1797  -8.1792  -8.1787  -8.1778  -8.1768  -8.1728
    -8.1514  -8.1513  -8.1509  -8.1504  -8.1501  -8.1487  -8.0412  -8.0153
    -7.9927  -7.9893  -7.8616  -7.7939  -7.7873  -7.7870  -7.7272  -7.7061
    -7.7018  -7.6515  -7.6372  -7.6318  -7.5837  -7.5832  -7.5748  -7.5747
    -7.5716  -7.5534  -7.5449  -7.5412  -7.5366  -7.5361  -7.5296  -7.5003
    -7.4893  -7.4880  -7.4742  -7.4693  -7.4676  -7.4641  -7.4638  -7.4637
    -7.4612  -7.4584  -7.4515  -7.4376  -7.4375  -7.4371  -7.4366  -7.4350
    -7.4294  -7.4216  -7.4193  -7.4128  -7.4126  -7.4121  -7.4118  -7.4102
    -7.4088  -7.3977  -7.3755  -7.3594  -7.3579  -7.3571  -7.3535  -7.3460
    -7.3417  -7.3351  -7.3152  -7.2870  -7.2843  -7.2773  -7.2670  -7.2478
    -7.2442  -7.2388  -7.2266  -7.2259  -7.2252  -7.2230  -7.2211  -7.2165
    -7.1809  -7.1806  -7.1625  -7.1620  -7.1571  -7.1441  -7.1438  -7.1247
    -7.0849  -7.0722  -7.0645  -7.0501  -7.0400  -7.0061  -6.9429  -6.9127
    -6.9051  -6.8551  -6.8331  -6.8170  -6.8060  -6.7911  -6.7437  -6.7245
    -6.7183  -6.7117  -6.7106  -6.6991  -6.6397  -6.6380  -6.6334  -6.6270
    -6.6155  -6.5926  -6.5668  -6.5646  -6.5608  -6.5567  -6.5459  -6.5409
    -6.5364  -6.5135  -6.5053  -6.4955  -6.4915  -6.4861  -6.4851  -6.4615
    -6.4472  -6.4453  -6.4432  -6.4414  -6.4409  -6.4383  -6.4368  -6.4359
    -6.4281  -6.4279  -6.4276  -6.4274  -6.4274  -6.4272  -6.4251  -6.3875
    -6.3840  -6.3788  -6.3598  -6.3467  -6.3436  -6.3395  -6.3307  -6.3279
    -6.2834  -6.2643  -6.2635  -6.2632  -6.2610  -6.2606  -6.2544  -6.2302
    -6.2268  -6.2258  -6.2246  -6.2200  -6.2152  -6.2084  -6.2034  -6.1870
    -6.1857  -6.1856  -6.1824  -6.1815  -6.1797  -6.1535  -6.1434  -6.1144
    -5.8960  -5.7975  -5.7214  -5.6798  -5.6198  -5.6077  -5.5303  -5.2415
    -5.0795  -4.1520  -3.8489  -3.7858  -3.7853  -3.7792  -3.7765  -3.7642
    -3.7599  -3.7566  -3.7547  -3.7530  -3.7526  -3.7330  -3.6988  -3.6414
    -3.6330  -3.6273  -3.6240  -3.6158  -3.6158  -3.6136  -3.6049  -3.6033
    -3.6011  -3.5089  -3.4768  -3.4533  -3.4457  -3.4429  -3.4406  -3.4372
    -3.4203  -3.4199  -3.4093  -3.4020  -3.4009  -3.3986  -3.3984  -3.3915
    -3.3867  -3.3796  -3.3763  -3.3733  -3.3722  -3.3721  -3.3695  -3.3593
    -3.3578  -3.3575  -3.3556  -3.3442  -3.3416  -3.3412  -3.3395  -3.3322
    -3.3308  -3.3303  -3.3292  -3.3240  -3.3203  -3.2926  -3.2882  -3.2848
    -3.2830  -3.2790  -3.2771  -3.2763  -3.2696  -3.2632  -3.2540  -3.2482
    -3.2382  -3.2220  -3.2183  -3.2162  -3.2135  -3.2115  -3.2021  -3.1876
    -3.1858  -3.1533  -3.1497  -3.1352  -3.1230  -3.0241  -3.0179  -3.0124
    -2.9965  -2.9957  -2.9902  -2.9862  -2.9776  -2.9731  -2.9651  -2.9474
    -2.9388  -2.9332  -2.9169  -2.9089  -2.9060  -2.9045  -2.9019  -2.9007
    -2.8966  -2.8928  -2.8925  -2.8910  -2.8868  -2.8832  -2.8826  -2.8823
    -2.8745  -2.8700  -2.8644  -2.8637  -2.8636  -2.8620  -2.8614  -2.8603
    -2.8594  -2.8486  -2.8461  -2.8330  -2.8237  -2.8202  -2.8107  -2.8085
    -2.8028  -2.7965  -2.7945  -2.7878  -2.7360  -2.7359  -2.7357  -2.7356
    -2.7354  -2.7352  -2.7344  -2.7337  -2.7323  -2.7170  -2.7138  -2.7135
    -2.6929  -2.6753  -2.6740  -2.6727  -2.6594  -2.6475  -2.6445  -2.6001
    -2.5984  -2.5715  -2.5698  -2.5577  -2.5565  -2.5531  -2.5460  -2.5459
    -2.5454  -2.5177  -2.5004  -2.4827  -2.4820  -2.4756  -2.4644  -2.3908
    -2.3881  -2.3824  -2.3743  -2.3694

          k = 0.0000-0.5773 0.0000 (386352 PWs)   bands (ev):

  -102.9601 -88.6627 -71.2712 -71.2552 -71.2493 -71.2467 -71.2343 -71.2316
   -71.2240 -66.5526 -66.5511 -66.5486 -66.5486 -66.5486 -66.5486 -66.5473
   -66.5473 -66.5388 -66.5380 -66.5379 -66.5379 -66.5379 -66.5367 -66.5366
   -66.5358 -66.5318 -66.5274 -66.5229 -66.5229 -66.5228 -66.5228 -66.5228
   -66.5228 -66.5228 -66.5227 -66.5215 -66.5215 -66.5215 -66.5215 -66.5184
   -66.5184 -66.5184 -66.5184 -66.5171 -66.5171 -66.5143 -66.5137 -66.5122
   -66.5122 -66.5122 -66.5122 -66.5122 -66.5121 -66.5121 -66.5121 -66.5108
   -66.5108 -66.5108 -66.5108 -66.5077 -66.5077 -66.5077 -66.5077 -66.5064
   -66.5064 -66.5017 -66.5002 -66.4984 -66.4981 -66.4938 -66.4899 -66.4742
   -66.4667 -57.2148 -57.1925 -57.1751 -54.4765 -54.4660 -54.4524 -40.8512
   -40.8506 -40.8506 -40.8506 -40.8505 -40.8505 -40.8505 -40.8505 -40.8505
   -40.8499 -40.8499 -40.8499 -40.8499 -40.8490 -40.8269 -40.8238 -40.8238
   -40.8237 -40.8237 -40.8231 -40.8231 -40.8219 -40.8153 -40.8117 -40.8117
   -40.8117 -40.8116 -40.8110 -40.8110 -40.8085 -40.7915 -40.7814 -40.7670
   -40.7610 -40.7610 -40.7610 -40.7610 -40.7610 -40.7610 -40.7609 -40.7609
   -40.7603 -40.7603 -40.7603 -40.7603 -40.7492 -40.7417 -40.7402 -40.7355
   -40.7322 -40.7085 -40.7023 -40.7022 -40.7022 -40.7021 -40.7016 -40.7015
   -40.6928 -40.6927 -40.6927 -40.6926 -40.6919 -40.6919 -40.6887 -40.6814
   -40.6814 -40.6813 -40.6813 -40.6807 -40.6807 -40.6761 -40.6736 -40.6710
   -40.6682 -40.6548 -40.6518 -40.6518 -40.6517 -40.6517 -40.6517 -40.6517
   -40.6517 -40.6517 -40.6511 -40.6510 -40.6510 -40.6510 -40.6510 -40.6431
   -40.6430 -40.6430 -40.6429 -40.6429 -40.6423 -40.6423 -40.6398 -40.6360
   -40.6349 -40.6313 -40.6312 -40.6312 -40.6312 -40.6308 -40.6308 -40.6307
   -40.6307 -40.6307 -40.6306 -40.6306 -40.6306 -40.6304 -40.6304 -40.6300
   -40.6300 -40.6299 -40.6299 -40.6286 -40.6259 -40.6220 -40.6220 -40.6220
   -40.6220 -40.6213 -40.6213 -40.6205 -40.6185 -40.6095 -40.6086 -40.6004
   -40.6003 -40.6003 -40.6003 -40.6003 -40.6003 -40.6002 -40.6002 -40.5994
   -40.5994 -40.5994 -40.5994 -40.5902 -40.5878 -40.5823 -40.5751 -40.5656
   -40.5656 -40.5656 -40.5656 -40.5656 -40.5656 -40.5655 -40.5655 -40.5646
   -40.5646 -40.5646 -40.5646 -40.5539 -40.5534 -40.5534 -40.5534 -40.5534
   -40.5525 -40.5524 -40.5476 -40.5461 -40.5415 -40.5406 -40.5342 -40.5341
   -40.5341 -40.5340 -40.5331 -40.5331 -40.5227 -40.5171 -40.5171 -40.5171
   -40.5170 -40.5161 -40.5161 -40.5161 -40.5126 -40.4964 -40.4890 -40.4865
   -40.4864 -40.4864 -40.4864 -40.4854 -40.4854 -40.4736 -40.4535 -19.8767
   -19.8263 -19.7909 -19.7706 -19.6899 -19.6762 -19.5843 -19.5799 -19.4194
   -19.4102 -19.3527 -19.3505 -19.2588 -19.2571 -19.1581 -19.1573 -18.8632
   -18.8161 -18.7953 -18.7313 -18.6966 -18.6826 -18.6521 -18.6506 -18.6498
   -18.6436 -18.6313 -18.6159 -18.5845 -18.5796 -18.5738 -18.5688 -18.5314
   -18.5145 -18.5011 -18.4845 -18.4828 -18.4798 -18.4729 -18.4570 -18.4485
   -18.4166 -18.4123 -18.4098 -18.3983 -18.3767 -18.3420 -18.3378 -18.3372
   -18.3199 -18.3097 -18.2891 -18.2726 -18.2616 -18.2519 -18.2160 -18.2028
   -18.1874 -18.1785 -18.1663 -18.1439 -18.1213 -18.1132 -18.1044 -18.0776
   -18.0673 -18.0574 -18.0468 -18.0351 -18.0313 -18.0282 -18.0268 -18.0223
   -18.0049 -18.0040 -18.0002 -17.9989 -17.9938 -17.9916 -17.9888 -17.9826
   -17.9793 -17.9744 -17.9644 -17.9400 -17.9380 -17.9361 -17.9329 -17.9295
   -17.9291 -17.9273 -17.9229 -17.9172 -17.9119 -17.8797 -17.8751 -17.8709
   -17.8654 -17.8610 -17.8559 -17.8246 -17.8219 -17.8199 -17.8104 -17.8018
   -17.7819 -17.7765 -17.7741 -17.7702 -17.7682 -17.7492 -17.7490 -17.7483
   -17.7478 -17.7474 -17.7467 -17.7353 -17.7335 -17.7166 -17.7130 -17.6918
   -17.6886 -17.6728 -17.6686 -17.6572 -17.6548 -17.6489 -17.6485 -11.8731
   -11.6615 -11.6550 -11.6015 -11.5786 -11.5200 -11.4692 -11.4515 -11.4382
   -11.4282 -11.4253 -11.4220 -11.4093 -11.3965 -11.3847 -11.3762 -11.3465
   -11.3178 -11.3082 -11.3057 -11.2885 -11.2789 -11.2671 -11.2518 -11.2462
   -11.2191 -11.2049 -11.1995 -11.1955 -11.1900 -11.1858 -11.1845 -11.1726
   -11.1391 -11.1368 -11.1305 -11.1213 -11.1161 -11.1013 -11.0991 -11.0973
   -11.0943 -11.0785 -11.0764 -11.0643 -11.0546 -11.0238 -11.0217 -10.9921
   -10.9891 -10.9752 -10.9380 -10.9152 -10.9042 -10.8900 -10.8758 -10.8613
   -10.8535 -10.8430 -10.8364 -10.8309 -10.8101 -10.7910 -10.7851 -10.7666
   -10.7633 -10.7609 -10.7549 -10.7414 -10.7408 -10.7400 -10.7397 -10.7350
   -10.7331 -10.7281 -10.7249 -10.7218 -10.7215 -10.7134 -10.7129 -10.7113
   -10.7100 -10.6732 -10.6729 -10.6724 -10.6722 -10.6273 -10.5781 -10.4842
   -10.4748 -10.4611 -10.4564 -10.4308 -10.4070 -10.3467 -10.3445 -10.3139
   -10.2667 -10.1991 -10.1769 -10.1089 -10.0863 -10.0669 -10.0635 -10.0458
   -10.0401 -10.0277 -10.0244  -9.9965  -9.9865  -9.9739  -9.9694  -9.9652
    -9.9627  -9.9470  -9.9397  -9.9320  -9.9194  -9.8714  -9.8660  -9.8590
    -9.8498  -9.8448  -9.8416  -9.8238  -9.8208  -9.8057  -9.7998  -9.7867
    -9.7696  -9.7594  -9.7430  -9.7194  -9.7147  -9.7046  -9.6987  -9.6770
    -9.6713  -9.6567  -9.6390  -9.6262  -9.6186  -9.5915  -9.5858  -9.5668
    -9.5581  -9.5470  -9.5396  -9.5193  -9.5033  -9.4921  -9.4862  -9.4738
    -9.4721  -9.4610  -9.4473  -9.4225  -9.4197  -9.4183  -9.4074  -9.4019
    -9.3953  -9.3888  -9.3867  -9.3846  -9.3709  -9.3666  -9.3558  -9.3176
    -9.2970  -9.2834  -9.2706  -9.2439  -9.2052  -9.1850  -9.1732  -9.1540
    -9.1409  -9.1382  -9.1331  -9.1307  -9.1094  -9.0916  -9.0792  -9.0730
    -9.0538  -9.0341  -9.0335  -9.0261  -9.0138  -9.0006  -8.9929  -8.9782
    -8.9758  -8.9682  -8.9641  -8.9431  -8.9298  -8.9083  -8.9027  -8.8930
    -8.8801  -8.8750  -8.8705  -8.8617  -8.8492  -8.8368  -8.8314  -8.8194
    -8.8170  -8.8160  -8.8153  -8.8119  -8.8052  -8.8024  -8.7982  -8.7972
    -8.7893  -8.7882  -8.7786  -8.7752  -8.7703  -8.7689  -8.7685  -8.7577
    -8.7450  -8.7296  -8.7230  -8.7214  -8.7176  -8.7136  -8.7134  -8.6928
    -8.6913  -8.6892  -8.6633  -8.6617  -8.6592  -8.6558  -8.6431  -8.6359
    -8.6014  -8.5867  -8.5814  -8.5708  -8.5229  -8.4352  -8.4325  -8.4296
    -8.4017  -8.3838  -8.3675  -8.3290  -8.2872  -8.2768  -8.2493  -8.2107
    -8.1852  -8.1452  -8.0645  -8.0569  -8.0564  -8.0497  -8.0473  -8.0468
    -8.0364  -8.0362  -8.0023  -7.9918  -7.9873  -7.9588  -7.9106  -7.8981
    -7.8929  -7.8572  -7.8090  -7.8019  -7.7827  -7.7715  -7.7661  -7.7622
    -7.7565  -7.7480  -7.7466  -7.7423  -7.7387  -7.7335  -7.7321  -7.7282
    -7.7249  -7.7208  -7.7180  -7.7124  -7.7108  -7.7082  -7.7028  -7.6996
    -7.6971  -7.6955  -7.6935  -7.6926  -7.6921  -7.6888  -7.6871  -7.6837
    -7.6746  -7.6624  -7.6606  -7.6587  -7.6582  -7.6385  -7.6277  -7.6263
    -7.6254  -7.6250  -7.6054  -7.5956  -7.5952  -7.5941  -7.5924  -7.5875
    -7.5798  -7.5628  -7.5528  -7.5388  -7.5375  -7.5346  -7.5304  -7.5294
    -7.5261  -7.5145  -7.5139  -7.5045  -7.4949  -7.4930  -7.4923  -7.4829
    -7.4810  -7.4756  -7.4658  -7.3964  -7.3905  -7.3886  -7.3839  -7.3691
    -7.3639  -7.3157  -7.2842  -7.1862  -7.1473  -7.1226  -7.1047  -7.0970
    -7.0952  -7.0921  -7.0662  -7.0504  -7.0424  -7.0378  -7.0254  -7.0176
    -7.0141  -6.9855  -6.9617  -6.9585  -6.9525  -6.9368  -6.9239  -6.9077
    -6.9051  -6.8929  -6.8681  -6.8478  -6.8443  -6.8397  -6.8360  -6.8116
    -6.8037  -6.7886  -6.7878  -6.7853  -6.7594  -6.7302  -6.7057  -6.6995
    -6.6876  -6.6731  -6.6537  -6.6206  -6.6147  -6.5955  -6.5735  -6.5588
    -6.5471  -6.5398  -6.5366  -6.5346  -6.5341  -6.5300  -6.5259  -6.5173
    -6.5168  -6.5155  -6.5145  -6.5082  -6.5081  -6.5079  -6.5076  -6.4896
    -6.4663  -6.4384  -6.4064  -6.3749  -6.3460  -6.3227  -6.2828  -6.2561
    -6.2526  -6.2501  -6.2491  -6.2360  -6.2276  -6.2228  -6.2065  -6.2063
    -6.2020  -6.2017  -6.1994  -6.1957  -6.1818  -6.1791  -6.1572  -6.1471
    -6.1462  -6.1325  -6.1315  -6.1233  -6.1198  -6.0094  -5.9444  -5.9280
    -5.9160  -5.8950  -5.8577  -5.8452  -5.8324  -5.7824  -5.7776  -5.7307
    -5.6864  -5.6809  -5.6470  -5.6138  -5.5774  -5.5543  -5.5369  -5.4975
    -5.4221  -4.1735  -4.0296  -4.0238  -4.0159  -3.9900  -3.8854  -3.8649
    -3.8548  -3.8477  -3.8462  -3.7923  -3.7730  -3.7693  -3.7599  -3.7520
    -3.7420  -3.7365  -3.7315  -3.7274  -3.7243  -3.6863  -3.6468  -3.6240
    -3.6184  -3.5829  -3.5452  -3.5418  -3.5329  -3.5299  -3.5266  -3.5012
    -3.4829  -3.4796  -3.4722  -3.4573  -3.4539  -3.4489  -3.4414  -3.4345
    -3.4324  -3.4155  -3.4114  -3.4077  -3.4060  -3.4038  -3.4021  -3.3930
    -3.3802  -3.3770  -3.3749  -3.3605  -3.3575  -3.3482  -3.3375  -3.3266
    -3.3050  -3.2854  -3.2802  -3.2762  -3.2739  -3.2726  -3.2671  -3.2634
    -3.2608  -3.2334  -3.2224  -3.2207  -3.2142  -3.2109  -3.2077  -3.2057
    -3.2047  -3.1984  -3.1902  -3.1789  -3.1714  -3.1668  -3.1631  -3.1595
    -3.1556  -3.1427  -3.1396  -3.1358  -3.1294  -3.1193  -3.1165  -3.1066
    -3.1026  -3.1017  -3.0968  -3.0906  -3.0895  -3.0894  -3.0774  -3.0597
    -3.0260  -3.0139  -3.0098  -3.0051  -3.0009  -2.9914  -2.9865  -2.9612
    -2.9555  -2.9509  -2.9504  -2.9486  -2.9479  -2.9437  -2.9414  -2.9364
    -2.9333  -2.9329  -2.9301  -2.9186  -2.9158  -2.9140  -2.9111  -2.9099
    -2.9038  -2.8996  -2.8953  -2.8932  -2.8890  -2.8772  -2.8743  -2.8722
    -2.8646  -2.8620  -2.8582  -2.8499  -2.8460  -2.8337  -2.8285  -2.8208
    -2.8149  -2.8081  -2.8032  -2.8005  -2.7787  -2.7296  -2.7274  -2.7182
    -2.7144  -2.6753  -2.6587  -2.6450  -2.6401  -2.5589  -2.5383  -2.5241
    -2.5184  -2.5002  -2.4870  -2.4851  -2.4724  -2.4643  -2.4593  -2.4550
    -2.4503  -2.4498  -2.4310  -2.3613  -2.3327  -2.3309  -2.3255  -2.3173
    -2.3090  -2.2998  -2.2700  -2.2695

          k =-0.5000-0.2887 0.0000 (386352 PWs)   bands (ev):

  -102.9601 -88.6627 -71.2712 -71.2552 -71.2493 -71.2467 -71.2343 -71.2316
   -71.2240 -66.5526 -66.5511 -66.5486 -66.5486 -66.5486 -66.5486 -66.5473
   -66.5473 -66.5388 -66.5380 -66.5379 -66.5379 -66.5379 -66.5366 -66.5366
   -66.5358 -66.5318 -66.5274 -66.5229 -66.5229 -66.5228 -66.5228 -66.5228
   -66.5228 -66.5228 -66.5228 -66.5215 -66.5215 -66.5215 -66.5215 -66.5184
   -66.5184 -66.5184 -66.5184 -66.5171 -66.5171 -66.5143 -66.5137 -66.5122
   -66.5122 -66.5122 -66.5122 -66.5122 -66.5121 -66.5121 -66.5121 -66.5108
   -66.5108 -66.5108 -66.5108 -66.5077 -66.5077 -66.5077 -66.5077 -66.5064
   -66.5064 -66.5017 -66.5002 -66.4984 -66.4981 -66.4938 -66.4899 -66.4742
   -66.4667 -57.2148 -57.1925 -57.1751 -54.4765 -54.4660 -54.4524 -40.8512
   -40.8506 -40.8506 -40.8506 -40.8505 -40.8505 -40.8505 -40.8505 -40.8505
   -40.8499 -40.8499 -40.8499 -40.8499 -40.8490 -40.8269 -40.8238 -40.8238
   -40.8237 -40.8237 -40.8231 -40.8231 -40.8219 -40.8153 -40.8117 -40.8117
   -40.8117 -40.8116 -40.8110 -40.8110 -40.8085 -40.7915 -40.7814 -40.7670
   -40.7610 -40.7610 -40.7610 -40.7610 -40.7610 -40.7610 -40.7609 -40.7609
   -40.7603 -40.7603 -40.7603 -40.7603 -40.7492 -40.7417 -40.7402 -40.7355
   -40.7322 -40.7085 -40.7023 -40.7022 -40.7022 -40.7021 -40.7016 -40.7015
   -40.6928 -40.6927 -40.6927 -40.6926 -40.6919 -40.6919 -40.6887 -40.6814
   -40.6814 -40.6813 -40.6813 -40.6807 -40.6807 -40.6761 -40.6736 -40.6710
   -40.6682 -40.6548 -40.6518 -40.6518 -40.6517 -40.6517 -40.6517 -40.6517
   -40.6517 -40.6517 -40.6511 -40.6510 -40.6510 -40.6510 -40.6510 -40.6431
   -40.6430 -40.6430 -40.6429 -40.6429 -40.6423 -40.6423 -40.6398 -40.6359
   -40.6349 -40.6313 -40.6312 -40.6312 -40.6312 -40.6308 -40.6308 -40.6307
   -40.6307 -40.6307 -40.6306 -40.6306 -40.6306 -40.6304 -40.6304 -40.6300
   -40.6300 -40.6299 -40.6299 -40.6286 -40.6259 -40.6220 -40.6220 -40.6220
   -40.6220 -40.6213 -40.6213 -40.6205 -40.6185 -40.6095 -40.6086 -40.6004
   -40.6003 -40.6003 -40.6003 -40.6003 -40.6003 -40.6002 -40.6002 -40.5994
   -40.5994 -40.5994 -40.5994 -40.5902 -40.5878 -40.5823 -40.5751 -40.5656
   -40.5656 -40.5656 -40.5656 -40.5656 -40.5655 -40.5655 -40.5655 -40.5646
   -40.5646 -40.5646 -40.5646 -40.5539 -40.5534 -40.5534 -40.5534 -40.5534
   -40.5525 -40.5524 -40.5476 -40.5461 -40.5415 -40.5406 -40.5342 -40.5341
   -40.5341 -40.5340 -40.5331 -40.5331 -40.5227 -40.5171 -40.5171 -40.5171
   -40.5170 -40.5161 -40.5161 -40.5161 -40.5126 -40.4964 -40.4890 -40.4865
   -40.4864 -40.4864 -40.4864 -40.4854 -40.4854 -40.4736 -40.4535 -19.8767
   -19.8263 -19.7909 -19.7706 -19.6899 -19.6762 -19.5843 -19.5799 -19.4194
   -19.4102 -19.3526 -19.3505 -19.2588 -19.2571 -19.1580 -19.1573 -18.8632
   -18.8161 -18.7953 -18.7313 -18.6966 -18.6826 -18.6521 -18.6506 -18.6498
   -18.6436 -18.6313 -18.6159 -18.5845 -18.5796 -18.5738 -18.5688 -18.5314
   -18.5145 -18.5011 -18.4845 -18.4828 -18.4798 -18.4729 -18.4570 -18.4485
   -18.4166 -18.4123 -18.4098 -18.3983 -18.3767 -18.3420 -18.3378 -18.3372
   -18.3199 -18.3097 -18.2891 -18.2726 -18.2616 -18.2519 -18.2160 -18.2028
   -18.1874 -18.1785 -18.1663 -18.1439 -18.1213 -18.1132 -18.1044 -18.0776
   -18.0673 -18.0574 -18.0468 -18.0351 -18.0313 -18.0282 -18.0268 -18.0223
   -18.0049 -18.0040 -18.0002 -17.9989 -17.9938 -17.9916 -17.9888 -17.9826
   -17.9793 -17.9744 -17.9644 -17.9400 -17.9380 -17.9361 -17.9329 -17.9295
   -17.9291 -17.9273 -17.9229 -17.9172 -17.9119 -17.8797 -17.8750 -17.8709
   -17.8654 -17.8610 -17.8559 -17.8246 -17.8219 -17.8199 -17.8104 -17.8018
   -17.7819 -17.7765 -17.7741 -17.7702 -17.7682 -17.7492 -17.7490 -17.7483
   -17.7478 -17.7473 -17.7467 -17.7353 -17.7335 -17.7166 -17.7130 -17.6918
   -17.6886 -17.6728 -17.6686 -17.6572 -17.6548 -17.6489 -17.6485 -11.8731
   -11.6615 -11.6550 -11.6015 -11.5786 -11.5200 -11.4692 -11.4516 -11.4382
   -11.4282 -11.4252 -11.4220 -11.4093 -11.3965 -11.3847 -11.3762 -11.3465
   -11.3178 -11.3082 -11.3057 -11.2885 -11.2789 -11.2671 -11.2518 -11.2462
   -11.2191 -11.2049 -11.1994 -11.1955 -11.1900 -11.1858 -11.1845 -11.1726
   -11.1391 -11.1368 -11.1305 -11.1213 -11.1161 -11.1013 -11.0991 -11.0973
   -11.0943 -11.0785 -11.0764 -11.0643 -11.0546 -11.0238 -11.0217 -10.9921
   -10.9891 -10.9752 -10.9380 -10.9152 -10.9042 -10.8900 -10.8758 -10.8613
   -10.8535 -10.8430 -10.8364 -10.8309 -10.8101 -10.7910 -10.7851 -10.7665
   -10.7633 -10.7609 -10.7549 -10.7414 -10.7409 -10.7400 -10.7397 -10.7350
   -10.7331 -10.7281 -10.7249 -10.7218 -10.7215 -10.7134 -10.7129 -10.7113
   -10.7100 -10.6732 -10.6729 -10.6724 -10.6721 -10.6273 -10.5781 -10.4842
   -10.4748 -10.4611 -10.4564 -10.4308 -10.4070 -10.3467 -10.3445 -10.3138
   -10.2667 -10.1991 -10.1769 -10.1089 -10.0863 -10.0669 -10.0635 -10.0459
   -10.0401 -10.0277 -10.0244  -9.9965  -9.9865  -9.9739  -9.9694  -9.9652
    -9.9627  -9.9470  -9.9397  -9.9320  -9.9194  -9.8714  -9.8660  -9.8590
    -9.8498  -9.8448  -9.8416  -9.8238  -9.8208  -9.8057  -9.7998  -9.7867
    -9.7696  -9.7594  -9.7430  -9.7195  -9.7147  -9.7046  -9.6987  -9.6770
    -9.6713  -9.6567  -9.6390  -9.6262  -9.6186  -9.5915  -9.5857  -9.5668
    -9.5581  -9.5470  -9.5396  -9.5194  -9.5033  -9.4921  -9.4862  -9.4738
    -9.4721  -9.4610  -9.4473  -9.4225  -9.4197  -9.4183  -9.4074  -9.4019
    -9.3953  -9.3888  -9.3866  -9.3846  -9.3709  -9.3666  -9.3558  -9.3176
    -9.2970  -9.2834  -9.2706  -9.2439  -9.2052  -9.1850  -9.1732  -9.1540
    -9.1409  -9.1382  -9.1331  -9.1307  -9.1094  -9.0916  -9.0792  -9.0730
    -9.0538  -9.0341  -9.0335  -9.0261  -9.0138  -9.0006  -8.9929  -8.9782
    -8.9758  -8.9682  -8.9641  -8.9431  -8.9298  -8.9083  -8.9027  -8.8930
    -8.8801  -8.8750  -8.8705  -8.8617  -8.8492  -8.8368  -8.8314  -8.8194
    -8.8170  -8.8160  -8.8153  -8.8119  -8.8052  -8.8024  -8.7982  -8.7972
    -8.7893  -8.7882  -8.7786  -8.7752  -8.7703  -8.7689  -8.7685  -8.7576
    -8.7450  -8.7296  -8.7230  -8.7214  -8.7176  -8.7137  -8.7133  -8.6928
    -8.6913  -8.6892  -8.6633  -8.6617  -8.6592  -8.6558  -8.6431  -8.6359
    -8.6014  -8.5867  -8.5814  -8.5708  -8.5229  -8.4352  -8.4325  -8.4296
    -8.4016  -8.3838  -8.3675  -8.3290  -8.2871  -8.2768  -8.2493  -8.2107
    -8.1852  -8.1452  -8.0645  -8.0569  -8.0564  -8.0497  -8.0473  -8.0468
    -8.0364  -8.0361  -8.0023  -7.9918  -7.9873  -7.9588  -7.9106  -7.8981
    -7.8928  -7.8571  -7.8090  -7.8019  -7.7827  -7.7715  -7.7661  -7.7621
    -7.7565  -7.7480  -7.7466  -7.7423  -7.7387  -7.7335  -7.7321  -7.7282
    -7.7248  -7.7208  -7.7180  -7.7124  -7.7108  -7.7082  -7.7028  -7.6996
    -7.6971  -7.6955  -7.6936  -7.6926  -7.6921  -7.6888  -7.6871  -7.6837
    -7.6747  -7.6625  -7.6606  -7.6587  -7.6582  -7.6385  -7.6277  -7.6263
    -7.6254  -7.6250  -7.6054  -7.5956  -7.5953  -7.5941  -7.5924  -7.5875
    -7.5798  -7.5628  -7.5528  -7.5388  -7.5374  -7.5346  -7.5304  -7.5294
    -7.5261  -7.5145  -7.5139  -7.5045  -7.4949  -7.4930  -7.4923  -7.4829
    -7.4810  -7.4756  -7.4658  -7.3964  -7.3905  -7.3886  -7.3839  -7.3691
    -7.3639  -7.3157  -7.2842  -7.1862  -7.1473  -7.1226  -7.1047  -7.0970
    -7.0952  -7.0921  -7.0662  -7.0504  -7.0424  -7.0378  -7.0254  -7.0176
    -7.0141  -6.9855  -6.9617  -6.9585  -6.9525  -6.9368  -6.9239  -6.9077
    -6.9051  -6.8929  -6.8681  -6.8478  -6.8443  -6.8397  -6.8360  -6.8116
    -6.8037  -6.7887  -6.7878  -6.7853  -6.7594  -6.7302  -6.7057  -6.6995
    -6.6876  -6.6731  -6.6537  -6.6206  -6.6147  -6.5955  -6.5735  -6.5588
    -6.5471  -6.5398  -6.5366  -6.5347  -6.5341  -6.5300  -6.5259  -6.5173
    -6.5168  -6.5155  -6.5145  -6.5083  -6.5081  -6.5079  -6.5076  -6.4896
    -6.4663  -6.4384  -6.4064  -6.3749  -6.3460  -6.3227  -6.2828  -6.2561
    -6.2526  -6.2501  -6.2491  -6.2360  -6.2276  -6.2228  -6.2065  -6.2063
    -6.2020  -6.2017  -6.1994  -6.1957  -6.1818  -6.1791  -6.1571  -6.1471
    -6.1462  -6.1326  -6.1314  -6.1233  -6.1199  -6.0094  -5.9444  -5.9280
    -5.9160  -5.8950  -5.8577  -5.8452  -5.8324  -5.7824  -5.7776  -5.7307
    -5.6864  -5.6809  -5.6470  -5.6138  -5.5774  -5.5543  -5.5369  -5.4975
    -5.4221  -4.1735  -4.0296  -4.0238  -4.0160  -3.9900  -3.8854  -3.8649
    -3.8548  -3.8477  -3.8462  -3.7923  -3.7730  -3.7693  -3.7599  -3.7520
    -3.7420  -3.7365  -3.7315  -3.7274  -3.7242  -3.6862  -3.6468  -3.6240
    -3.6184  -3.5829  -3.5452  -3.5418  -3.5330  -3.5300  -3.5265  -3.5011
    -3.4829  -3.4796  -3.4722  -3.4573  -3.4539  -3.4489  -3.4414  -3.4345
    -3.4324  -3.4155  -3.4114  -3.4077  -3.4059  -3.4038  -3.4021  -3.3930
    -3.3802  -3.3770  -3.3749  -3.3605  -3.3574  -3.3481  -3.3375  -3.3266
    -3.3050  -3.2853  -3.2802  -3.2762  -3.2739  -3.2726  -3.2671  -3.2634
    -3.2608  -3.2334  -3.2224  -3.2207  -3.2142  -3.2109  -3.2077  -3.2057
    -3.2047  -3.1984  -3.1902  -3.1788  -3.1714  -3.1668  -3.1631  -3.1595
    -3.1556  -3.1427  -3.1396  -3.1358  -3.1294  -3.1192  -3.1166  -3.1066
    -3.1025  -3.1017  -3.0967  -3.0906  -3.0895  -3.0894  -3.0773  -3.0596
    -3.0259  -3.0138  -3.0098  -3.0051  -3.0008  -2.9913  -2.9865  -2.9611
    -2.9555  -2.9509  -2.9504  -2.9486  -2.9478  -2.9436  -2.9413  -2.9363
    -2.9332  -2.9328  -2.9301  -2.9186  -2.9157  -2.9139  -2.9111  -2.9100
    -2.9036  -2.8993  -2.8951  -2.8931  -2.8889  -2.8771  -2.8743  -2.8722
    -2.8646  -2.8619  -2.8582  -2.8495  -2.8460  -2.8336  -2.8282  -2.8205
    -2.8143  -2.8079  -2.8033  -2.8012  -2.7786  -2.7302  -2.7262  -2.7179
    -2.7141  -2.6753  -2.6584  -2.6447  -2.6401  -2.5548  -2.5378  -2.5213
    -2.5138  -2.4991  -2.4853  -2.4828  -2.4719  -2.4633  -2.4574  -2.4548
    -2.4496  -2.4452  -2.4265  -2.3574  -2.3334  -2.3314  -2.3223  -2.3153
    -2.3076  -2.3029  -2.2694  -2.2688

          k =-0.5000-0.8660 0.0000 (386352 PWs)   bands (ev):

  -102.9601 -88.6627 -71.2712 -71.2552 -71.2493 -71.2467 -71.2343 -71.2316
   -71.2240 -66.5530 -66.5503 -66.5486 -66.5486 -66.5486 -66.5486 -66.5473
   -66.5473 -66.5405 -66.5380 -66.5379 -66.5379 -66.5379 -66.5367 -66.5366
   -66.5333 -66.5333 -66.5267 -66.5232 -66.5229 -66.5228 -66.5228 -66.5228
   -66.5228 -66.5227 -66.5227 -66.5215 -66.5215 -66.5215 -66.5215 -66.5184
   -66.5184 -66.5184 -66.5184 -66.5171 -66.5171 -66.5146 -66.5139 -66.5124
   -66.5123 -66.5122 -66.5121 -66.5121 -66.5121 -66.5120 -66.5119 -66.5108
   -66.5108 -66.5108 -66.5108 -66.5078 -66.5077 -66.5077 -66.5076 -66.5064
   -66.5064 -66.5017 -66.5017 -66.4980 -66.4960 -66.4941 -66.4903 -66.4743
   -66.4667 -57.2148 -57.1925 -57.1751 -54.4765 -54.4660 -54.4524 -40.8507
   -40.8506 -40.8506 -40.8506 -40.8506 -40.8505 -40.8504 -40.8504 -40.8499
   -40.8499 -40.8499 -40.8499 -40.8417 -40.8400 -40.8384 -40.8280 -40.8243
   -40.8238 -40.8237 -40.8237 -40.8237 -40.8231 -40.8230 -40.8117 -40.8117
   -40.8117 -40.8116 -40.8110 -40.8110 -40.8088 -40.7959 -40.7736 -40.7669
   -40.7610 -40.7610 -40.7610 -40.7610 -40.7610 -40.7610 -40.7610 -40.7609
   -40.7603 -40.7603 -40.7603 -40.7603 -40.7500 -40.7388 -40.7371 -40.7324
   -40.7299 -40.7056 -40.7023 -40.7022 -40.7022 -40.7021 -40.7016 -40.7015
   -40.6928 -40.6927 -40.6927 -40.6926 -40.6919 -40.6919 -40.6916 -40.6814
   -40.6814 -40.6813 -40.6813 -40.6807 -40.6807 -40.6801 -40.6793 -40.6669
   -40.6605 -40.6554 -40.6519 -40.6519 -40.6517 -40.6517 -40.6517 -40.6517
   -40.6516 -40.6516 -40.6510 -40.6510 -40.6510 -40.6510 -40.6510 -40.6461
   -40.6430 -40.6430 -40.6430 -40.6429 -40.6423 -40.6423 -40.6423 -40.6370
   -40.6316 -40.6313 -40.6312 -40.6312 -40.6311 -40.6309 -40.6308 -40.6307
   -40.6307 -40.6307 -40.6306 -40.6305 -40.6305 -40.6304 -40.6304 -40.6300
   -40.6300 -40.6300 -40.6299 -40.6281 -40.6254 -40.6224 -40.6220 -40.6220
   -40.6220 -40.6220 -40.6215 -40.6213 -40.6213 -40.6085 -40.6079 -40.6004
   -40.6004 -40.6004 -40.6003 -40.6003 -40.6002 -40.6002 -40.6001 -40.5994
   -40.5994 -40.5994 -40.5993 -40.5892 -40.5890 -40.5847 -40.5813 -40.5656
   -40.5656 -40.5656 -40.5656 -40.5656 -40.5656 -40.5655 -40.5655 -40.5646
   -40.5646 -40.5646 -40.5646 -40.5535 -40.5534 -40.5534 -40.5534 -40.5525
   -40.5524 -40.5519 -40.5486 -40.5444 -40.5416 -40.5342 -40.5341 -40.5341
   -40.5340 -40.5340 -40.5331 -40.5331 -40.5290 -40.5174 -40.5172 -40.5171
   -40.5171 -40.5170 -40.5161 -40.5161 -40.5120 -40.4928 -40.4865 -40.4864
   -40.4864 -40.4864 -40.4854 -40.4854 -40.4847 -40.4689 -40.4612 -19.8626
   -19.8371 -19.7887 -19.7796 -19.6888 -19.6819 -19.5843 -19.5815 -19.4086
   -19.4072 -19.3498 -19.3493 -19.2565 -19.2562 -19.1570 -19.1570 -18.8870
   -18.8420 -18.8116 -18.7249 -18.6849 -18.6588 -18.6519 -18.6507 -18.6499
   -18.6278 -18.6174 -18.6073 -18.5804 -18.5797 -18.5697 -18.5544 -18.5371
   -18.5349 -18.5045 -18.4858 -18.4852 -18.4808 -18.4694 -18.4586 -18.4520
   -18.4338 -18.4193 -18.4084 -18.3989 -18.3875 -18.3413 -18.3392 -18.3361
   -18.3294 -18.2995 -18.2829 -18.2629 -18.2626 -18.2567 -18.2078 -18.1903
   -18.1871 -18.1791 -18.1552 -18.1330 -18.1258 -18.1111 -18.1081 -18.0954
   -18.0696 -18.0543 -18.0381 -18.0361 -18.0329 -18.0282 -18.0247 -18.0243
   -18.0176 -18.0030 -17.9992 -17.9988 -17.9968 -17.9917 -17.9831 -17.9815
   -17.9785 -17.9748 -17.9728 -17.9406 -17.9376 -17.9365 -17.9346 -17.9322
   -17.9271 -17.9263 -17.9253 -17.9180 -17.9126 -17.8835 -17.8741 -17.8715
   -17.8656 -17.8627 -17.8608 -17.8238 -17.8231 -17.8191 -17.8120 -17.7967
   -17.7806 -17.7760 -17.7722 -17.7688 -17.7630 -17.7489 -17.7488 -17.7486
   -17.7475 -17.7475 -17.7469 -17.7355 -17.7333 -17.7171 -17.7125 -17.6924
   -17.6882 -17.6733 -17.6680 -17.6574 -17.6542 -17.6489 -17.6484 -11.8647
   -11.6619 -11.6486 -11.6203 -11.5555 -11.5384 -11.4715 -11.4650 -11.4369
   -11.4283 -11.4279 -11.4248 -11.4172 -11.4053 -11.3899 -11.3700 -11.3377
   -11.3188 -11.3126 -11.2984 -11.2848 -11.2643 -11.2632 -11.2512 -11.2450
   -11.2122 -11.2045 -11.1994 -11.1978 -11.1913 -11.1837 -11.1826 -11.1644
   -11.1409 -11.1345 -11.1290 -11.1223 -11.1165 -11.1142 -11.0993 -11.0968
   -11.0942 -11.0764 -11.0760 -11.0572 -11.0466 -11.0356 -11.0246 -10.9980
   -10.9867 -10.9796 -10.9517 -10.9075 -10.9059 -10.9021 -10.8725 -10.8642
   -10.8446 -10.8437 -10.8417 -10.8366 -10.8079 -10.7788 -10.7771 -10.7672
   -10.7605 -10.7500 -10.7492 -10.7435 -10.7409 -10.7405 -10.7397 -10.7359
   -10.7347 -10.7266 -10.7264 -10.7225 -10.7217 -10.7136 -10.7129 -10.7118
   -10.7087 -10.6733 -10.6729 -10.6724 -10.6720 -10.6085 -10.5795 -10.5282
   -10.4748 -10.4619 -10.4590 -10.4462 -10.4138 -10.3672 -10.3309 -10.2658
   -10.2488 -10.2059 -10.1506 -10.1356 -10.0828 -10.0698 -10.0602 -10.0535
   -10.0467 -10.0232 -10.0130 -10.0042  -9.9879  -9.9750  -9.9649  -9.9623
    -9.9600  -9.9514  -9.9320  -9.9279  -9.9179  -9.8999  -9.8648  -9.8602
    -9.8524  -9.8457  -9.8353  -9.8271  -9.8200  -9.8101  -9.7889  -9.7861
    -9.7717  -9.7604  -9.7394  -9.7240  -9.7150  -9.7130  -9.6893  -9.6859
    -9.6720  -9.6459  -9.6260  -9.6227  -9.6049  -9.5925  -9.5921  -9.5680
    -9.5566  -9.5511  -9.5318  -9.5193  -9.5050  -9.5006  -9.4771  -9.4738
    -9.4685  -9.4603  -9.4571  -9.4411  -9.4221  -9.4177  -9.4065  -9.4036
    -9.3990  -9.3896  -9.3856  -9.3841  -9.3758  -9.3628  -9.3521  -9.3307
    -9.3072  -9.2943  -9.2722  -9.2344  -9.2086  -9.1838  -9.1726  -9.1722
    -9.1497  -9.1343  -9.1298  -9.1158  -9.1064  -9.0995  -9.0912  -9.0734
    -9.0517  -9.0467  -9.0314  -9.0149  -9.0126  -8.9938  -8.9932  -8.9738
    -8.9690  -8.9680  -8.9603  -8.9311  -8.9249  -8.9224  -8.9054  -8.8906
    -8.8803  -8.8707  -8.8674  -8.8645  -8.8441  -8.8212  -8.8196  -8.8183
    -8.8169  -8.8135  -8.8122  -8.8086  -8.8063  -8.7993  -8.7978  -8.7932
    -8.7908  -8.7858  -8.7833  -8.7810  -8.7755  -8.7699  -8.7689  -8.7682
    -8.7426  -8.7226  -8.7216  -8.7210  -8.7171  -8.7146  -8.7112  -8.6977
    -8.6922  -8.6912  -8.6687  -8.6618  -8.6607  -8.6569  -8.6476  -8.6350
    -8.5897  -8.5848  -8.5800  -8.5452  -8.5183  -8.4468  -8.4314  -8.4308
    -8.3953  -8.3716  -8.3674  -8.3405  -8.2912  -8.2901  -8.2710  -8.2557
    -8.1973  -8.1622  -8.0574  -8.0569  -8.0527  -8.0480  -8.0461  -8.0366
    -8.0360  -8.0086  -7.9972  -7.9961  -7.9756  -7.9423  -7.8991  -7.8965
    -7.8593  -7.8521  -7.8263  -7.8204  -7.7857  -7.7857  -7.7687  -7.7605
    -7.7549  -7.7503  -7.7474  -7.7473  -7.7334  -7.7331  -7.7304  -7.7274
    -7.7254  -7.7202  -7.7140  -7.7120  -7.7119  -7.7080  -7.7045  -7.7042
    -7.6976  -7.6958  -7.6933  -7.6930  -7.6911  -7.6910  -7.6871  -7.6867
    -7.6644  -7.6623  -7.6604  -7.6570  -7.6565  -7.6282  -7.6264  -7.6262
    -7.6248  -7.6120  -7.6080  -7.5973  -7.5959  -7.5941  -7.5927  -7.5863
    -7.5849  -7.5704  -7.5622  -7.5417  -7.5389  -7.5375  -7.5319  -7.5311
    -7.5286  -7.5157  -7.5142  -7.5139  -7.5011  -7.4935  -7.4933  -7.4830
    -7.4816  -7.4771  -7.4612  -7.4026  -7.3902  -7.3890  -7.3860  -7.3657
    -7.3512  -7.3032  -7.2891  -7.1841  -7.1161  -7.1088  -7.1038  -7.1005
    -7.0937  -7.0917  -7.0648  -7.0644  -7.0468  -7.0350  -7.0333  -7.0170
    -7.0044  -6.9934  -6.9822  -6.9661  -6.9523  -6.9513  -6.9476  -6.9048
    -6.9043  -6.8657  -6.8534  -6.8494  -6.8441  -6.8434  -6.8381  -6.8139
    -6.8016  -6.7888  -6.7885  -6.7836  -6.7455  -6.7185  -6.7119  -6.7072
    -6.6957  -6.6911  -6.6552  -6.6172  -6.6107  -6.6063  -6.5743  -6.5636
    -6.5516  -6.5387  -6.5364  -6.5346  -6.5337  -6.5321  -6.5190  -6.5189
    -6.5161  -6.5161  -6.5132  -6.5085  -6.5081  -6.5080  -6.5078  -6.5004
    -6.4633  -6.4217  -6.3996  -6.3561  -6.3436  -6.3346  -6.2809  -6.2548
    -6.2542  -6.2516  -6.2462  -6.2344  -6.2332  -6.2080  -6.2065  -6.2062
    -6.2020  -6.2015  -6.2003  -6.1978  -6.1810  -6.1779  -6.1622  -6.1612
    -6.1500  -6.1329  -6.1309  -6.1282  -6.1225  -5.9671  -5.9544  -5.9385
    -5.9123  -5.9099  -5.8611  -5.8441  -5.8308  -5.7801  -5.7795  -5.7158
    -5.7121  -5.6780  -5.6428  -5.6230  -5.5688  -5.5479  -5.5366  -5.4767
    -5.4345  -4.1675  -4.0292  -4.0240  -4.0099  -3.9941  -3.8785  -3.8701
    -3.8610  -3.8538  -3.8305  -3.8136  -3.7724  -3.7694  -3.7593  -3.7529
    -3.7415  -3.7388  -3.7281  -3.7273  -3.7153  -3.7046  -3.6273  -3.6228
    -3.6175  -3.6171  -3.5391  -3.5385  -3.5308  -3.5298  -3.5249  -3.4972
    -3.4810  -3.4802  -3.4675  -3.4570  -3.4530  -3.4471  -3.4458  -3.4443
    -3.4231  -3.4147  -3.4097  -3.4087  -3.4054  -3.4030  -3.4025  -3.3999
    -3.3777  -3.3750  -3.3695  -3.3607  -3.3513  -3.3510  -3.3319  -3.3300
    -3.3049  -3.2815  -3.2799  -3.2785  -3.2759  -3.2686  -3.2674  -3.2637
    -3.2593  -3.2335  -3.2315  -3.2223  -3.2182  -3.2118  -3.2099  -3.2053
    -3.2029  -3.1974  -3.1942  -3.1813  -3.1772  -3.1658  -3.1644  -3.1641
    -3.1501  -3.1442  -3.1398  -3.1355  -3.1351  -3.1233  -3.1172  -3.1100
    -3.1079  -3.0957  -3.0949  -3.0898  -3.0895  -3.0892  -3.0660  -3.0562
    -3.0358  -3.0204  -3.0151  -2.9993  -2.9976  -2.9920  -2.9857  -2.9573
    -2.9545  -2.9513  -2.9503  -2.9487  -2.9480  -2.9407  -2.9389  -2.9374
    -2.9324  -2.9313  -2.9300  -2.9192  -2.9151  -2.9130  -2.9129  -2.9058
[...]
     atom  169 type  1   force =     0.00000091   -0.00000035    0.00068822
     atom  170 type  1   force =    -0.00001347   -0.00001185    0.00000422
     atom  171 type  2   force =    -0.00000382    0.00000020    0.00000509
     atom  172 type  2   force =    -0.00000049    0.00000038    0.00161500
     atom  173 type  2   force =    -0.00000063   -0.00000010   -0.00235925
     atom  174 type  2   force =    -0.00000386   -0.00000339   -0.00001436
     atom  175 type  1   force =     0.00000028    0.00000782   -0.00000089
     atom  176 type  1   force =     0.00005345   -0.00048870    0.00035167
     atom  177 type  2   force =     0.00000029   -0.00083129    0.00082910
     atom  178 type  2   force =    -0.00000481    0.00000170   -0.00004080
     atom  179 type  2   force =     0.00000498   -0.00000494    0.00002671
     atom  180 type  2   force =     0.00002469    0.00020464    0.00025870
     atom  181 type  1   force =     0.00000245   -0.00000010    0.00068812
     atom  182 type  1   force =    -0.00000903   -0.00000996   -0.00000144
     atom  183 type  2   force =    -0.00000172   -0.00000128    0.00000560
     atom  184 type  2   force =    -0.00000017    0.00000050    0.00161507
     atom  185 type  2   force =    -0.00000038   -0.00000007   -0.00235906
     atom  186 type  2   force =    -0.00000145   -0.00000235   -0.00000578
     atom  187 type  1   force =    -0.00000669   -0.00000605    0.00001906
     atom  188 type  1   force =     0.00000824   -0.00002213   -0.00024395
     atom  189 type  2   force =    -0.00052146   -0.00026183   -0.00018803
     atom  190 type  2   force =     0.00000117    0.00000980   -0.00000832
     atom  191 type  2   force =    -0.00000249   -0.00000376    0.00003731
     atom  192 type  2   force =     0.00001816    0.00001826   -0.00017263
     atom  193 type  3   force =    -0.00006975    0.00004137    0.00010056
     atom  194 type  4   force =    -0.00003346    0.00001900    0.00020243

     Total force =     0.003415     Total SCF correction =     0.000286
     Energy error            =      4.9E-05 Ry
     Gradient error          =      8.3E-04 Ry/Bohr

     bfgs converged in  17 scf cycles and  16 bfgs steps
     (criteria: energy <  1.0E-04 Ry, force <  1.0E-03 Ry/Bohr)

     End of BFGS Geometry Optimization

     Final energy             =  -33980.2848111694 Ry

     File ./outdir/pwscf.bfgs deleted, as requested
Begin final coordinates

ATOMIC_POSITIONS (angstrom)
Mo               0.0000119917        1.8193638619       -9.1672481230    0   0   0
Mo               1.5756136568        0.9097075315       -3.0554901653    0   0   0
S                0.0000188998        1.8193822938       -4.6232556019    0   0   0
S                1.5756321638        0.9096773839       -7.6014065489    0   0   0
S                1.5756326175        0.9096785128      -10.7330757790    0   0   0
S                0.0000189190        1.8193860094       -1.4877129945    0   0   0
Mo               0.0000322489        1.8194888697        3.0556876409
Mo               1.5736463138        0.9069386051        9.1566754129
S                0.0004587370        1.8169594339        7.5833708948
S                1.5756564450        0.9097473669        4.6230003004
S                1.5759233495        0.9100017909        1.4880110768
S               -0.0046376665        1.8054463795       10.7268393621
Mo              -1.5756053507        4.5484193819       -9.1672481230    0   0   0
Mo               0.0000378379        3.6387394919       -3.0554952701    0   0   0
S               -1.5755913433        4.5484363582       -4.6232494962    0   0   0
S                0.0000148214        3.6387329039       -7.6014065489    0   0   0
S                0.0000152751        3.6387340328      -10.7330757790    0   0   0
S               -1.5755906502        4.5484413613       -1.4877305502    0   0   0
Mo              -1.5755592144        4.5484058446        3.0564807109
Mo              -0.0085286986        3.6276837072        9.1593134330
S               -1.5767610122        4.5500221146        7.5873777978
S                0.0006224852        3.6387243054        4.6239646100
S               -0.0000604156        3.6389279990        1.4882535689
S               -1.5614285663        4.5475688195       10.7318044819
Mo              -3.1512226931        7.2774749019       -9.1672481230    0   0   0
Mo              -1.5755910988        6.3678216792       -3.0555115988    0   0   0
S               -3.1512162438        7.2774954350       -4.6232578178    0   0   0
S               -1.5756025210        6.3677884239       -7.6014065489    0   0   0
S               -1.5756020673        6.3677895528      -10.7330757790    0   0   0
S               -3.1512127704        7.2774877076       -1.4877200710    0   0   0
Mo              -3.1512490920        7.2772718143        3.0561549162
Mo              -1.5876591060        6.3676414828        9.1653719904
S               -3.1483696514        7.2744234298        7.5796754342
S               -1.5748843899        6.3681239965        4.6236337878
S               -1.5757587954        6.3675244232        1.4881546810
S               -3.1545799105        7.2975999950       10.7288350357
Mo              -4.7268400355       10.0065304219       -9.1672481230    0   0   0
Mo              -3.1512405618        9.0968403586       -3.0554816746    0   0   0
S               -4.7268341792       10.0065523623       -4.6232463762    0   0   0
S               -3.1512198634        9.0968439439       -7.6014065489    0   0   0
S               -3.1512194097        9.0968450728      -10.7330757790    0   0   0
S               -4.7268370797       10.0065537885       -1.4877176751    0   0   0
Mo              -4.7268843914       10.0065836750        3.0553886866
Mo              -3.1512966655        9.0969421111        9.1459973381
S               -4.7306713692       10.0087961257        7.5825947036
S               -3.1514930137        9.0970300179        4.6231865991
S               -3.1509756205        9.0967299490        1.4881717154
S               -4.7248587007       10.0054375950       10.7212633007
Mo               3.1512517547        1.8193638619       -9.1672481230    0   0   0
Mo               4.7269020221        0.9097289540       -3.0554823951    0   0   0
S                3.1512612351        1.8193882564       -4.6232320683    0   0   0
S                4.7268719268        0.9096773839       -7.6014065489    0   0   0
S                4.7268723805        0.9096785128      -10.7330757790    0   0   0
S                3.1512592485        1.8193890201       -1.4877261251    0   0   0
Mo               3.1515192814        1.8197224516        3.0563457001
Mo               4.7130392251        0.8945810321        9.1622386618
S                3.1490701809        1.8203643780        7.5882393661
S                4.7275705048        0.9102907652        4.6240628893
S                4.7268150002        0.9097895411        1.4883029821
S                3.1499484599        1.7998298530       10.7326676364
Mo               1.5756344123        4.5484193819       -9.1672481230    0   0   0
Mo               3.1512756394        3.6387769522       -3.0554814834    0   0   0
S                1.5756504879        4.5484423799       -4.6232390542    0   0   0
S                3.1512545844        3.6387329039       -7.6014065489    0   0   0
S                3.1512550381        3.6387340328      -10.7330757790    0   0   0
S                1.5756466253        4.5484431864       -1.4877251801    0   0   0
Mo               1.5758740944        4.5485375465        3.0558499401
Mo               3.1383417047        3.6214375490        9.1776824846
S                1.5768911439        4.5716952448        7.6301086789
S                3.1513965415        3.6393253626        4.6246700090
S                3.1514565573        3.6387451851        1.4883246052
S                1.5536512957        4.4377160343       10.7852959544
Mo               0.0000170699        7.2774749019       -9.1672481230    0   0   0
Mo               1.5756764447        6.3678236689       -3.0554877708    0   0   0
S                0.0000381981        7.2774979204       -4.6232454413    0   0   0
S                1.5756372420        6.3677884239       -7.6014065489    0   0   0
S                1.5756376957        6.3677895528      -10.7330757790    0   0   0
S                0.0000328088        7.2774946042       -1.4877307940    0   0   0
Mo               0.0002876772        7.2773456883        3.0552364112
Mo               1.5762456370        6.3674921846        9.2196218432
S                0.0213829439        7.2651926951        7.6341842566
S                1.5756419983        6.3678117777        4.6233050985
S                1.5759024794        6.3676651259        1.4876432235
S               -0.0906885437        7.3298962118       10.7823688445
Mo              -1.5756002725       10.0065304219       -9.1672481230    0   0   0
Mo               0.0000873425        9.0968676911       -3.0554912329    0   0   0
S               -1.5755883952       10.0065504530       -4.6232240150    0   0   0
S                0.0000198996        9.0968439439       -7.6014065489    0   0   0
S                0.0000203533        9.0968450728      -10.7330757790    0   0   0
S               -1.5755859047       10.0065492576       -1.4877362381    0   0   0
Mo              -1.5754141329       10.0066962558        3.0561542200
Mo              -0.0058357459        9.1074406433        9.1653718273
S               -1.5714876658       10.0056682996        7.5796731074
S                0.0001152104        9.0960970916        4.6236319414
S                0.0001957609        9.0971524614        1.4881547825
S               -1.5946647793        9.9994538247       10.7288374944
Mo               6.3024915177        1.8193638619       -9.1672481230    0   0   0
Mo               7.8781001445        0.9096521684       -3.0554919963    0   0   0
S                6.3025008696        1.8193826232       -4.6232480596    0   0   0
S                7.8781116898        0.9096773839       -7.6014065489    0   0   0
S                7.8781121435        0.9096785128      -10.7330757790    0   0   0
S                6.3025042007        1.8193849068       -1.4877147524    0   0   0
Mo               6.3025418382        1.8197085268        3.0556920666
Mo               7.8912842149        0.8967102667        9.1681384124
S                6.3040147331        1.8473216264        7.6414160976
S                7.8776044189        0.9101885273        4.6240973736
S                7.8781979685        0.9095528350        1.4883333907
S                6.3016216930        1.6706783511       10.8017459518
Mo               4.7268741753        4.5484193819       -9.1672481230    0   0   0
Mo               6.3024679138        3.6387501714       -3.0554895197    0   0   0
S                4.7268748770        4.5484386753       -4.6232519432    0   0   0
S                6.3024943474        3.6387329039       -7.6014065489    0   0   0
S                6.3024948011        3.6387340328      -10.7330757790    0   0   0
S                4.7268770533        4.5484432419       -1.4877137856    0   0   0
Mo               4.7269199708        4.5484211971        3.0562339336
Mo               6.3034877759        3.6382133925        9.2222834305
S                4.7477920242        4.5363931995        7.6492709572
S                6.3024663492        3.6387781022        4.6239199591
S                6.3022815960        3.6388854028        1.4878453392
S                4.5949171970        4.6246599155       10.8114661998
Mo               3.1512568329        7.2774749019       -9.1672481230    0   0   0
Mo               4.7268384135        6.3678043337       -3.0554959052    0   0   0
S                3.1512606125        7.2774972547       -4.6232589675    0   0   0
S                4.7268770050        6.3677884239       -7.6014065489    0   0   0
S                4.7268774587        6.3677895528      -10.7330757790    0   0   0
S                3.1512629079        7.2774963749       -1.4877081835    0   0   0
Mo               3.1512986727        7.2772488519        3.0558526419
Mo               4.7354485123        6.3876978268        9.1776830005
S                3.1317767032        7.2648294460        7.6301070617
S                4.7264630451        6.3674119227        4.6246697179
S                4.7269928978        6.3676501699        1.4883250687
S                3.2361878274        7.3519444942       10.7852941309
Mo               1.5756394905       10.0065304219       -9.1672481230    0   0   0
Mo               3.1512330605        9.0968514907       -3.0554878870    0   0   0
S                1.5756499830       10.0065443759       -4.6232632674    0   0   0
S                3.1512596626        9.0968439439       -7.6014065489    0   0   0
S                3.1512601163        9.0968450728      -10.7330757790    0   0   0
S                1.5756503041       10.0065459699       -1.4877044377    0   0   0
Mo               1.5757000853       10.0065412646        3.0564808784
Mo               3.1566055289        9.1098494666        9.1593107957
S                1.5737202593       10.0068088591        7.5873753849
S                3.1515962868        9.0963671396        4.6239650431
S                3.1510792819        9.0968533057        1.4882544839
S                1.5835132001        9.9947593137       10.7318046261
Mo               9.4537312807        1.8193638619       -9.1672481230    0   0   0
Mo              11.0293863460        0.9096952246       -3.0554894007    0   0   0
S                9.4537395970        1.8193770750       -4.6232328036    0   0   0
S               11.0293514528        0.9096773839       -7.6014065489    0   0   0
S               11.0293519066        0.9096785128      -10.7330757790    0   0   0
S                9.4537393632        1.8193794783       -1.4877366147    0   0   0
Mo               9.4534891990        1.8195319674        3.0561551986
Mo              11.0322588934        0.9080525121        9.1549589807
S                9.4538411901        1.8193544095        7.5901858047
S               11.0292275175        0.9097762386        4.6231740746
S               11.0291344879        0.9098301369        1.4880547500
S                9.4608974768        1.8152785655       10.7297277448
Mo               7.8781139383        4.5484193819       -9.1672481230    0   0   0
Mo               9.4537539161        3.6387607911       -3.0554933032    0   0   0
S                7.8781175448        4.5484378232       -4.6232366318    0   0   0
S                9.4537341104        3.6387329039       -7.6014065489    0   0   0
S                9.4537345641        3.6387340328      -10.7330757790    0   0   0
S                7.8781194018        4.5484411585       -1.4877377057    0   0   0
Mo               7.8778656979        4.5482479336        3.0556914781
Mo               9.4715977981        3.6338872099        9.1681369228
S                7.8547080461        4.5331963011        7.6414141531
S                9.4530628747        3.6389604971        4.6240979994
S                9.4539106970        3.6387643318        1.4883322142
S                8.0065019860        4.6235996323       10.8017404159
Mo               6.3024965959        7.2774749019       -9.1672481230    0   0   0
Mo               7.8781361655        6.3678242352       -3.0555014130    0   0   0
S                6.3024973331        7.2774953556       -4.6232392528    0   0   0
S                7.8781167680        6.3677884239       -7.6014065489    0   0   0
S                7.8781172217        6.3677895528      -10.7330757790    0   0   0
S                6.3024989866        7.2774929744       -1.4877349119    0   0   0
Mo               6.3023451665        7.2771067133        3.0563448487
Mo               7.8843233634        6.3873925627        9.1622344122
S                6.3005902321        7.2789376126        7.5882371656
S                7.8779610876        6.3669213722        4.6240639641
S                7.8780166719        6.3678256364        1.4883014059
S                6.3188120211        7.2884491917       10.7326646875
Mo               4.7268792535       10.0065304219       -9.1672481230    0   0   0
Mo               6.3025111524        9.0968738021       -3.0554915260    0   0   0
S                4.7268840634       10.0065452125       -4.6232380477    0   0   0
S                6.3024994256        9.0968439439       -7.6014065489    0   0   0
S                6.3024998793        9.0968450728      -10.7330757790    0   0   0
S                4.7268847312       10.0065459141       -1.4877283294    0   0   0
Mo               4.7268086254       10.0064913059        3.0556875502
Mo               6.3039268799        9.1000111084        9.1566734178
S                4.7292327627       10.0074274500        7.5833692676
S                6.3024783179        9.0968311206        4.6230008142
S                6.3023905478        9.0964714656        1.4880083865
S                4.7366568049       10.0175947481       10.7268394248
Pd               1.5865886106        6.3615173100       12.1023291239
Pt               6.2950893664        3.6430798280       11.9685847186
End final coordinates



     Writing all to output data dir ./outdir/pwscf.save/ :
     XML data file, charge density, pseudopotentials, collected wavefunctions
 
     init_run     :    174.56s CPU    177.62s WALL (       1 calls)
     electrons    :  34479.64s CPU  34854.17s WALL (       3 calls)
     update_pot   :      3.36s CPU      3.48s WALL (       2 calls)
     forces       :    386.53s CPU    393.27s WALL (       3 calls)
     force_dftd3  :      1.97s CPU      2.08s WALL (       3 calls)

     Called by init_run:
     wfcinit      :    150.33s CPU    151.96s WALL (       1 calls)
     potinit      :      1.38s CPU      1.54s WALL (       1 calls)
     hinit0       :     13.15s CPU     13.24s WALL (       1 calls)

     Called by electrons:
     c_bands      :  31780.49s CPU  32057.84s WALL (      38 calls)
     sum_band     :   2409.64s CPU   2459.66s WALL (      38 calls)
     v_of_rho     :     13.83s CPU     15.65s WALL (      39 calls)
     newd         :    244.94s CPU    291.15s WALL (      39 calls)
     PAW_pot      :     35.56s CPU     35.95s WALL (      41 calls)
     mix_rho      :      3.76s CPU      4.40s WALL (      38 calls)
     energy_dftd3 :      1.14s CPU      1.16s WALL (       3 calls)

     Called by c_bands:
     init_us_2    :     81.49s CPU     82.14s WALL (     328 calls)
     init_us_2:cp :     81.48s CPU     82.14s WALL (     328 calls)
     cegterg      :  31428.22s CPU  31702.55s WALL (     173 calls)

     Called by *egterg:
     cdiaghg      :   1700.67s CPU   1761.29s WALL (    2575 calls)
     h_psi        :  15536.07s CPU  15627.93s WALL (    2613 calls)
     s_psi        :   3611.76s CPU   3633.26s WALL (    2613 calls)
     g_psi        :     32.04s CPU     32.15s WALL (    2436 calls)

     Called by h_psi:
     h_psi:calbec :   3471.09s CPU   3482.66s WALL (    2613 calls)
     vloc_psi     :   8370.60s CPU   8411.69s WALL (    2613 calls)
     add_vuspsi   :   3629.90s CPU   3653.18s WALL (    2613 calls)

     General routines
     calbec       :   4461.07s CPU   4475.77s WALL (    2821 calls)
     fft          :     10.53s CPU     11.99s WALL (     538 calls)
     ffts         :      0.69s CPU      0.75s WALL (      77 calls)
     fftw         :   5978.09s CPU   6007.65s WALL ( 1573988 calls)
     interpolate  :      1.20s CPU      1.33s WALL (      39 calls)
 
     Parallel routines
 
     PWSCF        :      9h45m CPU      9h52m WALL

 
   This run was terminated on:   1:18:56  20Mar2024            

=------------------------------------------------------------------------------=
   JOB DONE.
=------------------------------------------------------------------------------=
