
     Program PWSCF v.7.3 starts on 11Mar2024 at 15: 5:52 

     This program is part of the open-source Quantum ESPRESSO suite
     for quantum simulation of materials; please cite
         "P. Giannozzi et al., J. Phys.:Condens. Matter 21 395502 (2009);
         "P. Giannozzi et al., J. Phys.:Condens. Matter 29 465901 (2017);
         "P. Giannozzi et al., J. Chem. Phys. 152 154105 (2020);
          URL http://www.quantum-espresso.org", 
     in publications or presentations arising from this work. More details at
     http://www.quantum-espresso.org/quote

     Parallel version (MPI & OpenMP), running on      36 processor cores
     Number of MPI processes:                36
     Threads/MPI process:                     1

     MPI processes distributed on     1 nodes
     555782 MiB available memory on the printing compute node when the environment starts
 
     Waiting for input...
     Reading input from standard input
Warning: card &CELL ignored
Warning: card / ignored

     Current dimensions of program PWSCF are:
     Max number of different atomic species (ntypx) = 10
     Max number of k-points (npk) =  40000
     Max angular momentum in pseudopotentials (lmaxx) =  4
     file Mo.pbe-spn-kjpaw_psl.1.0.0.UPF: wavefunction(s)  4S 4D renormalized
     file S.pbe-n-kjpaw_psl.1.0.0.UPF: wavefunction(s)  3S 3P renormalized
     file Pd.pbe-spn-kjpaw_psl.1.0.0.UPF: wavefunction(s)  4S 5S 4D renormalized
     file Pt.pbe-spfn-kjpaw_psl.1.0.0.UPF: wavefunction(s)  5P 4F renormalized
 
     R & G space division:  proc/nbgrp/npool/nimage =      36
     Subspace diagonalization in iterative solution of the eigenvalue problem:
     one sub-group per band group will be used
     scalapack distributed-memory algorithm (size of sub-group:  6*  6 procs)

 
     Parallelization info
     --------------------
     sticks:   dense  smooth     PW     G-vecs:    dense   smooth      PW
     Min         586     335     89               165416    71459    9765
     Max         587     337     90               165425    71461    9778
     Sum       21109   12085   3205              5955087  2572543  351657
 
     Using Slab Decomposition
 


     bravais-lattice index     =            0
     lattice parameter (alat)  =      23.8395  a.u.
     unit-cell volume          =   28182.8498 (a.u.)^3
     number of atoms/cell      =          146
     number of atomic types    =            4
     number of electrons       =      1298.00
     number of Kohn-Sham states=          779
     kinetic-energy cutoff     =      77.0000  Ry
     charge density cutoff     =     539.0000  Ry
     scf convergence threshold =      1.0E-06
     mixing beta               =       0.2000
     number of iterations used =            8  plain     mixing
     energy convergence thresh.=      1.0E-04
     force convergence thresh. =      1.0E-03
     Exchange-correlation= SLA  PW   PBX  PBC
                           (   1   4   3   4   0   0   0)
     nstep                     =         1000


     Effective Screening Medium Method
     =================================
     Boundary Conditions: Vacuum-Slab-Vacuum
     total charge in unit cell        =   0.0000
     grid points for fit at edges     =        4 
 

     celldm(1)=  23.839504  celldm(2)=   0.000000  celldm(3)=   0.000000
     celldm(4)=   0.000000  celldm(5)=   0.000000  celldm(6)=   0.000000

     crystal axes: (cart. coord. in units of alat)
               a(1) = (   1.000000   0.000000   0.000000 )  
               a(2) = (  -0.500001   0.866026   0.000000 )  
               a(3) = (   0.000000   0.000000   2.401941 )  

     reciprocal axes: (cart. coord. in units 2 pi/alat)
               b(1) = (  1.000000  0.577351  0.000000 )  
               b(2) = (  0.000000  1.154700  0.000000 )  
               b(3) = (  0.000000  0.000000  0.416330 )  


     PseudoPot. # 1 for Mo read from file:
     ./pseudo/Mo.pbe-spn-kjpaw_psl.1.0.0.UPF
     MD5 check sum: 317bf72632116215fd98f72de1686f13
     Pseudo is Projector augmented-wave + core cor, Zval = 14.0
     Generated using 'atomic' code by A. Dal Corso  v.7.2
     Shape of augmentation charge: PSQ
     Using radial grid of 1229 points,  6 beta functions with: 
                l(1) =   0
                l(2) =   0
                l(3) =   1
                l(4) =   1
                l(5) =   2
                l(6) =   2
     Q(r) pseudized with 0 coefficients 


     PseudoPot. # 2 for S  read from file:
     ./pseudo/S.pbe-n-kjpaw_psl.1.0.0.UPF
     MD5 check sum: 8b7b5302570d38d5e87fed6a1065abda
     Pseudo is Projector augmented-wave + core cor, Zval =  6.0
     Generated using 'atomic' code by A. Dal Corso  v.7.2
     Shape of augmentation charge: PSQ
     Using radial grid of 1151 points,  6 beta functions with: 
                l(1) =   0
                l(2) =   0
                l(3) =   1
                l(4) =   1
                l(5) =   2
                l(6) =   2
     Q(r) pseudized with 0 coefficients 


     PseudoPot. # 3 for Pd read from file:
     ./pseudo/Pd.pbe-spn-kjpaw_psl.1.0.0.UPF
     MD5 check sum: a60571a671f2502b8a6a4569d20a6edb
     Pseudo is Projector augmented-wave + core cor, Zval = 18.0
     Generated using 'atomic' code by A. Dal Corso  v.7.2
     Shape of augmentation charge: PSQ
     Using radial grid of 1235 points,  6 beta functions with: 
                l(1) =   0
                l(2) =   0
                l(3) =   1
                l(4) =   1
                l(5) =   2
                l(6) =   2
     Q(r) pseudized with 0 coefficients 


     PseudoPot. # 4 for Pt read from file:
     ./pseudo/Pt.pbe-spfn-kjpaw_psl.1.0.0.UPF
     MD5 check sum: 620096ebf4e6ebacc94de60fd67efcb5
     Pseudo is Projector augmented-wave + core cor, Zval = 32.0
     Generated using 'atomic' code by A. Dal Corso  v.7.2
     Shape of augmentation charge: PSQ
     Using radial grid of 1277 points,  8 beta functions with: 
                l(1) =   0
                l(2) =   0
                l(3) =   1
                l(4) =   1
                l(5) =   2
                l(6) =   2
                l(7) =   3
                l(8) =   3
     Q(r) pseudized with 0 coefficients 


     atomic species   valence    mass     pseudopotential
     Mo               14.00    95.95000     Mo( 1.00)
     S                 6.00    32.06000     S ( 1.00)
     Pd               18.00   106.42000     Pd( 1.00)
     Pt               32.00   195.08400     Pt( 1.00)

     No symmetry found



   Cartesian axes

     site n.     atom                  positions (alat units)
         1        Mo     tau(   1) = (   0.1244805   0.2154429   0.4826124  )
         2        Mo     tau(   2) = (   0.1250004   0.0721694  -0.4825273  )
         3        Mo     tau(   3) = (   0.0000154   0.1443583  -0.0000534  )
         4        S      tau(   4) = (   0.0000004   0.0000006  -0.6064556  )
         5        S      tau(   5) = (   0.1249822   0.0722030  -0.1241916  )
         6        S      tau(   6) = (   0.0001873   0.1444894   0.3573292  )
         7        S      tau(   7) = (   0.0000004   0.0000005  -0.3584711  )
         8        S      tau(   8) = (   0.1250220   0.0721432   0.1241096  )
         9        S      tau(   9) = (  -0.0009222   0.1433430   0.6062350  )
        10        Mo     tau(  10) = (  -0.0011812   0.4330952   0.4826123  )
        11        Mo     tau(  11) = (   0.0000001   0.2886759  -0.4825273  )
        12        Mo     tau(  12) = (  -0.1249761   0.3608493  -0.0000533  )
        13        S      tau(  13) = (  -0.1249999   0.2165071  -0.6064556  )
        14        S      tau(  14) = (   0.0000232   0.2886904  -0.1241345  )
        15        S      tau(  15) = (  -0.1247753   0.3609305   0.3573291  )
        16        S      tau(  16) = (  -0.1249998   0.2165070  -0.3584711  )
        17        S      tau(  17) = (   0.0000901   0.2887289   0.1242236  )
        18        S      tau(  18) = (  -0.1263226   0.3605428   0.6062351  )
        19        Mo     tau(  19) = (  -0.1251400   0.6495983   0.4819363  )
        20        Mo     tau(  20) = (  -0.1250002   0.5051824  -0.4825273  )
        21        Mo     tau(  21) = (  -0.2500026   0.5773383  -0.0001491  )
        22        S      tau(  22) = (  -0.2500002   0.4330136  -0.6064556  )
        23        S      tau(  23) = (  -0.1249812   0.5051509  -0.1241919  )
        24        S      tau(  24) = (  -0.2500015   0.5775831   0.3575295  )
        25        S      tau(  25) = (  -0.2500001   0.4330135  -0.3584711  )
        26        S      tau(  26) = (  -0.1250129   0.5052153   0.1241101  )
        27        S      tau(  27) = (  -0.2500018   0.5771934   0.6060379  )
        28        Mo     tau(  28) = (   0.2499987  -0.0001601   0.4819365  )
        29        Mo     tau(  29) = (  -0.2500004   0.7216889  -0.4825273  )
        30        Mo     tau(  30) = (  -0.3750135   0.7938631  -0.0001491  )
        31        S      tau(  31) = (  -0.3750004   0.6495201  -0.6064556  )
        32        S      tau(  32) = (  -0.2500026   0.7216883  -0.1242347  )
        33        S      tau(  33) = (  -0.3747997   0.7937400   0.3575295  )
        34        S      tau(  34) = (  -0.3750004   0.6495200  -0.3584711  )
        35        S      tau(  35) = (  -0.2500029   0.7216883   0.1240299  )
        36        S      tau(  36) = (  -0.3751376   0.7939346   0.6060379  )
        37        Mo     tau(  37) = (   0.3755166   0.2154425   0.4826119  )
        38        Mo     tau(  38) = (   0.3750004   0.0721694  -0.4825273  )
        39        Mo     tau(  39) = (   0.2499990   0.1443474  -0.0000968  )
        40        S      tau(  40) = (   0.2500004   0.0000006  -0.6064556  )
        41        S      tau(  41) = (   0.3750152   0.0722028  -0.1241921  )
        42        S      tau(  42) = (   0.2499983   0.1443201   0.3580593  )
        43        S      tau(  43) = (   0.2500004   0.0000005  -0.3584711  )
        44        S      tau(  44) = (   0.3749754   0.0721432   0.1241106  )
        45        S      tau(  45) = (   0.2499987   0.1437775   0.6065499  )
        46        Mo     tau(  46) = (   0.2499984   0.4330123   0.4872880  )
        47        Mo     tau(  47) = (   0.2500001   0.2886759  -0.4825273  )
        48        Mo     tau(  48) = (   0.1250277   0.3608616  -0.0000572  )
        49        S      tau(  49) = (   0.1250001   0.2165071  -0.6064556  )
        50        S      tau(  50) = (   0.2499987   0.2886898  -0.1241693  )
        51        S      tau(  51) = (   0.1266397   0.3617911   0.3615924  )
        52        S      tau(  52) = (   0.1250002   0.2165070  -0.3584711  )
        53        S      tau(  53) = (   0.2499988   0.2886671   0.1241958  )
        54        S      tau(  54) = (   0.1173054   0.3564020   0.6108885  )
        55        Mo     tau(  55) = (   0.1243363   0.6504991   0.4826116  )
        56        Mo     tau(  56) = (   0.1249998   0.5051824  -0.4825273  )
        57        Mo     tau(  57) = (   0.0000060   0.5773464  -0.0000969  )
        58        S      tau(  58) = (  -0.0000002   0.4330136  -0.6064556  )
        59        S      tau(  59) = (   0.1250101   0.5051751  -0.1241696  )
        60        S      tau(  60) = (  -0.0000165   0.5773581   0.3580590  )
        61        S      tau(  61) = (  -0.0000001   0.4330135  -0.3584711  )
        62        S      tau(  62) = (   0.1249907   0.5051868   0.1241956  )
        63        S      tau(  63) = (  -0.0004863   0.5776299   0.6065497  )
        64        Mo     tau(  64) = (   0.5000682   0.0000393   0.4813064  )
        65        Mo     tau(  65) = (  -0.0000004   0.7216889  -0.4825273  )
        66        Mo     tau(  66) = (  -0.1249919   0.7938635  -0.0001489  )
        67        S      tau(  67) = (  -0.1250004   0.6495201  -0.6064556  )
        68        S      tau(  68) = (   0.0000350   0.7216859  -0.1241920  )
        69        S      tau(  69) = (  -0.1252051   0.7937392   0.3575294  )
        70        S      tau(  70) = (  -0.1250004   0.6495200  -0.3584711  )
        71        S      tau(  71) = (  -0.0000364   0.7216812   0.1241103  )
        72        S      tau(  72) = (  -0.1248667   0.7939344   0.6060378  )
        73        Mo     tau(  73) = (   0.6250985   0.2164481   0.4814760  )
        74        Mo     tau(  74) = (   0.6250004   0.0721694  -0.4825273  )
        75        Mo     tau(  75) = (   0.4999807   0.1443583  -0.0000532  )
        76        S      tau(  76) = (   0.5000004   0.0000006  -0.6064556  )
        77        S      tau(  77) = (   0.6249710   0.0721537  -0.1241599  )
        78        S      tau(  78) = (   0.4998101   0.1444887   0.3573287  )
        79        S      tau(  79) = (   0.5000004   0.0000005  -0.3584711  )
        80        S      tau(  80) = (   0.6250072   0.0721744   0.1241160  )
        81        S      tau(  81) = (   0.5009199   0.1433424   0.6062338  )
        82        Mo     tau(  82) = (   0.5011786   0.4330950   0.4826115  )
        83        Mo     tau(  83) = (   0.5000001   0.2886759  -0.4825273  )
        84        Mo     tau(  84) = (   0.3749686   0.3608615  -0.0000573  )
        85        S      tau(  85) = (   0.3750001   0.2165071  -0.6064556  )
        86        S      tau(  86) = (   0.4999725   0.2886900  -0.1241349  )
        87        S      tau(  87) = (   0.3733572   0.3617909   0.3615920  )
        88        S      tau(  88) = (   0.3750002   0.2165070  -0.3584711  )
        89        S      tau(  89) = (   0.4999057   0.2887288   0.1242238  )
        90        S      tau(  90) = (   0.3826919   0.3564018   0.6108876  )
        91        Mo     tau(  91) = (   0.3756598   0.6504996   0.4826113  )
        92        Mo     tau(  92) = (   0.3749998   0.5051824  -0.4825273  )
        93        Mo     tau(  93) = (   0.2499978   0.5773166  -0.0000576  )
        94        S      tau(  94) = (   0.2499998   0.4330136  -0.6064556  )
        95        S      tau(  95) = (   0.3749857   0.5051746  -0.1241697  )
        96        S      tau(  96) = (   0.2499981   0.5754545   0.3615919  )
        97        S      tau(  97) = (   0.2499999   0.4330135  -0.3584711  )
        98        S      tau(  98) = (   0.3750048   0.5051860   0.1241960  )
        99        S      tau(  99) = (   0.2499983   0.5862331   0.6108872  )
       100        Mo     tau( 100) = (   0.7499988   0.0001148   0.4814756  )
       101        Mo     tau( 101) = (   0.2499996   0.7216889  -0.4825273  )
       102        Mo     tau( 102) = (   0.1250062   0.7938321  -0.0000534  )
       103        S      tau( 103) = (   0.1249996   0.6495201  -0.6064556  )
       104        S      tau( 104) = (   0.2499971   0.7216593  -0.1241350  )
       105        S      tau( 105) = (   0.1250350   0.7936175   0.3573284  )
       106        S      tau( 106) = (   0.1249996   0.6495200  -0.3584711  )
       107        S      tau( 107) = (   0.2499972   0.7215818   0.1242234  )
       108        S      tau( 108) = (   0.1245975   0.7951515   0.6062336  )
       109        Mo     tau( 109) = (  -0.1251006   0.2164484   0.4814769  )
       110        Mo     tau( 110) = (   0.8750004   0.0721694  -0.4825273  )
       111        Mo     tau( 111) = (   0.7499976   0.1443379  -0.0001196  )
       112        S      tau( 112) = (   0.7500004   0.0000006  -0.6064556  )
       113        S      tau( 113) = (   0.8750246   0.0721533  -0.1241599  )
       114        S      tau( 114) = (   0.7499994   0.1443376   0.3572937  )
       115        S      tau( 115) = (   0.7500004   0.0000005  -0.3584711  )
       116        S      tau( 116) = (   0.8749884   0.0721739   0.1241157  )
       117        S      tau( 117) = (   0.7499987   0.1443370   0.6058240  )
       118        Mo     tau( 118) = (  -0.2500010   0.4329316   0.4813070  )
       119        Mo     tau( 119) = (   0.7500001   0.2886759  -0.4825273  )
       120        Mo     tau( 120) = (   0.6249710   0.3608493  -0.0000534  )
       121        S      tau( 121) = (   0.6250001   0.2165071  -0.6064556  )
       122        S      tau( 122) = (   0.7499973   0.2887067  -0.1241600  )
       123        S      tau( 123) = (   0.6247737   0.3609305   0.3573287  )
       124        S      tau( 124) = (   0.6250002   0.2165070  -0.3584711  )
       125        S      tau( 125) = (   0.7499971   0.2886649   0.1241160  )
       126        S      tau( 126) = (   0.6263203   0.3605423   0.6062340  )
       127        Mo     tau( 127) = (  -0.3748636   0.6495986   0.4819361  )
       128        Mo     tau( 128) = (   0.6249998   0.5051824  -0.4825273  )
       129        Mo     tau( 129) = (   0.4999891   0.5773453  -0.0000967  )
       130        S      tau( 130) = (   0.4999998   0.4330136  -0.6064556  )
       131        S      tau( 131) = (   0.6249761   0.5051506  -0.1241920  )
       132        S      tau( 132) = (   0.5000130   0.5773585   0.3580587  )
       133        S      tau( 133) = (   0.4999999   0.4330135  -0.3584711  )
       134        S      tau( 134) = (   0.6250081   0.5052147   0.1241104  )
       135        S      tau( 135) = (   0.5004826   0.5776298   0.6065487  )
       136        Mo     tau( 136) = (  -0.0000706   0.0000401   0.4813070  )
       137        Mo     tau( 137) = (   0.4999996   0.7216889  -0.4825273  )
       138        Mo     tau( 138) = (   0.3749881   0.7938314  -0.0000535  )
       139        S      tau( 139) = (   0.3749996   0.6495201  -0.6064556  )
       140        S      tau( 140) = (   0.4999594   0.7216844  -0.1241918  )
       141        S      tau( 141) = (   0.3749610   0.7936184   0.3573285  )
       142        S      tau( 142) = (   0.3749996   0.6495200  -0.3584711  )
       143        S      tau( 143) = (   0.5000310   0.7216802   0.1241101  )
       144        S      tau( 144) = (   0.3753979   0.7951517   0.6062337  )
       145        Pd     tau( 145) = (   0.2499985   0.4330123   0.7148096  )
       146        Pt     tau( 146) = (   0.7499610   0.0000793   0.7247536  )

     --------------------------------------------
     DFT-D3 Dispersion Correction (3-body terms):
     --------------------------------------------
       Reference C6 values for interpolation: 

         atom   Coordination number   C6
         S          0.000           268.01
         S          0.995           261.99
         S          1.990           251.62
         Mo         0.000          1691.79
         Mo         1.942          1004.01
         Mo        11.056           674.22
         Pd         0.000          1217.01
         Pd         1.863           573.90
         Pd         5.710           531.75
         Pt         0.000           782.29
         Pt         1.919           692.72
         Pt         6.667           673.75

       Values used:

         atom   Coordination number  R0_AB[au]  C6      C8
         Mo        10.173            3.547    674.22  77634.20
         Mo        10.189            3.547    674.22  77634.20
         Mo        10.201            3.547    674.22  77634.20
         S          3.753            3.128    251.62  12327.25
         S          3.858            3.128    251.62  12327.25
         S          3.848            3.128    251.62  12327.25
         S          3.859            3.128    251.62  12327.25
         S          3.860            3.128    251.62  12327.25
         S          3.811            3.128    251.62  12327.25
         Mo        10.173            3.547    674.22  77634.20
         Mo        10.189            3.547    674.22  77634.20
         Mo        10.201            3.547    674.22  77634.20
         S          3.753            3.128    251.62  12327.25
         S          3.859            3.128    251.62  12327.25
         S          3.848            3.128    251.62  12327.25
         S          3.858            3.128    251.62  12327.25
         S          3.855            3.128    251.62  12327.25
         S          3.799            3.128    251.62  12327.25
         Mo        10.209            3.547    674.22  77634.20
         Mo        10.189            3.547    674.22  77634.20
         Mo        10.200            3.547    674.22  77634.20
         S          3.753            3.128    251.62  12327.25
         S          3.858            3.128    251.62  12327.25
         S          3.862            3.128    251.62  12327.25
         S          3.859            3.128    251.62  12327.25
         S          3.860            3.128    251.62  12327.25
         S          3.759            3.128    251.62  12327.25
         Mo        10.209            3.547    674.22  77634.20
         Mo        10.189            3.547    674.22  77634.20
         Mo        10.200            3.547    674.22  77634.20
         S          3.753            3.128    251.62  12327.25
         S          3.858            3.128    251.62  12327.25
         S          3.862            3.128    251.62  12327.25
         S          3.859            3.128    251.62  12327.25
         S          3.862            3.128    251.62  12327.25
         S          3.760            3.128    251.62  12327.25
         Mo        10.173            3.547    674.22  77634.20
         Mo        10.189            3.547    674.22  77634.20
         Mo        10.202            3.547    674.22  77634.20
         S          3.753            3.128    251.62  12327.25
         S          3.858            3.128    251.62  12327.25
         S          3.857            3.128    251.62  12327.25
         S          3.859            3.128    251.62  12327.25
         S          3.860            3.128    251.62  12327.25
         S          3.751            3.128    251.62  12327.25
         Mo        10.810            3.547    674.22  77634.20
         Mo        10.189            3.547    674.22  77634.20
         Mo        10.202            3.547    674.22  77634.20
         S          3.753            3.128    251.62  12327.25
         S          3.859            3.128    251.62  12327.25
         S          3.866            3.128    251.62  12327.25
         S          3.859            3.128    251.62  12327.25
         S          3.853            3.128    251.62  12327.25
         S          4.646            3.128    251.62  12327.25
         Mo        10.183            3.547    674.22  77634.20
         Mo        10.189            3.547    674.22  77634.20
         Mo        10.202            3.547    674.22  77634.20
         S          3.753            3.128    251.62  12327.25
         S          3.859            3.128    251.62  12327.25
         S          3.857            3.128    251.62  12327.25
         S          3.859            3.128    251.62  12327.25
         S          3.853            3.128    251.62  12327.25
         S          3.752            3.128    251.62  12327.25
         Mo        10.233            3.547    674.22  77634.20
         Mo        10.189            3.547    674.22  77634.20
         Mo        10.200            3.547    674.22  77634.20
         S          3.753            3.128    251.62  12327.25
         S          3.858            3.128    251.62  12327.25
         S          3.862            3.128    251.62  12327.25
         S          3.859            3.128    251.62  12327.25
         S          3.860            3.128    251.62  12327.25
         S          3.760            3.128    251.62  12327.25
         Mo        10.223            3.547    674.22  77634.20
         Mo        10.189            3.547    674.22  77634.20
         Mo        10.201            3.547    674.22  77634.20
         S          3.753            3.128    251.62  12327.25
         S          3.858            3.128    251.62  12327.25
         S          3.848            3.128    251.62  12327.25
         S          3.859            3.128    251.62  12327.25
         S          3.860            3.128    251.62  12327.25
         S          3.811            3.128    251.62  12327.25
         Mo        10.173            3.547    674.22  77634.20
         Mo        10.189            3.547    674.22  77634.20
         Mo        10.202            3.547    674.22  77634.20
         S          3.753            3.128    251.62  12327.25
         S          3.859            3.128    251.62  12327.25
         S          3.866            3.128    251.62  12327.25
         S          3.859            3.128    251.62  12327.25
         S          3.855            3.128    251.62  12327.25
         S          4.646            3.128    251.62  12327.25
         Mo        10.183            3.547    674.22  77634.20
         Mo        10.189            3.547    674.22  77634.20
         Mo        10.202            3.547    674.22  77634.20
         S          3.753            3.128    251.62  12327.25
         S          3.859            3.128    251.62  12327.25
         S          3.866            3.128    251.62  12327.25
         S          3.859            3.128    251.62  12327.25
         S          3.853            3.128    251.62  12327.25
         S          4.663            3.128    251.62  12327.25
         Mo        10.813            3.547    674.22  77634.20
         Mo        10.189            3.547    674.22  77634.20
         Mo        10.201            3.547    674.22  77634.20
         S          3.753            3.128    251.62  12327.25
         S          3.859            3.128    251.62  12327.25
         S          3.849            3.128    251.62  12327.25
         S          3.859            3.128    251.62  12327.25
         S          3.855            3.128    251.62  12327.25
         S          4.766            3.128    251.62  12327.25
         Mo        10.223            3.547    674.22  77634.20
         Mo        10.189            3.547    674.22  77634.20
         Mo        10.199            3.547    674.22  77634.20
         S          3.753            3.128    251.62  12327.25
         S          3.858            3.128    251.62  12327.25
         S          3.856            3.128    251.62  12327.25
         S          3.858            3.128    251.62  12327.25
         S          3.860            3.128    251.62  12327.25
         S          4.744            3.128    251.62  12327.25
         Mo        10.223            3.547    674.22  77634.20
         Mo        10.189            3.547    674.22  77634.20
         Mo        10.201            3.547    674.22  77634.20
         S          3.753            3.128    251.62  12327.25
         S          3.858            3.128    251.62  12327.25
         S          3.848            3.128    251.62  12327.25
         S          3.858            3.128    251.62  12327.25
         S          3.860            3.128    251.62  12327.25
         S          3.799            3.128    251.62  12327.25
         Mo        10.209            3.547    674.22  77634.20
         Mo        10.189            3.547    674.22  77634.20
         Mo        10.202            3.547    674.22  77634.20
         S          3.753            3.128    251.62  12327.25
         S          3.859            3.128    251.62  12327.25
         S          3.857            3.128    251.62  12327.25
         S          3.859            3.128    251.62  12327.25
         S          3.860            3.128    251.62  12327.25
         S          3.752            3.128    251.62  12327.25
         Mo        10.233            3.547    674.22  77634.20
         Mo        10.189            3.547    674.22  77634.20
         Mo        10.201            3.547    674.22  77634.20
         S          3.753            3.128    251.62  12327.25
         S          3.858            3.128    251.62  12327.25
         S          3.849            3.128    251.62  12327.25
         S          3.859            3.128    251.62  12327.25
         S          3.860            3.128    251.62  12327.25
         S          4.766            3.128    251.62  12327.25
         Pd         3.772            3.168    556.87  51022.74
         Pt         3.627            3.168    692.72  72035.25

         Molecular C6 ( Ry / a.u.^6 ) =   7935762.83


     number of k points=     4  Gaussian smearing, width (Ry)=  0.0100
                       cart. coord. in units 2pi/alat
        k(    1) = (   0.0000000   0.0000000   0.0000000), wk =   0.5000000
        k(    2) = (   0.0000000  -0.5773499   0.0000000), wk =   0.5000000
        k(    3) = (  -0.5000000  -0.2886755   0.0000000), wk =   0.5000000
        k(    4) = (  -0.5000000  -0.8660254   0.0000000), wk =   0.5000000

     Dense  grid:  5955087 G-vectors     FFT dimensions: ( 180, 180, 432)

     Smooth grid:  2572543 G-vectors     FFT dimensions: ( 135, 135, 320)

     Estimated max dynamical RAM per process >       3.07 GB

     Estimated total dynamical RAM >     110.53 GB

     Initial potential from superposition of free atoms

     starting charge    1297.9541, renormalised to    1298.0000

     negative rho (up, down):  8.875E-04 0.000E+00
     Starting wfcs are  891 randomized atomic wfcs
     Checking if some PAW data can be deallocated... 

     total cpu time spent up to now is       98.3 secs

     Self-consistent Calculation

     iteration #  1     ecut=    77.00 Ry     beta= 0.20
     Davidson diagonalization with overlap
     ethr =  1.00E-02,  avg # of iterations =  2.0

     Threshold (ethr) on eigenvalues was too large:
     Diagonalizing with lowered threshold

     Davidson diagonalization with overlap
     ethr =  1.78E-04,  avg # of iterations = 13.2

     negative rho (up, down):  2.781E-04 0.000E+00

     total cpu time spent up to now is     1122.5 secs

     total energy              =  -26031.70572620 Ry
     estimated scf accuracy    <       5.01674814 Ry

     iteration #  2     ecut=    77.00 Ry     beta= 0.20
     Davidson diagonalization with overlap
     ethr =  3.86E-04,  avg # of iterations =  2.0

     negative rho (up, down):  4.101E-05 0.000E+00

     total cpu time spent up to now is     1339.4 secs

     total energy              =  -26030.69152368 Ry
     estimated scf accuracy    <       2.60502502 Ry

     iteration #  3     ecut=    77.00 Ry     beta= 0.20
     Davidson diagonalization with overlap
     ethr =  2.01E-04,  avg # of iterations = 12.2

     negative rho (up, down):  3.025E-05 0.000E+00

     total cpu time spent up to now is     1624.4 secs

     total energy              =  -26031.03969338 Ry
     estimated scf accuracy    <       0.67339424 Ry

     iteration #  4     ecut=    77.00 Ry     beta= 0.20
     Davidson diagonalization with overlap
     c_bands:  1 eigenvalues not converged
     c_bands:  3 eigenvalues not converged
     c_bands:  2 eigenvalues not converged
     c_bands:  1 eigenvalues not converged
     ethr =  5.19E-05,  avg # of iterations = 20.0

     negative rho (up, down):  3.495E-05 0.000E+00

     total cpu time spent up to now is     2245.5 secs

     total energy              =  -26031.61287567 Ry
     estimated scf accuracy    <       0.25737033 Ry

     iteration #  5     ecut=    77.00 Ry     beta= 0.20
     Davidson diagonalization with overlap
     c_bands:  1 eigenvalues not converged
     ethr =  1.98E-05,  avg # of iterations = 37.0

     negative rho (up, down):  7.872E-05 0.000E+00

     total cpu time spent up to now is     2886.3 secs

     total energy              =  -26031.72359915 Ry
     estimated scf accuracy    <       0.15131391 Ry

     iteration #  6     ecut=    77.00 Ry     beta= 0.20
     Davidson diagonalization with overlap
     ethr =  1.17E-05,  avg # of iterations =  3.2

     negative rho (up, down):  3.532E-04 0.000E+00

     total cpu time spent up to now is     3107.9 secs

     total energy              =  -26031.70624925 Ry
     estimated scf accuracy    <       0.09328279 Ry

     iteration #  7     ecut=    77.00 Ry     beta= 0.20
     Davidson diagonalization with overlap
     c_bands:  1 eigenvalues not converged
     ethr =  7.19E-06,  avg # of iterations = 31.5

     negative rho (up, down):  7.576E-04 0.000E+00

     total cpu time spent up to now is     3642.0 secs

     total energy              =  -26031.75718424 Ry
     estimated scf accuracy    <       0.05289247 Ry

     iteration #  8     ecut=    77.00 Ry     beta= 0.20
     Davidson diagonalization with overlap
     c_bands:  2 eigenvalues not converged
     c_bands:  1 eigenvalues not converged
     c_bands:  1 eigenvalues not converged
     c_bands:  4 eigenvalues not converged
     ethr =  4.07E-06,  avg # of iterations = 25.0

     negative rho (up, down):  5.985E-04 0.000E+00

     total cpu time spent up to now is     4012.0 secs

     total energy              =  -26031.75034362 Ry
     estimated scf accuracy    <       0.03310738 Ry

     iteration #  9     ecut=    77.00 Ry     beta= 0.20
     Davidson diagonalization with overlap
     c_bands:  2 eigenvalues not converged
     c_bands:  5 eigenvalues not converged
     c_bands:  4 eigenvalues not converged
     ethr =  2.55E-06,  avg # of iterations = 30.5

     negative rho (up, down):  5.324E-04 0.000E+00

     total cpu time spent up to now is     4502.1 secs

     total energy              =  -26031.75638269 Ry
     estimated scf accuracy    <       0.00482067 Ry

     iteration # 10     ecut=    77.00 Ry     beta= 0.20
     Davidson diagonalization with overlap
     c_bands:  3 eigenvalues not converged
     c_bands:  1 eigenvalues not converged
     ethr =  3.71E-07,  avg # of iterations = 19.8

     negative rho (up, down):  5.840E-04 0.000E+00

     total cpu time spent up to now is     5313.7 secs

     total energy              =  -26031.76641850 Ry
     estimated scf accuracy    <       0.00492814 Ry

     iteration # 11     ecut=    77.00 Ry     beta= 0.20
     Davidson diagonalization with overlap
     ethr =  3.71E-07,  avg # of iterations =  1.5

     negative rho (up, down):  8.100E-04 0.000E+00

     total cpu time spent up to now is     5523.0 secs

     total energy              =  -26031.76491278 Ry
     estimated scf accuracy    <       0.00243006 Ry

     iteration # 12     ecut=    77.00 Ry     beta= 0.20
     Davidson diagonalization with overlap
     c_bands:  1 eigenvalues not converged
     ethr =  1.87E-07,  avg # of iterations = 13.5

     negative rho (up, down):  8.187E-04 0.000E+00

     total cpu time spent up to now is     6087.9 secs

     total energy              =  -26031.76672567 Ry
     estimated scf accuracy    <       0.00412142 Ry

     iteration # 13     ecut=    77.00 Ry     beta= 0.20
     Davidson diagonalization with overlap
     ethr =  1.87E-07,  avg # of iterations =  1.5

     negative rho (up, down):  8.164E-04 0.000E+00

     total cpu time spent up to now is     6297.0 secs

     total energy              =  -26031.76613596 Ry
     estimated scf accuracy    <       0.00135170 Ry

     iteration # 14     ecut=    77.00 Ry     beta= 0.20
     Davidson diagonalization with overlap
     ethr =  1.04E-07,  avg # of iterations = 10.5

     negative rho (up, down):  8.352E-04 0.000E+00

     total cpu time spent up to now is     6668.0 secs

     total energy              =  -26031.76691567 Ry
     estimated scf accuracy    <       0.00008472 Ry

     iteration # 15     ecut=    77.00 Ry     beta= 0.20
     Davidson diagonalization with overlap
     c_bands:  2 eigenvalues not converged
     ethr =  6.53E-09,  avg # of iterations = 19.2

     negative rho (up, down):  8.473E-04 0.000E+00

     total cpu time spent up to now is     7823.1 secs

     total energy              =  -26031.76717838 Ry
     estimated scf accuracy    <       0.00028397 Ry

     iteration # 16     ecut=    77.00 Ry     beta= 0.20
     Davidson diagonalization with overlap
     ethr =  6.53E-09,  avg # of iterations =  7.5

     negative rho (up, down):  8.977E-04 0.000E+00

     total cpu time spent up to now is     8081.5 secs

     total energy              =  -26031.76711005 Ry
     estimated scf accuracy    <       0.00009190 Ry

     iteration # 17     ecut=    77.00 Ry     beta= 0.20
     Davidson diagonalization with overlap
     ethr =  6.53E-09,  avg # of iterations = 14.2

     negative rho (up, down):  9.015E-04 0.000E+00

     total cpu time spent up to now is     8594.5 secs

     total energy              =  -26031.76717597 Ry
     estimated scf accuracy    <       0.00012337 Ry

     iteration # 18     ecut=    77.00 Ry     beta= 0.20
     Davidson diagonalization with overlap
     ethr =  6.53E-09,  avg # of iterations =  1.5

     negative rho (up, down):  8.981E-04 0.000E+00

     total cpu time spent up to now is     8802.9 secs

     total energy              =  -26031.76715956 Ry
     estimated scf accuracy    <       0.00003745 Ry

     iteration # 19     ecut=    77.00 Ry     beta= 0.20
     Davidson diagonalization with overlap
     ethr =  2.89E-09,  avg # of iterations = 10.5

     negative rho (up, down):  9.077E-04 0.000E+00

     total cpu time spent up to now is     9148.5 secs

     End of self-consistent calculation

          k = 0.0000 0.0000 0.0000 (321495 PWs)   bands (ev):

  -102.1615 -88.6641 -70.4757 -70.4729 -70.4727 -70.4725 -70.4438 -70.4437
   -70.4276 -66.6543 -66.6333 -66.6333 -66.6332 -66.6332 -66.6332 -66.6332
   -66.6121 -66.6121 -66.6121 -66.6121 -66.6120 -66.6120 -66.6120 -66.6120
   -66.6119 -66.5885 -66.5679 -66.5677 -66.5675 -66.5672 -66.5671 -66.5668
   -66.5471 -66.5468 -66.5465 -66.5465 -66.5461 -66.5460 -66.5457 -66.5456
   -66.5455 -66.5179 -66.5090 -66.4963 -66.4889 -66.4867 -66.4797 -66.4776
   -66.4720 -66.4676 -66.4669 -66.4589 -66.4582 -66.4528 -66.4515 -66.4404
   -66.4339 -56.4130 -56.3983 -56.3901 -54.4875 -54.4659 -54.4451 -40.9806
   -40.9806 -40.9806 -40.9136 -40.9135 -40.9134 -40.9058 -40.9058 -40.9058
   -40.9058 -40.9058 -40.9057 -40.8391 -40.8390 -40.8388 -40.8387 -40.8386
   -40.8386 -40.8311 -40.8286 -40.8235 -40.8145 -40.7802 -40.7802 -40.7802
   -40.7802 -40.7802 -40.7802 -40.7731 -40.7731 -40.7731 -40.7731 -40.7730
   -40.7730 -40.7589 -40.7538 -40.7513 -40.7511 -40.7491 -40.7459 -40.7454
   -40.7454 -40.7454 -40.7454 -40.7453 -40.7453 -40.7434 -40.7315 -40.7315
   -40.7314 -40.7314 -40.7314 -40.7314 -40.7313 -40.7313 -40.7313 -40.7137
   -40.7135 -40.7134 -40.7133 -40.7132 -40.7131 -40.7082 -40.7080 -40.7079
   -40.7076 -40.7075 -40.7072 -40.7051 -40.6789 -40.6788 -40.6786 -40.6786
   -40.6784 -40.6783 -40.6725 -40.6676 -40.6676 -40.6676 -40.6669 -40.6667
   -40.6663 -40.6663 -40.6660 -40.6659 -40.6657 -40.6656 -40.6654 -40.6527
   -40.6389 -40.6344 -40.6329 -40.6318 -40.6311 -40.6293 -40.6288 -40.6263
   -40.6208 -40.6208 -40.6208 -40.6208 -40.6207 -40.6207 -40.6205 -40.6147
   -40.6072 -40.6017 -40.6009 -40.6008 -40.6008 -40.5996 -40.5981 -40.5964
   -40.5946 -40.5940 -40.5914 -40.5894 -40.5866 -40.5840 -40.5837 -40.5810
   -40.5787 -40.5735 -40.5735 -40.5735 -40.5545 -40.5541 -40.5541 -40.5540
   -40.5539 -40.5538 -40.5150 -40.5148 -40.5104 -40.5068 -40.5068 -40.4706
   -40.4675 -40.4671 -40.4647 -40.4626 -40.4528 -40.4162 -40.4138 -20.0935
   -20.0137 -19.8815 -19.3497 -19.2290 -19.2228 -19.2205 -19.2199 -19.2183
   -19.2086 -19.1709 -19.1428 -19.1266 -19.1266 -19.1039 -19.0606 -19.0430
   -19.0314 -19.0195 -19.0176 -18.9801 -18.8429 -18.6817 -18.5108 -18.4903
   -18.4803 -18.4767 -18.4493 -18.4274 -18.4220 -18.3596 -18.3582 -18.3506
   -18.3277 -18.3185 -18.2895 -18.2476 -18.2093 -18.1900 -18.1843 -18.1786
   -18.1588 -18.1204 -18.1137 -18.1136 -18.1135 -18.1131 -18.1129 -18.1127
   -18.0873 -18.0732 -18.0732 -18.0730 -18.0667 -18.0653 -18.0326 -18.0311
   -18.0290 -18.0267 -18.0230 -18.0205 -17.9999 -17.9985 -17.9985 -17.9561
   -17.9404 -17.9394 -17.9337 -17.9320 -17.9171 -17.9162 -17.9135 -17.9079
   -17.8946 -17.8928 -17.8858 -17.8853 -17.8805 -17.8568 -17.8560 -17.8502
   -17.8390 -17.8289 -17.8253 -17.8189 -17.8152 -17.8080 -17.7897 -17.7844
   -17.7757 -17.7640 -17.7514 -17.7405 -17.7303 -17.7292 -17.7179 -11.9877
   -11.8626 -11.7913 -11.7407 -11.7276 -11.7243 -11.7088 -11.6475 -11.6389
   -11.6320 -11.5855 -11.3915 -11.2324 -11.2032 -11.1880 -11.1810 -11.1784
   -11.1691 -11.1327 -11.1132 -11.1086 -11.1068 -11.1039 -11.1026 -11.0922
   -11.0876 -11.0654 -11.0613 -11.0205 -10.9843 -10.9727 -10.9616 -10.9591
   -10.9504 -10.9407 -10.9352 -10.8948 -10.8936 -10.8925 -10.8891 -10.8832
   -10.8765 -10.8386 -10.8225 -10.8204 -10.8162 -10.8090 -10.8058 -10.8031
   -10.8020 -10.8002 -10.8001 -10.7859 -10.7810 -10.7785 -10.7754 -10.7626
   -10.7600 -10.7581 -10.7560 -10.7552 -10.7520 -10.7333 -10.7306 -10.7042
   -10.6953 -10.6779 -10.6567 -10.6378 -10.6180 -10.6097 -10.5885 -10.5793
   -10.5775 -10.5686 -10.2582 -10.2193 -10.1283 -10.1200 -10.0235 -10.0178
   -10.0174  -9.9179  -9.8584  -9.8498  -9.8288  -9.7666  -9.7561  -9.7552
    -9.7495  -9.7454  -9.7436  -9.7181  -9.6831  -9.6765  -9.6763  -9.6697
    -9.6599  -9.6513  -9.6492  -9.6287  -9.6158  -9.5980  -9.5926  -9.5909
    -9.5880  -9.5777  -9.5713  -9.5490  -9.5480  -9.5476  -9.5460  -9.5449
    -9.5447  -9.5268  -9.5193  -9.5099  -9.5072  -9.4765  -9.4753  -9.4374
    -9.4255  -9.4193  -9.4160  -9.4075  -9.4015  -9.3486  -9.3311  -9.3220
    -9.3103  -9.3029  -9.2956  -9.2872  -9.2789  -9.2607  -9.2586  -9.2133
    -9.1813  -9.1753  -9.1706  -9.1629  -9.1578  -9.1575  -9.1552  -9.0729
    -9.0219  -9.0151  -9.0036  -8.9984  -8.9923  -8.9921  -8.9906  -8.9888
    -8.9859  -8.9662  -8.9526  -8.9483  -8.9122  -8.9119  -8.9102  -8.8834
    -8.8803  -8.8760  -8.8237  -8.8159  -8.7958  -8.7807  -8.7770  -8.7718
    -8.7715  -8.7693  -8.7560  -8.7469  -8.7396  -8.7293  -8.7149  -8.7094
    -8.7048  -8.6915  -8.6900  -8.6828  -8.6808  -8.6574  -8.4736  -8.4201
    -8.4029  -8.4029  -8.3786  -8.3660  -8.3309  -8.3304  -8.3054  -8.2910
    -8.2909  -8.2908  -8.2908  -8.2907  -8.2907  -8.2345  -8.2240  -8.2223
    -8.2194  -8.2151  -8.2144  -8.2097  -8.1883  -8.1760  -8.1564  -8.1160
    -8.0816  -8.0446  -8.0045  -7.9521  -7.9321  -7.9000  -7.8767  -7.8719
    -7.6632  -7.6485  -7.6278  -7.5884  -7.5556  -7.5555  -7.5555  -7.5553
    -7.5553  -7.5552  -7.5102  -7.5100  -7.5097  -7.5092  -7.5091  -7.5087
    -7.5027  -7.4996  -7.4899  -7.4887  -7.4835  -7.4824  -7.4715  -7.4682
    -7.4657  -7.4550  -7.4418  -7.4397  -7.4395  -7.4388  -7.4361  -7.4356
    -7.4267  -7.4253  -7.4221  -7.4169  -7.3984  -7.3923  -7.3912  -7.3886
    -7.3845  -7.3806  -7.3565  -7.3522  -7.2895  -7.2742  -7.2742  -7.2254
    -7.2185  -7.2125  -7.2040  -7.2037  -7.1735  -7.1618  -7.1564  -7.0500
    -7.0166  -6.9794  -6.9786  -6.9046  -6.8983  -6.8945  -6.8372  -6.8169
    -6.8159  -6.7715  -6.7709  -6.7617  -6.7541  -6.6821  -6.6594  -6.6441
    -6.6440  -6.6302  -6.6241  -6.6045  -6.5950  -6.5878  -6.5708  -6.5568
    -6.5547  -6.5303  -6.5288  -6.5001  -6.4908  -6.4900  -6.4839  -6.4802
    -6.4793  -6.4680  -6.4524  -6.4442  -6.4301  -6.4226  -6.4067  -6.4033
    -6.3962  -6.3921  -6.3904  -6.3511  -6.3222  -6.3222  -6.3222  -6.3222
    -6.3221  -6.3221  -6.3157  -6.3048  -6.2629  -6.2456  -6.2448  -6.2443
    -6.2438  -6.2438  -6.2380  -6.1926  -6.1771  -6.1570  -6.1201  -6.0703
    -6.0304  -5.8083  -5.6671  -5.6319  -5.5956  -5.3805  -5.3449  -5.3268
    -5.0956  -4.2958  -3.8415  -3.8100  -3.8085  -3.8038  -3.8013  -3.7854
    -3.7782  -3.7749  -3.7710  -3.7705  -3.7689  -3.7516  -3.6708  -3.5925
    -3.5803  -3.5638  -3.5620  -3.5507  -3.5490  -3.5406  -3.5329  -3.5305
    -3.5276  -3.4627  -3.4625  -3.4624  -3.4477  -3.4457  -3.4449  -3.4438
    -3.4436  -3.4427  -3.4092  -3.3953  -3.3952  -3.3952  -3.3717  -3.3601
    -3.3564  -3.3465  -3.3448  -3.3404  -3.3344  -3.3342  -3.3300  -3.3279
    -3.3264  -3.3245  -3.3077  -3.3056  -3.3029  -3.2875  -3.2578  -3.2445
    -3.2331  -3.2323  -3.2093  -3.1979  -3.1979  -3.1909  -3.1792  -3.1547
    -2.9965  -2.9963  -2.9961  -2.9916  -2.9912  -2.9801  -2.9325  -2.9252
    -2.9244  -2.9236  -2.9235  -2.9234  -2.9232  -2.9229  -2.9229  -2.9030
    -2.9019  -2.8995  -2.8896  -2.8881  -2.8712  -2.8629  -2.8601  -2.8543
    -2.8529  -2.8519  -2.8507  -2.8492  -2.8406  -2.8340  -2.8246  -2.8153
    -2.8090  -2.8018  -2.7780  -2.7672  -2.7581  -2.7528  -2.7363  -2.7355
    -2.7286  -2.7145  -2.7081  -2.7057  -2.7038  -2.6961  -2.6926  -2.6726
    -2.6628  -2.6624  -2.6421  -2.6104  -2.6102  -2.6058  -2.5946  -2.5756
    -2.5671  -2.5110  -2.5063  -2.4988  -2.4897  -2.4650  -2.4526  -2.4349
    -2.4321  -2.4253  -2.4196

          k = 0.0000-0.5773 0.0000 (321564 PWs)   bands (ev):

  -102.1615 -88.6641 -70.4757 -70.4729 -70.4727 -70.4725 -70.4438 -70.4437
   -70.4276 -66.6482 -66.6481 -66.6376 -66.6376 -66.6227 -66.6227 -66.6227
   -66.6226 -66.6183 -66.6182 -66.6121 -66.6121 -66.6120 -66.6120 -66.6077
   -66.6076 -66.5825 -66.5821 -66.5718 -66.5716 -66.5570 -66.5570 -66.5568
   -66.5565 -66.5526 -66.5521 -66.5466 -66.5463 -66.5461 -66.5458 -66.5418
   -66.5416 -66.5171 -66.5093 -66.4984 -66.4898 -66.4850 -66.4781 -66.4773
   -66.4717 -66.4684 -66.4673 -66.4589 -66.4581 -66.4529 -66.4516 -66.4406
   -66.4337 -56.4130 -56.3983 -56.3902 -54.4875 -54.4660 -54.4451 -40.9492
   -40.9492 -40.9491 -40.9491 -40.9226 -40.9225 -40.9106 -40.9106 -40.8825
   -40.8823 -40.8821 -40.8818 -40.8602 -40.8602 -40.8602 -40.8602 -40.8557
   -40.8554 -40.8437 -40.8435 -40.8024 -40.8024 -40.7994 -40.7963 -40.7959
   -40.7946 -40.7934 -40.7933 -40.7932 -40.7931 -40.7922 -40.7922 -40.7817
   -40.7817 -40.7784 -40.7685 -40.7551 -40.7523 -40.7523 -40.7523 -40.7522
   -40.7447 -40.7436 -40.7435 -40.7372 -40.7369 -40.7314 -40.7314 -40.7313
   -40.7313 -40.7312 -40.7312 -40.7255 -40.7254 -40.7227 -40.7227 -40.7164
   -40.7163 -40.7070 -40.7061 -40.7045 -40.7023 -40.7005 -40.7005 -40.7004
   -40.7004 -40.6993 -40.6871 -40.6871 -40.6869 -40.6867 -40.6785 -40.6781
   -40.6703 -40.6665 -40.6661 -40.6660 -40.6660 -40.6660 -40.6660 -40.6660
   -40.6657 -40.6645 -40.6644 -40.6583 -40.6575 -40.6574 -40.6540 -40.6539
   -40.6452 -40.6425 -40.6391 -40.6348 -40.6347 -40.6341 -40.6339 -40.6335
   -40.6335 -40.6325 -40.6178 -40.6178 -40.6155 -40.6128 -40.6113 -40.6082
   -40.6022 -40.5994 -40.5993 -40.5992 -40.5991 -40.5969 -40.5915 -40.5902
   -40.5874 -40.5874 -40.5873 -40.5870 -40.5857 -40.5839 -40.5804 -40.5729
   -40.5724 -40.5683 -40.5678 -40.5530 -40.5513 -40.5511 -40.5488 -40.5458
   -40.5443 -40.5209 -40.5205 -40.5133 -40.5106 -40.5090 -40.5081 -40.4980
   -40.4943 -40.4827 -40.4806 -40.4558 -40.4531 -40.4327 -40.4282 -19.8753
   -19.8507 -19.8126 -19.7506 -19.6635 -19.6311 -19.4194 -19.4164 -19.3473
   -19.3234 -19.2271 -19.2102 -18.8201 -18.7791 -18.7432 -18.7239 -18.7074
   -18.7051 -18.6969 -18.6950 -18.6769 -18.6000 -18.5977 -18.5829 -18.5718
   -18.5699 -18.5417 -18.5311 -18.5127 -18.4832 -18.4612 -18.4584 -18.4336
   -18.4184 -18.4073 -18.3895 -18.3818 -18.3528 -18.3349 -18.3204 -18.2608
   -18.2371 -18.2300 -18.2016 -18.1946 -18.1794 -18.1392 -18.1272 -18.1145
   -18.0940 -18.0940 -18.0936 -18.0935 -18.0907 -18.0713 -18.0707 -18.0543
   -18.0396 -18.0233 -18.0193 -18.0150 -18.0110 -18.0057 -18.0020 -17.9862
   -17.9681 -17.9578 -17.9416 -17.9383 -17.9363 -17.9169 -17.9140 -17.9014
   -17.9002 -17.8935 -17.8863 -17.8526 -17.8381 -17.8367 -17.8305 -17.8301
   -17.8301 -17.7849 -17.7771 -17.7709 -17.7704 -17.7701 -17.7562 -17.7536
   -17.7524 -17.7384 -17.7117 -17.7104 -17.6945 -17.6542 -17.6368 -11.8843
   -11.6509 -11.6203 -11.5508 -11.5067 -11.4827 -11.4425 -11.4398 -11.4356
   -11.4331 -11.4184 -11.4092 -11.3742 -11.3561 -11.3415 -11.3404 -11.3288
   -11.3131 -11.3117 -11.2961 -11.2697 -11.2502 -11.2496 -11.2395 -11.2232
   -11.2231 -11.1835 -11.1774 -11.1767 -11.1407 -11.1252 -11.1224 -11.1189
   -11.1174 -11.0491 -10.9924 -10.9825 -10.9510 -10.9457 -10.9284 -10.9074
   -10.8833 -10.8815 -10.8726 -10.8654 -10.8525 -10.8373 -10.8294 -10.8256
   -10.7977 -10.7975 -10.7961 -10.7951 -10.7895 -10.7812 -10.7788 -10.7676
   -10.7554 -10.7395 -10.7312 -10.7251 -10.7180 -10.7085 -10.6878 -10.5636
   -10.5439 -10.4732 -10.4701 -10.4309 -10.3946 -10.3917 -10.3248 -10.2866
   -10.2424 -10.1277 -10.1173 -10.1014 -10.0903 -10.0833 -10.0774 -10.0328
   -10.0033  -9.9927  -9.9746  -9.9450  -9.9229  -9.9058  -9.9009  -9.8978
    -9.8926  -9.8712  -9.8641  -9.8610  -9.8549  -9.8528  -9.8371  -9.7997
    -9.7653  -9.7351  -9.7342  -9.7200  -9.7116  -9.7036  -9.6947  -9.6772
    -9.6753  -9.6741  -9.6610  -9.6513  -9.6262  -9.6196  -9.6171  -9.5787
    -9.5775  -9.5760  -9.5727  -9.5093  -9.5053  -9.4977  -9.4860  -9.4772
    -9.4761  -9.4430  -9.4405  -9.4350  -9.4096  -9.3650  -9.3123  -9.2781
    -9.2369  -9.1960  -9.1781  -9.1616  -9.1500  -9.1396  -9.1201  -9.1082
    -9.0961  -9.0941  -9.0939  -9.0673  -9.0587  -9.0309  -9.0136  -8.9997
    -8.9896  -8.9883  -8.9680  -8.9640  -8.9575  -8.9443  -8.9382  -8.9272
    -8.9254  -8.9114  -8.9112  -8.8984  -8.8962  -8.8899  -8.8798  -8.8570
    -8.8515  -8.8402  -8.8269  -8.8224  -8.8178  -8.8071  -8.8059  -8.8036
    -8.8007  -8.7893  -8.7867  -8.7792  -8.7763  -8.7635  -8.7523  -8.7371
    -8.7291  -8.7166  -8.7086  -8.7039  -8.6574  -8.5490  -8.4836  -8.4797
    -8.4779  -8.4389  -8.4236  -8.3925  -8.3805  -8.3682  -8.2724  -8.2164
    -8.1958  -8.1593  -8.1593  -8.1415  -8.0877  -8.0869  -8.0639  -8.0259
    -8.0045  -7.9628  -7.9015  -7.8994  -7.8977  -7.8498  -7.8362  -7.8357
    -7.8321  -7.8165  -7.8154  -7.8126  -7.8126  -7.8059  -7.8051  -7.8025
    -7.7686  -7.7677  -7.7669  -7.7659  -7.7463  -7.7454  -7.7384  -7.7383
    -7.7306  -7.7151  -7.7100  -7.7063  -7.7042  -7.6987  -7.6933  -7.6926
    -7.6788  -7.6749  -7.6706  -7.6622  -7.6494  -7.6389  -7.6386  -7.6276
    -7.6275  -7.6232  -7.6048  -7.5989  -7.5862  -7.5788  -7.5709  -7.5610
    -7.5572  -7.5315  -7.5238  -7.5183  -7.4820  -7.4816  -7.4723  -7.4652
    -7.3881  -7.3352  -7.3187  -7.2357  -7.2106  -7.2099  -7.1968  -7.1774
    -7.1741  -7.1065  -7.0991  -7.0809  -7.0484  -7.0215  -7.0209  -7.0111
    -6.9776  -6.9750  -6.9555  -6.9509  -6.9399  -6.9220  -6.9188  -6.8817
    -6.8650  -6.8606  -6.8449  -6.8072  -6.7979  -6.7526  -6.7379  -6.7259
    -6.6981  -6.6887  -6.6478  -6.6260  -6.6249  -6.6245  -6.6243  -6.6243
    -6.6158  -6.6066  -6.5839  -6.5705  -6.5574  -6.5562  -6.5531  -6.5506
    -6.5307  -6.5010  -6.4641  -6.4477  -6.4238  -6.3982  -6.3460  -6.3100
    -6.2930  -6.2926  -6.2925  -6.2910  -6.2532  -6.2287  -6.2266  -6.2146
    -6.2123  -6.2098  -6.2086  -6.1815  -6.1708  -6.1642  -6.1485  -6.1145
    -6.0826  -5.9443  -5.9443  -5.8809  -5.8687  -5.8639  -5.8492  -5.8197
    -5.7664  -5.6515  -5.6190  -5.6037  -5.5777  -5.4561  -5.3655  -5.3298
    -5.3031  -4.2533  -3.9890  -3.9878  -3.9739  -3.9654  -3.8600  -3.8600
    -3.8421  -3.8417  -3.7954  -3.7951  -3.7634  -3.7517  -3.7467  -3.7246
    -3.7184  -3.7097  -3.6437  -3.6084  -3.5646  -3.5629  -3.5617  -3.5586
    -3.5454  -3.5452  -3.5383  -3.5165  -3.5130  -3.4942  -3.4675  -3.4655
    -3.4631  -3.4505  -3.4396  -3.4383  -3.4334  -3.4266  -3.4236  -3.3815
    -3.3798  -3.3639  -3.3425  -3.3272  -3.3236  -3.3127  -3.3119  -3.3023
    -3.2877  -3.2809  -3.2772  -3.2718  -3.2533  -3.2366  -3.2366  -3.2359
    -3.2358  -3.2302  -3.2262  -3.1988  -3.1975  -3.1893  -3.1783  -3.1717
    -3.1648  -3.1583  -3.1535  -3.1469  -3.1386  -3.1336  -3.0891  -3.0791
    -3.0746  -3.0639  -3.0594  -3.0324  -3.0318  -2.9967  -2.9932  -2.9913
    -2.9901  -2.9729  -2.9726  -2.9726  -2.9724  -2.9326  -2.9300  -2.9241
    -2.9230  -2.9073  -2.9001  -2.8830  -2.8816  -2.8791  -2.8784  -2.8682
    -2.8597  -2.8534  -2.8395  -2.8291  -2.8269  -2.8159  -2.7906  -2.7830
    -2.7826  -2.7732  -2.7702  -2.7623  -2.7584  -2.6938  -2.6903  -2.6659
    -2.6538  -2.6361  -2.6112  -2.6091  -2.5982  -2.5885  -2.5871  -2.5286
    -2.5244  -2.4994  -2.4688  -2.4575  -2.4475  -2.4396  -2.4282  -2.4170
    -2.3376  -2.3045  -2.2452

          k =-0.5000-0.2887 0.0000 (321564 PWs)   bands (ev):

  -102.1615 -88.6641 -70.4757 -70.4729 -70.4727 -70.4725 -70.4438 -70.4437
   -70.4276 -66.6482 -66.6481 -66.6376 -66.6376 -66.6227 -66.6227 -66.6226
   -66.6226 -66.6183 -66.6182 -66.6121 -66.6121 -66.6120 -66.6120 -66.6077
   -66.6076 -66.5826 -66.5820 -66.5718 -66.5717 -66.5569 -66.5569 -66.5568
   -66.5566 -66.5527 -66.5521 -66.5466 -66.5465 -66.5461 -66.5456 -66.5418
   -66.5417 -66.5171 -66.5095 -66.4980 -66.4893 -66.4861 -66.4785 -66.4771
   -66.4715 -66.4692 -66.4642 -66.4607 -66.4590 -66.4527 -66.4512 -66.4405
   -66.4338 -56.4130 -56.3983 -56.3902 -54.4875 -54.4660 -54.4451 -40.9492
   -40.9492 -40.9492 -40.9491 -40.9225 -40.9225 -40.9106 -40.9106 -40.8825
   -40.8824 -40.8820 -40.8818 -40.8602 -40.8602 -40.8602 -40.8602 -40.8558
   -40.8553 -40.8437 -40.8435 -40.8082 -40.8024 -40.8024 -40.8021 -40.7933
   -40.7933 -40.7932 -40.7932 -40.7922 -40.7922 -40.7877 -40.7839 -40.7817
   -40.7817 -40.7789 -40.7660 -40.7533 -40.7523 -40.7523 -40.7523 -40.7523
   -40.7506 -40.7436 -40.7436 -40.7373 -40.7368 -40.7314 -40.7314 -40.7314
   -40.7313 -40.7312 -40.7312 -40.7255 -40.7254 -40.7227 -40.7227 -40.7164
   -40.7163 -40.7083 -40.7074 -40.7061 -40.7033 -40.7005 -40.7005 -40.7005
   -40.7004 -40.6985 -40.6871 -40.6870 -40.6869 -40.6868 -40.6785 -40.6780
   -40.6685 -40.6664 -40.6664 -40.6660 -40.6660 -40.6660 -40.6660 -40.6660
   -40.6655 -40.6645 -40.6644 -40.6618 -40.6575 -40.6574 -40.6539 -40.6539
   -40.6460 -40.6407 -40.6347 -40.6347 -40.6341 -40.6339 -40.6337 -40.6337
   -40.6333 -40.6308 -40.6247 -40.6178 -40.6178 -40.6134 -40.6109 -40.6045
   -40.6009 -40.5994 -40.5993 -40.5992 -40.5992 -40.5974 -40.5927 -40.5889
   -40.5875 -40.5874 -40.5874 -40.5871 -40.5869 -40.5826 -40.5801 -40.5732
   -40.5723 -40.5683 -40.5677 -40.5542 -40.5512 -40.5511 -40.5498 -40.5454
   -40.5377 -40.5210 -40.5204 -40.5158 -40.5124 -40.5093 -40.5078 -40.5019
   -40.4892 -40.4817 -40.4780 -40.4611 -40.4547 -40.4364 -40.4224 -19.8819
   -19.8496 -19.8171 -19.7392 -19.6637 -19.6188 -19.4230 -19.4167 -19.3601
   -19.3259 -19.2320 -19.2123 -18.8152 -18.7534 -18.7363 -18.7162 -18.7084
   -18.7066 -18.6966 -18.6892 -18.6698 -18.6278 -18.6020 -18.5829 -18.5702
   -18.5699 -18.5612 -18.5390 -18.5098 -18.5027 -18.4596 -18.4581 -18.4338
   -18.4166 -18.4001 -18.3733 -18.3656 -18.3572 -18.3360 -18.2807 -18.2588
   -18.2506 -18.2376 -18.2056 -18.1956 -18.1818 -18.1616 -18.1322 -18.1201
   -18.1011 -18.0937 -18.0935 -18.0934 -18.0930 -18.0800 -18.0699 -18.0543
   -18.0416 -18.0195 -18.0180 -18.0138 -18.0116 -18.0050 -17.9985 -17.9766
   -17.9679 -17.9562 -17.9478 -17.9388 -17.9326 -17.9146 -17.9114 -17.9008
   -17.8972 -17.8893 -17.8848 -17.8498 -17.8445 -17.8316 -17.8301 -17.8301
   -17.8236 -17.7849 -17.7760 -17.7743 -17.7702 -17.7694 -17.7540 -17.7537
   -17.7469 -17.7391 -17.7153 -17.7104 -17.7034 -17.6516 -17.6402 -11.8858
   -11.6497 -11.6272 -11.6025 -11.4989 -11.4422 -11.4413 -11.4377 -11.4368
   -11.4253 -11.4108 -11.3832 -11.3661 -11.3569 -11.3495 -11.3410 -11.3297
   -11.2983 -11.2944 -11.2800 -11.2772 -11.2582 -11.2510 -11.2415 -11.2232
   -11.2231 -11.2165 -11.1776 -11.1772 -11.1663 -11.1230 -11.1220 -11.1188
   -11.1172 -11.0584 -11.0089 -10.9711 -10.9531 -10.9352 -10.9337 -10.9180
   -10.8838 -10.8825 -10.8751 -10.8607 -10.8455 -10.8289 -10.8247 -10.8140
   -10.8070 -10.7979 -10.7968 -10.7944 -10.7927 -10.7844 -10.7771 -10.7675
   -10.7566 -10.7369 -10.7349 -10.7246 -10.7175 -10.7082 -10.6842 -10.5696
   -10.5548 -10.5029 -10.4588 -10.4431 -10.3573 -10.3270 -10.3177 -10.2582
   -10.2496 -10.1934 -10.1516 -10.1069 -10.0898 -10.0790 -10.0756 -10.0364
   -10.0061  -9.9875  -9.9749  -9.9418  -9.9140  -9.9044  -9.9016  -9.8998
    -9.8955  -9.8852  -9.8672  -9.8621  -9.8583  -9.8516  -9.8461  -9.7751
    -9.7587  -9.7525  -9.7296  -9.7215  -9.7174  -9.7016  -9.6924  -9.6794
    -9.6766  -9.6677  -9.6645  -9.6447  -9.6274  -9.6233  -9.6126  -9.5962
    -9.5817  -9.5802  -9.5682  -9.5336  -9.5139  -9.4991  -9.4941  -9.4926
    -9.4732  -9.4364  -9.4353  -9.4176  -9.3973  -9.3183  -9.2885  -9.2671
    -9.2455  -9.1872  -9.1691  -9.1637  -9.1514  -9.1289  -9.1179  -9.1097
    -9.1062  -9.0977  -9.0935  -9.0667  -9.0585  -9.0322  -9.0191  -9.0022
    -8.9986  -8.9827  -8.9738  -8.9657  -8.9517  -8.9425  -8.9365  -8.9294
    -8.9172  -8.9119  -8.9064  -8.9013  -8.8974  -8.8909  -8.8764  -8.8722
    -8.8521  -8.8341  -8.8307  -8.8233  -8.8223  -8.8141  -8.8077  -8.8058
    -8.8039  -8.8012  -8.7877  -8.7803  -8.7692  -8.7564  -8.7497  -8.7299
    -8.7277  -8.7174  -8.7106  -8.7011  -8.6629  -8.5744  -8.4917  -8.4785
    -8.4781  -8.4447  -8.4144  -8.3974  -8.3843  -8.3158  -8.3000  -8.2356
    -8.1593  -8.1593  -8.1339  -8.1113  -8.0881  -8.0871  -8.0769  -8.0314
    -8.0080  -7.9857  -7.9030  -7.9014  -7.8888  -7.8729  -7.8511  -7.8308
    -7.8276  -7.8189  -7.8144  -7.8126  -7.8126  -7.8079  -7.8013  -7.7978
    -7.7775  -7.7682  -7.7670  -7.7663  -7.7636  -7.7489  -7.7432  -7.7397
    -7.7258  -7.7211  -7.7174  -7.7087  -7.6981  -7.6973  -7.6922  -7.6874
    -7.6770  -7.6656  -7.6605  -7.6582  -7.6541  -7.6422  -7.6354  -7.6279
    -7.6275  -7.6274  -7.6161  -7.6005  -7.5832  -7.5772  -7.5625  -7.5586
    -7.5492  -7.5363  -7.5214  -7.4980  -7.4938  -7.4850  -7.4650  -7.4273
    -7.4152  -7.3426  -7.3256  -7.2419  -7.2239  -7.2007  -7.1985  -7.1869
    -7.1700  -7.1136  -7.1003  -7.0761  -7.0602  -7.0434  -7.0053  -6.9920
    -6.9817  -6.9743  -6.9662  -6.9622  -6.9332  -6.9093  -6.9050  -6.8669
    -6.8662  -6.8614  -6.8279  -6.8090  -6.7950  -6.7766  -6.7537  -6.7228
    -6.7073  -6.6626  -6.6548  -6.6437  -6.6247  -6.6246  -6.6245  -6.6244
    -6.6143  -6.6035  -6.5690  -6.5647  -6.5560  -6.5544  -6.5531  -6.5522
    -6.5161  -6.4965  -6.4577  -6.4334  -6.4251  -6.4017  -6.3804  -6.2975
    -6.2936  -6.2928  -6.2925  -6.2870  -6.2716  -6.2302  -6.2265  -6.2169
    -6.2110  -6.2098  -6.2082  -6.1893  -6.1685  -6.1651  -6.1421  -6.1014
    -6.0824  -5.9443  -5.9443  -5.8920  -5.8759  -5.8671  -5.8619  -5.8116
    -5.7488  -5.6543  -5.6155  -5.6047  -5.5579  -5.4900  -5.3584  -5.3174
    -5.3093  -4.2790  -3.9920  -3.9841  -3.9808  -3.9552  -3.8597  -3.8596
    -3.8473  -3.8293  -3.7951  -3.7949  -3.7765  -3.7413  -3.7357  -3.7306
    -3.7174  -3.6848  -3.6530  -3.6003  -3.5692  -3.5623  -3.5603  -3.5579
    -3.5454  -3.5452  -3.5420  -3.5135  -3.5101  -3.4749  -3.4690  -3.4645
    -3.4622  -3.4534  -3.4446  -3.4374  -3.4350  -3.4288  -3.4236  -3.3916
    -3.3703  -3.3694  -3.3499  -3.3231  -3.3190  -3.3135  -3.3117  -3.3038
    -3.2898  -3.2808  -3.2766  -3.2715  -3.2647  -3.2378  -3.2360  -3.2358
    -3.2354  -3.2351  -3.2211  -3.2018  -3.1950  -3.1917  -3.1807  -3.1715
    -3.1658  -3.1612  -3.1576  -3.1443  -3.1413  -3.1165  -3.0911  -3.0836
    -3.0747  -3.0729  -3.0369  -3.0331  -3.0317  -2.9978  -2.9939  -2.9922
    -2.9885  -2.9731  -2.9727  -2.9724  -2.9724  -2.9382  -2.9282  -2.9247
    -2.9235  -2.9119  -2.8990  -2.8866  -2.8833  -2.8779  -2.8758  -2.8642
    -2.8593  -2.8488  -2.8436  -2.8347  -2.8294  -2.8241  -2.8008  -2.7889
    -2.7792  -2.7690  -2.7614  -2.7608  -2.7581  -2.6949  -2.6916  -2.6621
    -2.6557  -2.6210  -2.6104  -2.6102  -2.6087  -2.5934  -2.5912  -2.5287
    -2.5262  -2.4948  -2.4687  -2.4661  -2.4516  -2.4399  -2.4326  -2.4012
    -2.3196  -2.2886  -2.2447

          k =-0.5000-0.8660 0.0000 (321564 PWs)   bands (ev):

  -102.1615 -88.6641 -70.4757 -70.4729 -70.4727 -70.4725 -70.4438 -70.4437
   -70.4276 -66.6482 -66.6481 -66.6376 -66.6376 -66.6227 -66.6227 -66.6227
   -66.6226 -66.6183 -66.6182 -66.6121 -66.6121 -66.6120 -66.6120 -66.6077
   -66.6076 -66.5826 -66.5820 -66.5718 -66.5717 -66.5569 -66.5569 -66.5568
   -66.5566 -66.5527 -66.5521 -66.5466 -66.5465 -66.5461 -66.5456 -66.5418
   -66.5417 -66.5171 -66.5095 -66.4980 -66.4894 -66.4861 -66.4785 -66.4772
   -66.4715 -66.4692 -66.4642 -66.4607 -66.4590 -66.4527 -66.4512 -66.4405
   -66.4338 -56.4130 -56.3983 -56.3902 -54.4875 -54.4660 -54.4451 -40.9492
   -40.9492 -40.9491 -40.9491 -40.9225 -40.9225 -40.9106 -40.9106 -40.8825
   -40.8824 -40.8820 -40.8817 -40.8602 -40.8602 -40.8602 -40.8602 -40.8558
   -40.8553 -40.8437 -40.8435 -40.8082 -40.8024 -40.8024 -40.8021 -40.7933
   -40.7933 -40.7932 -40.7932 -40.7922 -40.7922 -40.7877 -40.7839 -40.7817
   -40.7817 -40.7789 -40.7660 -40.7533 -40.7523 -40.7523 -40.7523 -40.7522
   -40.7506 -40.7436 -40.7436 -40.7373 -40.7368 -40.7314 -40.7314 -40.7313
   -40.7313 -40.7312 -40.7312 -40.7255 -40.7254 -40.7227 -40.7227 -40.7164
   -40.7163 -40.7083 -40.7074 -40.7061 -40.7033 -40.7005 -40.7005 -40.7005
   -40.7004 -40.6985 -40.6871 -40.6870 -40.6869 -40.6868 -40.6785 -40.6780
   -40.6685 -40.6664 -40.6664 -40.6660 -40.6660 -40.6660 -40.6660 -40.6659
   -40.6655 -40.6645 -40.6644 -40.6618 -40.6575 -40.6574 -40.6539 -40.6539
   -40.6460 -40.6407 -40.6348 -40.6347 -40.6341 -40.6339 -40.6337 -40.6337
   -40.6333 -40.6308 -40.6247 -40.6178 -40.6178 -40.6134 -40.6109 -40.6045
   -40.6009 -40.5994 -40.5993 -40.5992 -40.5992 -40.5974 -40.5926 -40.5889
   -40.5875 -40.5874 -40.5873 -40.5872 -40.5869 -40.5825 -40.5801 -40.5732
   -40.5723 -40.5683 -40.5677 -40.5542 -40.5512 -40.5511 -40.5498 -40.5454
   -40.5377 -40.5210 -40.5204 -40.5158 -40.5124 -40.5093 -40.5078 -40.5019
   -40.4892 -40.4817 -40.4779 -40.4611 -40.4547 -40.4364 -40.4224 -19.8819
   -19.8496 -19.8171 -19.7392 -19.6637 -19.6188 -19.4230 -19.4167 -19.3601
   -19.3259 -19.2320 -19.2123 -18.8152 -18.7533 -18.7363 -18.7161 -18.7084
   -18.7066 -18.6966 -18.6891 -18.6700 -18.6278 -18.6020 -18.5829 -18.5702
   -18.5699 -18.5612 -18.5390 -18.5098 -18.5027 -18.4596 -18.4581 -18.4338
   -18.4166 -18.4001 -18.3733 -18.3656 -18.3572 -18.3360 -18.2807 -18.2588
   -18.2506 -18.2376 -18.2056 -18.1956 -18.1818 -18.1615 -18.1322 -18.1201
   -18.1011 -18.0937 -18.0935 -18.0934 -18.0930 -18.0800 -18.0699 -18.0543
   -18.0416 -18.0195 -18.0180 -18.0137 -18.0116 -18.0050 -17.9985 -17.9766
   -17.9679 -17.9562 -17.9478 -17.9388 -17.9326 -17.9146 -17.9114 -17.9008
   -17.8972 -17.8893 -17.8848 -17.8498 -17.8445 -17.8316 -17.8301 -17.8301
   -17.8236 -17.7848 -17.7759 -17.7743 -17.7702 -17.7694 -17.7540 -17.7537
   -17.7469 -17.7391 -17.7153 -17.7104 -17.7034 -17.6516 -17.6402 -11.8858
   -11.6497 -11.6272 -11.6025 -11.4988 -11.4423 -11.4413 -11.4377 -11.4368
   -11.4253 -11.4108 -11.3832 -11.3661 -11.3569 -11.3495 -11.3410 -11.3297
   -11.2983 -11.2945 -11.2800 -11.2772 -11.2582 -11.2510 -11.2415 -11.2232
   -11.2231 -11.2165 -11.1776 -11.1772 -11.1663 -11.1230 -11.1220 -11.1188
   -11.1172 -11.0584 -11.0089 -10.9710 -10.9531 -10.9352 -10.9337 -10.9180
   -10.8838 -10.8825 -10.8751 -10.8606 -10.8455 -10.8289 -10.8247 -10.8140
   -10.8070 -10.7979 -10.7968 -10.7944 -10.7927 -10.7844 -10.7771 -10.7675
   -10.7566 -10.7369 -10.7349 -10.7246 -10.7175 -10.7082 -10.6842 -10.5696
   -10.5549 -10.5028 -10.4588 -10.4431 -10.3574 -10.3273 -10.3177 -10.2582
   -10.2495 -10.1933 -10.1516 -10.1069 -10.0898 -10.0790 -10.0756 -10.0364
   -10.0061  -9.9875  -9.9749  -9.9418  -9.9140  -9.9044  -9.9016  -9.8998
    -9.8955  -9.8853  -9.8672  -9.8621  -9.8583  -9.8516  -9.8461  -9.7751
    -9.7587  -9.7525  -9.7296  -9.7215  -9.7174  -9.7016  -9.6924  -9.6794
    -9.6766  -9.6677  -9.6645  -9.6447  -9.6274  -9.6233  -9.6126  -9.5962
    -9.5817  -9.5802  -9.5682  -9.5336  -9.5139  -9.4991  -9.4941  -9.4927
    -9.4732  -9.4364  -9.4353  -9.4176  -9.3973  -9.3183  -9.2885  -9.2671
    -9.2455  -9.1872  -9.1691  -9.1637  -9.1513  -9.1289  -9.1179  -9.1097
    -9.1062  -9.0977  -9.0935  -9.0667  -9.0585  -9.0323  -9.0191  -9.0023
    -8.9986  -8.9827  -8.9738  -8.9656  -8.9517  -8.9425  -8.9365  -8.9294
    -8.9172  -8.9119  -8.9064  -8.9013  -8.8974  -8.8909  -8.8764  -8.8722
    -8.8521  -8.8341  -8.8307  -8.8233  -8.8223  -8.8141  -8.8077  -8.8058
    -8.8039  -8.8012  -8.7877  -8.7803  -8.7692  -8.7565  -8.7497  -8.7299
    -8.7277  -8.7174  -8.7106  -8.7011  -8.6629  -8.5743  -8.4917  -8.4785
    -8.4781  -8.4447  -8.4144  -8.3974  -8.3844  -8.3159  -8.2998  -8.2356
    -8.1593  -8.1593  -8.1339  -8.1113  -8.0881  -8.0871  -8.0769  -8.0314
    -8.0080  -7.9857  -7.9030  -7.9014  -7.8888  -7.8729  -7.8511  -7.8308
    -7.8276  -7.8189  -7.8144  -7.8126  -7.8126  -7.8079  -7.8013  -7.7979
    -7.7775  -7.7683  -7.7670  -7.7663  -7.7636  -7.7489  -7.7432  -7.7397
    -7.7258  -7.7210  -7.7174  -7.7087  -7.6981  -7.6973  -7.6922  -7.6874
    -7.6770  -7.6656  -7.6605  -7.6582  -7.6541  -7.6422  -7.6354  -7.6279
    -7.6275  -7.6274  -7.6161  -7.6004  -7.5832  -7.5772  -7.5625  -7.5586
    -7.5492  -7.5363  -7.5214  -7.4980  -7.4938  -7.4850  -7.4650  -7.4273
    -7.4152  -7.3426  -7.3256  -7.2419  -7.2239  -7.2007  -7.1984  -7.1869
    -7.1699  -7.1135  -7.1003  -7.0761  -7.0602  -7.0435  -7.0053  -6.9920
    -6.9817  -6.9743  -6.9662  -6.9622  -6.9332  -6.9093  -6.9050  -6.8669
    -6.8662  -6.8614  -6.8279  -6.8090  -6.7950  -6.7766  -6.7537  -6.7228
    -6.7073  -6.6626  -6.6548  -6.6437  -6.6247  -6.6246  -6.6245  -6.6244
    -6.6143  -6.6035  -6.5690  -6.5647  -6.5560  -6.5544  -6.5531  -6.5521
    -6.5161  -6.4965  -6.4577  -6.4334  -6.4251  -6.4017  -6.3804  -6.2975
    -6.2936  -6.2928  -6.2925  -6.2870  -6.2716  -6.2302  -6.2265  -6.2169
    -6.2110  -6.2098  -6.2082  -6.1893  -6.1685  -6.1651  -6.1422  -6.1014
    -6.0823  -5.9443  -5.9443  -5.8920  -5.8759  -5.8671  -5.8619  -5.8116
    -5.7488  -5.6543  -5.6155  -5.6047  -5.5579  -5.4900  -5.3585  -5.3172
    -5.3094  -4.2791  -3.9920  -3.9835  -3.9808  -3.9552  -3.8597  -3.8596
    -3.8473  -3.8292  -3.7951  -3.7948  -3.7764  -3.7420  -3.7358  -3.7307
    -3.7174  -3.6848  -3.6530  -3.6002  -3.5692  -3.5623  -3.5605  -3.5579
    -3.5454  -3.5453  -3.5419  -3.5135  -3.5100  -3.4749  -3.4691  -3.4649
    -3.4621  -3.4538  -3.4446  -3.4376  -3.4352  -3.4287  -3.4239  -3.3919
    -3.3703  -3.3694  -3.3503  -3.3231  -3.3194  -3.3135  -3.3117  -3.3042
    -3.2898  -3.2809  -3.2767  -3.2715  -3.2649  -3.2380  -3.2362  -3.2360
    -3.2355  -3.2352  -3.2210  -3.2015  -3.1946  -3.1919  -3.1815  -3.1716
    -3.1658  -3.1612  -3.1575  -3.1437  -3.1407  -3.1166  -3.0911  -3.0836
    -3.0747  -3.0728  -3.0368  -3.0330  -3.0317  -2.9979  -2.9938  -2.9922
    -2.9891  -2.9731  -2.9727  -2.9724  -2.9723  -2.9381  -2.9282  -2.9247
    -2.9235  -2.9119  -2.8990  -2.8869  -2.8834  -2.8781  -2.8759  -2.8643
    -2.8594  -2.8487  -2.8438  -2.8354  -2.8296  -2.8239  -2.8004  -2.7888
    -2.7788  -2.7686  -2.7589  -2.7566  -2.7540  -2.6915  -2.6857  -2.6593
    -2.6513  -2.6199  -2.6103  -2.6097  -2.6084  -2.5935  -2.5908  -2.5285
    -2.5257  -2.4919  -2.4684  -2.4664  -2.4516  -2.4393  -2.4327  -2.3962
    -2.3044  -2.2863  -2.2205

     the Fermi energy is    -4.7035 ev

!    total energy              =  -26031.76717364 Ry
     total all-electron energy =   -512284.336801 Ry
     estimated scf accuracy    <       0.00000089 Ry
     smearing contrib. (-TS)   =      -0.00000072 Ry
     internal energy E=F+TS    =  -26031.76717292 Ry

     The total energy is F=E-TS. E is the sum of the following terms:
     one-electron contribution =  492135.78784622 Ry
     hartree contribution      = -246207.69687891 Ry
     xc contribution           =   -1534.65563297 Ry
     ewald contribution        = -254232.41481715 Ry
     DFT-D3 Dispersion         =      -4.02010954 Ry
     one-center paw contrib.   =  -16188.76758057 Ry

     convergence has been achieved in  19 iterations

     negative rho (up, down):  9.077E-04 0.000E+00

     Forces acting on atoms (cartesian axes, Ry/au):

     atom    1 type  1   force =     0.00043698    0.00021613    0.00066406
     atom    2 type  1   force =    -0.00001786   -0.00002221    0.00191909
     atom    3 type  1   force =     0.00001620   -0.00002098    0.00004184
     atom    4 type  2   force =    -0.00000782   -0.00000076   -0.00284093
     atom    5 type  2   force =    -0.00000732    0.00000360    0.00040623
     atom    6 type  2   force =     0.00116239    0.00060831   -0.00097848
     atom    7 type  2   force =    -0.00001057   -0.00000142    0.00103828
     atom    8 type  2   force =     0.00001331   -0.00000565   -0.00045746
     atom    9 type  2   force =    -0.00091024   -0.00032388   -0.00221554
     atom   10 type  1   force =    -0.00026675   -0.00006167    0.00079655
     atom   11 type  1   force =    -0.00001758    0.00000271    0.00191775
     atom   12 type  1   force =     0.00002521    0.00000195    0.00003524
     atom   13 type  2   force =    -0.00001174    0.00000627   -0.00283781
     atom   14 type  2   force =    -0.00003145   -0.00001978    0.00040512
     atom   15 type  2   force =     0.00029577   -0.00011216    0.00030643
     atom   16 type  2   force =    -0.00001237   -0.00000246    0.00105404
     atom   17 type  2   force =    -0.00004271   -0.00001474   -0.00045192
     atom   18 type  2   force =     0.00017169    0.00028330    0.00038642
     atom   19 type  1   force =     0.00075203    0.00041893    0.00008209
     atom   20 type  1   force =     0.00000474    0.00001367    0.00191974
     atom   21 type  1   force =    -0.00000108    0.00003012   -0.00004969
     atom   22 type  2   force =    -0.00000056   -0.00000294   -0.00284901
     atom   23 type  2   force =    -0.00000576    0.00000844    0.00042596
     atom   24 type  2   force =    -0.00000616   -0.00015591    0.00027613
     atom   25 type  2   force =     0.00000208   -0.00000128    0.00104675
     atom   26 type  2   force =    -0.00000200    0.00001413   -0.00046951
     atom   27 type  2   force =    -0.00000285    0.00012411   -0.00034418
     atom   28 type  1   force =    -0.00000847   -0.00037355    0.00044748
     atom   29 type  1   force =    -0.00000104    0.00001025    0.00191748
     atom   30 type  1   force =     0.00003613    0.00001880    0.00000460
     atom   31 type  2   force =    -0.00000046    0.00000233   -0.00285605
     atom   32 type  2   force =    -0.00000162   -0.00000401    0.00040513
     atom   33 type  2   force =    -0.00019287    0.00028419    0.00014876
     atom   34 type  2   force =    -0.00000740   -0.00000170    0.00105206
     atom   35 type  2   force =     0.00000211   -0.00000414   -0.00045818
     atom   36 type  2   force =     0.00052320   -0.00024952    0.00042161
     atom   37 type  1   force =    -0.00043561    0.00021037    0.00067231
     atom   38 type  1   force =     0.00000899   -0.00003971    0.00191516
     atom   39 type  1   force =     0.00000529   -0.00006247   -0.00003372
     atom   40 type  2   force =    -0.00000286   -0.00000228   -0.00283331
     atom   41 type  2   force =    -0.00000219    0.00000334    0.00040783
     atom   42 type  2   force =    -0.00000002    0.00050997    0.00038037
     atom   43 type  2   force =    -0.00000884   -0.00000087    0.00104548
     atom   44 type  2   force =    -0.00001151   -0.00000053   -0.00045258
     atom   45 type  2   force =     0.00000040   -0.00034413   -0.00068806
     atom   46 type  1   force =     0.00000717    0.00020983    0.00011455
     atom   47 type  1   force =     0.00000809    0.00000070    0.00191308
     atom   48 type  1   force =    -0.00005221    0.00002750   -0.00002688
     atom   49 type  2   force =    -0.00000690    0.00000191   -0.00283473
     atom   50 type  2   force =    -0.00000550    0.00000173    0.00043643
     atom   51 type  2   force =     0.00007691    0.00010299    0.00030346
     atom   52 type  2   force =    -0.00001514    0.00000306    0.00104118
     atom   53 type  2   force =    -0.00000007    0.00000374   -0.00044556
     atom   54 type  2   force =    -0.00119040    0.00013862   -0.00143901
     atom   55 type  1   force =    -0.00193113   -0.00306899   -0.00133758
     atom   56 type  1   force =    -0.00000251    0.00001768    0.00191400
     atom   57 type  1   force =     0.00003988   -0.00002154    0.00001921
     atom   58 type  2   force =    -0.00000926    0.00000302   -0.00284901
     atom   59 type  2   force =     0.00000337    0.00000722    0.00042841
     atom   60 type  2   force =     0.00071545   -0.00041444    0.00037314
     atom   61 type  2   force =    -0.00000780   -0.00000455    0.00105655
     atom   62 type  2   force =     0.00000105   -0.00000968   -0.00044594
     atom   63 type  2   force =    -0.00016211   -0.00049270    0.00003693
     atom   64 type  1   force =    -0.00395343    0.00056918   -0.00199167
     atom   65 type  1   force =     0.00001073    0.00002262    0.00192006
     atom   66 type  1   force =    -0.00003250    0.00001954   -0.00000322
     atom   67 type  2   force =    -0.00000578    0.00000155   -0.00284802
     atom   68 type  2   force =     0.00000059    0.00000516    0.00042279
     atom   69 type  2   force =     0.00018783    0.00028851    0.00013912
     atom   70 type  2   force =     0.00000237   -0.00000513    0.00105405
     atom   71 type  2   force =    -0.00000275    0.00000122   -0.00038156
     atom   72 type  2   force =    -0.00053568   -0.00024642    0.00041393
     atom   73 type  1   force =    -0.00244955    0.00337292   -0.00218993
     atom   74 type  1   force =     0.00000996    0.00001512    0.00192537
     atom   75 type  1   force =    -0.00000814   -0.00003606    0.00004317
     atom   76 type  2   force =     0.00000664    0.00000464   -0.00282641
     atom   77 type  2   force =     0.00005433    0.00002543    0.00047589
     atom   78 type  2   force =    -0.00116487    0.00061100   -0.00097994
     atom   79 type  2   force =     0.00000895    0.00000090    0.00102651
     atom   80 type  2   force =    -0.00004850   -0.00001204   -0.00034351
     atom   81 type  2   force =     0.00090637   -0.00032288   -0.00221669
     atom   82 type  1   force =     0.00026794   -0.00004009    0.00080906
     atom   83 type  1   force =     0.00002730   -0.00001126    0.00191250
     atom   84 type  1   force =     0.00005862    0.00005465   -0.00002050
     atom   85 type  2   force =     0.00000101    0.00000196   -0.00284127
     atom   86 type  2   force =     0.00003270   -0.00001793    0.00040008
     atom   87 type  2   force =    -0.00006869    0.00009961    0.00029475
     atom   88 type  2   force =     0.00000636    0.00000399    0.00105340
     atom   89 type  2   force =     0.00004149   -0.00001537   -0.00044521
     atom   90 type  2   force =     0.00119499    0.00014562   -0.00141773
     atom   91 type  1   force =     0.00194940   -0.00305628   -0.00133543
     atom   92 type  1   force =     0.00001314    0.00002800    0.00190240
     atom   93 type  1   force =     0.00000315   -0.00000702    0.00002371
     atom   94 type  2   force =    -0.00000173    0.00000623   -0.00285061
     atom   95 type  2   force =    -0.00000722    0.00000860    0.00043198
     atom   96 type  2   force =     0.00000205   -0.00141261   -0.00075226
     atom   97 type  2   force =    -0.00000291    0.00000146    0.00105843
     atom   98 type  2   force =     0.00000081   -0.00000831   -0.00044621
     atom   99 type  2   force =    -0.00000218   -0.00057944   -0.00213959
     atom  100 type  1   force =     0.00002651   -0.00025388   -0.03504533
     atom  101 type  1   force =     0.00000852    0.00002737    0.00192315
     atom  102 type  1   force =     0.00004193    0.00002874    0.00002083
     atom  103 type  2   force =    -0.00000274    0.00000531   -0.00284676
     atom  104 type  2   force =     0.00000177    0.00004274    0.00043730
     atom  105 type  2   force =     0.00069087    0.00041383    0.00404281
     atom  106 type  2   force =     0.00000193    0.00001332    0.00105848
     atom  107 type  2   force =     0.00000460    0.00004828   -0.00041908
     atom  108 type  2   force =    -0.02152030   -0.01251674    0.02394722
     atom  109 type  1   force =     0.00245362    0.00338321   -0.00220792
     atom  110 type  1   force =     0.00000278   -0.00000437    0.00192779
     atom  111 type  1   force =     0.00000961   -0.00007139    0.00014842
     atom  112 type  2   force =    -0.00000280   -0.00000088   -0.00283865
     atom  113 type  2   force =    -0.00005608    0.00002403    0.00047443
     atom  114 type  2   force =     0.00000395   -0.00103264    0.00385686
     atom  115 type  2   force =     0.00000128   -0.00000494    0.00105073
     atom  116 type  2   force =     0.00004707   -0.00001754   -0.00034556
     atom  117 type  2   force =     0.00000103    0.02470796    0.02346669
     atom  118 type  1   force =     0.00000291   -0.00066365    0.00021277
     atom  119 type  1   force =     0.00000696   -0.00002727    0.00192194
     atom  120 type  1   force =    -0.00000703   -0.00000172    0.00002096
     atom  121 type  2   force =     0.00000275   -0.00000185   -0.00283797
     atom  122 type  2   force =    -0.00000082   -0.00006406    0.00046188
     atom  123 type  2   force =    -0.00030587   -0.00010758    0.00030866
     atom  124 type  2   force =     0.00001206   -0.00000270    0.00105621
     atom  125 type  2   force =     0.00000064    0.00003473   -0.00034627
     atom  126 type  2   force =    -0.00018434    0.00029177    0.00039511
     atom  127 type  1   force =    -0.00076105    0.00042789    0.00008118
     atom  128 type  1   force =     0.00001218    0.00000534    0.00191233
     atom  129 type  1   force =    -0.00003456   -0.00002100    0.00001089
     atom  130 type  2   force =     0.00000300    0.00000361   -0.00284751
     atom  131 type  2   force =    -0.00000269    0.00000914    0.00041874
     atom  132 type  2   force =    -0.00071727   -0.00041615    0.00036070
     atom  133 type  2   force =    -0.00000230    0.00000192    0.00104399
     atom  134 type  2   force =    -0.00000221    0.00001190   -0.00045589
     atom  135 type  2   force =     0.00016009   -0.00049844    0.00004881
     atom  136 type  1   force =     0.00395210    0.00053620   -0.00200550
     atom  137 type  1   force =     0.00000472    0.00002756    0.00192143
     atom  138 type  1   force =    -0.00003831    0.00004551    0.00003420
     atom  139 type  2   force =    -0.00000322    0.00000640   -0.00284717
     atom  140 type  2   force =    -0.00000770    0.00000542    0.00042656
     atom  141 type  2   force =    -0.00068654    0.00041954    0.00404936
     atom  142 type  2   force =    -0.00000229    0.00001107    0.00104784
     atom  143 type  2   force =     0.00000330    0.00000325   -0.00038346
     atom  144 type  2   force =     0.02146891   -0.01249247    0.02394515
     atom  145 type  3   force =     0.00001668    0.00223537    0.00084175
     atom  146 type  4   force =    -0.00000412   -0.00153746   -0.03554811

     Total force =     0.079104     Total SCF correction =     0.002228

     BFGS Geometry Optimization
     Energy error            =      0.0E+00 Ry
     Gradient error          =      3.6E-02 Ry/Bohr

     number of scf cycles    =   1
     number of bfgs steps    =   0

     energy             new  =  -26031.7671736376 Ry

     new trust radius        =       0.0355813454 bohr
     new conv_thr            =       0.0000010000 Ry


ATOMIC_POSITIONS (angstrom)
Mo               1.5705926264        2.7179961129        6.0886622521
Mo               1.5769197498        0.9104407117       -6.0872367793    0   0   0
Mo               0.0002027829        1.8211159304       -0.0006509281
S                0.0000044503        0.0000077495       -7.6506323570    0   0   0
S                1.5766867940        0.9108665114       -1.5665021855
S                0.0029781057        1.8231027723        4.5073051366
S                0.0000053241        0.0000068460       -4.5222282367    0   0   0
S                1.5771993906        0.9101063266        1.5654408870
S               -0.0121156345        1.8081471852        7.6466778023
Mo              -0.0150418476        5.4636028151        6.0887311457
Mo               0.0000011799        3.6417399547       -6.0872367793    0   0   0
Mo              -1.5765998328        4.5522317540       -0.0006537201
S               -1.5769141197        2.7313069925       -7.6506323570    0   0   0
S                0.0002759478        3.6419121982       -1.5657827032
S               -1.5739239350        4.5531953148        4.5079838988
[...]
     atom   70 type  2   force =     0.00000503   -0.00000390    0.00150696
     atom   71 type  2   force =     0.00002220    0.00001431    0.00002016
     atom   72 type  2   force =    -0.00005526   -0.00006682    0.00001817
     atom   73 type  1   force =    -0.00017225    0.00010480   -0.00000570
     atom   74 type  1   force =     0.00000141   -0.00000187    0.00189597
     atom   75 type  1   force =    -0.00000741    0.00000166   -0.00000584
     atom   76 type  2   force =     0.00000019   -0.00000083   -0.00327967
     atom   77 type  2   force =     0.00001513   -0.00000899    0.00000655
     atom   78 type  2   force =    -0.00013704    0.00008199   -0.00033743
     atom   79 type  2   force =     0.00000826   -0.00000106    0.00149031
     atom   80 type  2   force =    -0.00000538    0.00000486   -0.00003245
     atom   81 type  2   force =    -0.00001045   -0.00001803    0.00001919
     atom   82 type  1   force =     0.00004162    0.00002169   -0.00011371
     atom   83 type  1   force =     0.00000187   -0.00000147    0.00189679
     atom   84 type  1   force =     0.00000227    0.00000108   -0.00000760
     atom   85 type  2   force =     0.00000052   -0.00000086   -0.00327926
     atom   86 type  2   force =     0.00000851    0.00001146    0.00000775
     atom   87 type  2   force =    -0.00015030   -0.00010433    0.00000856
     atom   88 type  2   force =     0.00000577    0.00000447    0.00149289
     atom   89 type  2   force =    -0.00001082   -0.00001527   -0.00002787
     atom   90 type  2   force =     0.00004065   -0.00001074   -0.00026014
     atom   91 type  1   force =     0.00000011   -0.00017635   -0.00003669
     atom   92 type  1   force =    -0.00000128    0.00000068    0.00189565
     atom   93 type  1   force =     0.00000012   -0.00001143   -0.00001088
     atom   94 type  2   force =     0.00000030   -0.00000053   -0.00327979
     atom   95 type  2   force =     0.00001350    0.00000201    0.00000145
     atom   96 type  2   force =    -0.00000076   -0.00019742   -0.00031666
     atom   97 type  2   force =    -0.00000017    0.00000479    0.00148798
     atom   98 type  2   force =    -0.00001793   -0.00000127   -0.00003194
     atom   99 type  2   force =     0.00000053    0.00001474    0.00007433
     atom  100 type  1   force =    -0.00000086    0.00000006   -0.00048288
     atom  101 type  1   force =    -0.00000018    0.00000182    0.00189313
     atom  102 type  1   force =    -0.00000266    0.00000005   -0.00000157
     atom  103 type  2   force =     0.00000001   -0.00000017   -0.00327924
     atom  104 type  2   force =    -0.00000008    0.00002315    0.00000223
     atom  105 type  2   force =    -0.00013420   -0.00001500    0.00023294
     atom  106 type  2   force =     0.00000731    0.00000372    0.00148965
     atom  107 type  2   force =     0.00000033   -0.00000537   -0.00003335
     atom  108 type  2   force =     0.00009481    0.00007882    0.00008615
     atom  109 type  1   force =     0.00017299    0.00010532   -0.00000668
     atom  110 type  1   force =    -0.00000203   -0.00000183    0.00189594
     atom  111 type  1   force =     0.00000020   -0.00000083    0.00000145
     atom  112 type  2   force =     0.00000026   -0.00000049   -0.00327905
     atom  113 type  2   force =    -0.00001526   -0.00000921    0.00000729
     atom  114 type  2   force =     0.00000007    0.00005568    0.00031453
     atom  115 type  2   force =    -0.00000022    0.00000067    0.00150663
     atom  116 type  2   force =     0.00000508    0.00000433   -0.00003268
     atom  117 type  2   force =     0.00000021   -0.00007366    0.00009227
     atom  118 type  1   force =    -0.00000031   -0.00000250   -0.00008277
     atom  119 type  1   force =    -0.00000032   -0.00000321    0.00189784
     atom  120 type  1   force =     0.00000083   -0.00000559    0.00000584
     atom  121 type  2   force =     0.00000059   -0.00000061   -0.00327930
     atom  122 type  2   force =    -0.00000022    0.00001279    0.00003870
     atom  123 type  2   force =    -0.00002129    0.00002387   -0.00009417
     atom  124 type  2   force =     0.00000556   -0.00000393    0.00150405
     atom  125 type  2   force =    -0.00000009   -0.00002636    0.00002279
     atom  126 type  2   force =     0.00002571    0.00007748    0.00004745
     atom  127 type  1   force =     0.00000496    0.00000588   -0.00012320
     atom  128 type  1   force =    -0.00000101   -0.00000243    0.00190085
     atom  129 type  1   force =    -0.00000519    0.00000333    0.00000849
     atom  130 type  2   force =     0.00000064   -0.00000056   -0.00327954
     atom  131 type  2   force =     0.00001656    0.00000773    0.00003993
     atom  132 type  2   force =     0.00006111   -0.00003462   -0.00015628
     atom  133 type  2   force =    -0.00000684   -0.00000561    0.00149060
     atom  134 type  2   force =    -0.00002891   -0.00001944   -0.00001390
     atom  135 type  2   force =     0.00007597    0.00000968    0.00000234
     atom  136 type  1   force =     0.00017277    0.00009449   -0.00002787
     atom  137 type  1   force =    -0.00000407    0.00000168    0.00189859
     atom  138 type  1   force =     0.00000252    0.00000014   -0.00000147
     atom  139 type  2   force =     0.00000056   -0.00000016   -0.00327923
     atom  140 type  2   force =     0.00001138   -0.00000551    0.00003337
     atom  141 type  2   force =     0.00013458   -0.00001516    0.00023390
     atom  142 type  2   force =    -0.00000769    0.00000371    0.00148962
     atom  143 type  2   force =    -0.00002234    0.00001403    0.00001980
     atom  144 type  2   force =    -0.00009687    0.00008099    0.00008787
     atom  145 type  3   force =    -0.00000041   -0.00016761   -0.00001071
     atom  146 type  4   force =    -0.00000285    0.00002343   -0.00035206

     Total force =     0.001405     Total SCF correction =     0.001142
     SCF correction compared to forces is large: reduce conv_thr to get better values
     Energy error            =      1.5E-06 Ry
     Gradient error          =      4.8E-04 Ry/Bohr

     bfgs converged in  22 scf cycles and  21 bfgs steps
     (criteria: energy <  1.0E-04 Ry, force <  1.0E-03 Ry/Bohr)

     End of BFGS Geometry Optimization

     Final energy             =  -26031.7958425613 Ry

     File ./outdir/pwscf.bfgs deleted, as requested
Begin final coordinates

ATOMIC_POSITIONS (angstrom)
Mo               1.5723308244        2.7201071209        6.0842440823
Mo               1.5769197498        0.9104407117       -6.0872367793    0   0   0
Mo              -0.0000212804        1.8209805428       -0.0004136834
S                0.0000044503        0.0000077495       -7.6506323570    0   0   0
S                1.5762007046        0.9106031027       -1.5669717430
S                0.0005967201        1.8223754160        4.5087752583
S                0.0000053241        0.0000068460       -4.5222282367    0   0   0
S                1.5775521167        0.9104939973        1.5652636512
S               -0.0040176676        1.8134439789        7.6490720053
Mo              -0.0152798842        5.4636688099        6.0741545820
Mo               0.0000011799        3.6417399547       -6.0872367793    0   0   0
Mo              -1.5767771235        4.5519522811        0.0000189358
S               -1.5769141197        2.7313069925       -7.6506323570    0   0   0
S               -0.0004306832        3.6416703646       -1.5660554417
S               -1.5745937767        4.5480378511        4.4966559022
S               -1.5769132459        2.7313060890       -4.5222282367    0   0   0
S                0.0016535146        3.6423236618        1.5668872195
S               -1.5870796132        4.5675109709        7.6419303485
Mo              -1.5799871312        8.1937890208        6.0663367084
Mo              -1.5769173901        6.3730391977       -6.0872367793    0   0   0
Mo              -3.1538568734        7.2833472860       -0.0021171072
S               -3.1538326896        5.4626062355       -7.6506323570    0   0   0
S               -1.5765002242        6.3723763125       -1.5664582932
S               -3.1538702744        7.2850692415        4.4958969247
S               -3.1538318159        5.4626053320       -4.5222282367    0   0   0
S               -1.5770846489        6.3736406032        1.5656383917
S               -3.1538647710        7.2820931049        7.6317760055
Mo               3.1538033824       -0.0021737910        6.0631343841
Mo              -3.1538359601        9.1043384407       -6.0872367793    0   0   0
Mo              -4.7311373382       10.0148669610       -0.0016405160
S               -4.7307512596        8.1939054785       -7.6506323570    0   0   0
S               -3.1538594093        9.1045281936       -1.5672419558
S               -4.7326940351       10.0152205550        4.4969494033
S               -4.7307503859        8.1939045750       -4.5222282367    0   0   0
S               -3.1538595140        9.1043239018        1.5645400608
S               -4.7096555318       10.0111280103        7.6377728324
Mo               4.7352766550        2.7201085740        6.0842413823
Mo               4.7307503218        0.9104407117       -6.0872367793    0   0   0
Mo               3.1538111924        1.8209427190       -0.0022392258
S                3.1538350223        0.0000077495       -7.6506323570    0   0   0
S                4.7314238543        0.9106030340       -1.5669718012
S                3.1538036058        1.8266180563        4.5073010586
S                3.1538358961        0.0000068460       -4.5222282367    0   0   0
S                4.7300714599        0.9104938308        1.5652633454
S                3.1538053546        1.8121159959        7.6427590165
Mo               3.1538028520        5.4623650827        6.1428153113
Mo               3.1538317519        3.6417399547       -6.0872367793    0   0   0
Mo               1.5771282094        4.5524437135       -0.0016705677
S                1.5769164523        2.7313069925       -7.6506323570    0   0   0
S                3.1538088141        3.6419976020       -1.5674748201
S                1.6010609972        4.5638927113        4.5521839770
S                1.5769173261        2.7313060890       -4.5222282367    0   0   0
S                3.1538089293        3.6417160005        1.5651757727
S                1.4813426301        4.4996690859        7.6973424706
Mo               1.5602113508        8.1904347610        6.0944212827
Mo               1.5769131819        6.3730391977       -6.0872367793    0   0   0
Mo               0.0002773287        7.2835998739       -0.0009184215
S               -0.0000021176        5.4626062355       -7.6506323570    0   0   0
S                1.5769813437        6.3734614373       -1.5667089616
S                0.0039027476        7.2843439386        4.5043452060
S               -0.0000012439        5.4626053320       -4.5222282367    0   0   0
S                1.5771809047        6.3727343911        1.5662935129
S               -0.0208622894        7.2704850177        7.6447346113
Mo               6.2898523399        0.0044971271        6.0786829677
Mo              -0.0000053881        9.1043384407       -6.0872367793    0   0   0
Mo              -1.5765820071       10.0148669203       -0.0016395709
S               -1.5769206876        8.1939054785       -7.6506323570    0   0   0
S                0.0008626062        9.1045243191       -1.5663089120
S               -1.5750522313       10.0152185196        4.4969434451
S               -1.5769198139        8.1939045750       -4.5222282367    0   0   0
S                0.0003866524        9.1047016024        1.5664879976
S               -1.5980826033       10.0111227410        7.6377664654
Mo               7.8746136681        2.7429913101        6.0808778920
Mo               7.8845808939        0.9104407117       -6.0872367793    0   0   0
Mo               6.3076441632        1.8209810166       -0.0004143958
S                6.3076655943        0.0000077495       -7.6506323570    0   0   0
S                7.8847564800        0.9103748801       -1.5655390176
S                6.3070077517        1.8223774300        4.5087707293
S                6.3076664681        0.0000068460       -4.5222282367    0   0   0
S                7.8843500089        0.9103162390        1.5674941703
S                6.3116203859        1.8134401452        7.6490685721
Mo               6.3228818571        5.4636728763        6.0741592626
Mo               6.3076623239        3.6417399547       -6.0872367793    0   0   0
Mo               4.7304884235        4.5524434806       -0.0016707181
S                4.7307470244        2.7313069925       -7.6506323570    0   0   0
S                6.3080487837        3.6416703659       -1.5660554951
S                4.7065490104        4.5638969854        4.5521843610
S                4.7307478981        2.7313060890       -4.5222282367    0   0   0
S                6.3059646723        3.6423240681        1.5668870616
S                4.8262660757        4.4996672836        7.6973455249
Mo               4.7473776278        8.1904335750        6.0944261785
Mo               4.7307437539        6.3730391977       -6.0872367793    0   0   0
Mo               3.1538046728        7.2834093447       -0.0007248086
S                3.1538284544        5.4626062355       -7.6506323570    0   0   0
S                4.7306302115        6.3734622043       -1.5667087980
S                3.1537983714        7.2639360053        4.5624448098
S                3.1538293281        5.4626053320       -4.5222282367    0   0   0
S                4.7304307818        6.3727348277        1.5662922099
S                3.1537923614        7.3944366100        7.7052855015
Mo               9.4614681482       -0.0020770344        6.1321388798
Mo               3.1538251839        9.1043384407       -6.0872367793    0   0   0
Mo               1.5773280466       10.0147491924        0.0000404129
S                1.5769098844        8.1939054785       -7.6506323570    0   0   0
S                3.1538023322        9.1044680763       -1.5656605945
S                1.5997048702       10.0257953597        4.5556519145
S                1.5769107581        8.1939045750       -4.5222282367    0   0   0
S                3.1538016581        9.1031924127        1.5682932430
S                1.4323529502        9.9527334338        7.7259272715
Mo              -1.5670122111        2.7429907523        6.0808799960
Mo              11.0384114659        0.9104407117       -6.0872367793    0   0   0
Mo               9.4614722187        1.8204482527        0.0000491766
S                9.4614961663        0.0000077495       -7.6506323570    0   0   0
S               11.0381901726        0.9103759169       -1.5655397369
S                9.4614631157        1.7914726491        4.5554261759
S                9.4614970401        0.0000068460       -4.5222282367    0   0   0
S               11.0385960303        0.9103172248        1.5674944709
S                9.4614616135        1.9646344966        7.7165067646
Mo              -3.1538610745        5.4626960958        6.0603559694
Mo               9.4614928959        3.6417399547       -6.0872367793    0   0   0
Mo               7.8843927266        4.5519525876        0.0000192485
S                7.8845775964        2.7313069925       -7.6506323570    0   0   0
S                9.4614702261        3.6413635604       -1.5652565939
S                7.8821937970        4.5480412021        4.4966575696
S                7.8845784701        2.7313060890       -4.5222282367    0   0   0
S                9.4614698053        3.6407635924        1.5673727339
S                7.8946838813        4.5675105642        7.6419307134
Mo              -4.7277480728        8.1937922097        6.0663433701
Mo               7.8845743259        6.3730391977       -6.0872367793    0   0   0
Mo               6.3073320973        7.2836001156       -0.0009197066
S                6.3076590264        5.4626062355       -7.6506323570    0   0   0
S                7.8841106728        6.3723770958       -1.5664592474
S                6.3036869820        7.2843500329        4.5043521437
S                6.3076599001        5.4626053320       -4.5222282367    0   0   0
S                7.8846940736        6.3736409617        1.5656383523
S                6.3284520053        7.2704890376        7.6447439587
Mo               0.0177551698        0.0044981103        6.0786897463
Mo               6.3076557559        9.1043384407       -6.0872367793    0   0   0
Mo               4.7302746832       10.0147498656        0.0000400276
S                4.7307404564        8.1939054785       -7.6506323570    0   0   0
S                6.3067418040        9.1045252572       -1.5663097455
S                4.7078823008       10.0257939949        4.5556534096
S                4.7307413301        8.1939045750       -4.5222282367    0   0   0
S                6.3072173190        9.1047024819        1.5664878675
S                4.8752459397        9.9527231535        7.7259332072
Pd               3.1538082470        5.4764600582        9.0157319821
Pt               9.4614823868       -0.0150611370        8.8772705758
End final coordinates



     Writing all to output data dir ./outdir/pwscf.save/ :
     XML data file, charge density, pseudopotentials, collected wavefunctions
 
     init_run     :     95.49s CPU     97.66s WALL (       1 calls)
     electrons    :  94065.19s CPU  95518.60s WALL (      22 calls)
     update_pot   :     27.55s CPU     28.40s WALL (      21 calls)
     forces       :   1560.49s CPU   1595.04s WALL (      22 calls)
     force_dftd3  :      8.40s CPU      8.78s WALL (      22 calls)

     Called by init_run:
     wfcinit      :     77.49s CPU     78.51s WALL (       1 calls)
     potinit      :      1.10s CPU      1.20s WALL (       1 calls)
     hinit0       :      9.16s CPU      9.24s WALL (       1 calls)

     Called by electrons:
     c_bands      :  81611.88s CPU  82481.15s WALL (     291 calls)
     sum_band     :  10680.80s CPU  10978.16s WALL (     291 calls)
     v_of_rho     :     84.72s CPU     95.16s WALL (     298 calls)
     newd         :   1497.76s CPU   1779.42s WALL (     298 calls)
     PAW_pot      :    238.82s CPU    240.79s WALL (     319 calls)
     mix_rho      :     22.68s CPU     25.77s WALL (     291 calls)
     energy_dftd3 :      4.72s CPU      4.75s WALL (      22 calls)

     Called by c_bands:
     init_us_2    :    406.27s CPU    408.26s WALL (    2504 calls)
     init_us_2:cp :    406.25s CPU    408.24s WALL (    2504 calls)
     cegterg      :  79909.20s CPU  80771.03s WALL (    1187 calls)

     Called by *egterg:
     cdiaghg      :   3957.02s CPU   4143.25s WALL (   13031 calls)
     h_psi        :  42067.54s CPU  42347.77s WALL (   13187 calls)
     s_psi        :   8933.59s CPU   8972.81s WALL (   13187 calls)
     g_psi        :     92.75s CPU     93.15s WALL (   11996 calls)

     Called by h_psi:
     h_psi:calbec :   8575.65s CPU   8607.79s WALL (   13187 calls)
     vloc_psi     :  24307.50s CPU  24443.54s WALL (   13187 calls)
     add_vuspsi   :   8981.37s CPU   9025.56s WALL (   13187 calls)

     General routines
     calbec       :  12274.80s CPU  12320.61s WALL (   14787 calls)
     fft          :     59.43s CPU     68.65s WALL (    4108 calls)
     ffts         :      3.78s CPU      3.89s WALL (     589 calls)
     fftw         :  18089.06s CPU  18189.97s WALL ( 6371618 calls)
     interpolate  :      7.03s CPU      7.72s WALL (     298 calls)
 
     Parallel routines
 
     PWSCF        :   1d 2h44m CPU   1d 3h10m WALL

 
   This run was terminated on:  18:16:31  12Mar2024            

=------------------------------------------------------------------------------=
   JOB DONE.
=------------------------------------------------------------------------------=
