
     Program PWSCF v.7.3 starts on 29Mar2024 at 16:55:58 

     This program is part of the open-source Quantum ESPRESSO suite
     for quantum simulation of materials; please cite
         "P. Giannozzi et al., J. Phys.:Condens. Matter 21 395502 (2009);
         "P. Giannozzi et al., J. Phys.:Condens. Matter 29 465901 (2017);
         "P. Giannozzi et al., J. Chem. Phys. 152 154105 (2020);
          URL http://www.quantum-espresso.org", 
     in publications or presentations arising from this work. More details at
     http://www.quantum-espresso.org/quote

     Parallel version (MPI & OpenMP), running on      36 processor cores
     Number of MPI processes:                36
     Threads/MPI process:                     1

     MPI processes distributed on     1 nodes
     554535 MiB available memory on the printing compute node when the environment starts
 
     Waiting for input...
     Reading input from standard input
Warning: card &CELL ignored
Warning: card / ignored

     Current dimensions of program PWSCF are:
     Max number of different atomic species (ntypx) = 10
     Max number of k-points (npk) =  40000
     Max angular momentum in pseudopotentials (lmaxx) =  4
     file Mo.pbe-spn-kjpaw_psl.1.0.0.UPF: wavefunction(s)  4S 4D renormalized
     file S.pbe-n-kjpaw_psl.1.0.0.UPF: wavefunction(s)  3S 3P renormalized
     file Pd.pbe-spn-kjpaw_psl.1.0.0.UPF: wavefunction(s)  4S 5S 4D renormalized
     file Pt.pbe-spfn-kjpaw_psl.1.0.0.UPF: wavefunction(s)  5P 4F renormalized
 
     R & G space division:  proc/nbgrp/npool/nimage =      36
     Subspace diagonalization in iterative solution of the eigenvalue problem:
     one sub-group per band group will be used
     scalapack distributed-memory algorithm (size of sub-group:  6*  6 procs)

 
     Parallelization info
     --------------------
     sticks:   dense  smooth     PW     G-vecs:    dense   smooth      PW
     Min         586     335     89               165416    71459    9765
     Max         587     337     90               165425    71461    9778
     Sum       21109   12085   3205              5955087  2572543  351657
 
     Using Slab Decomposition
 


     bravais-lattice index     =            0
     lattice parameter (alat)  =      23.8395  a.u.
     unit-cell volume          =   28182.8498 (a.u.)^3
     number of atoms/cell      =          147
     number of atomic types    =            4
     number of electrons       =      1316.00
     number of Kohn-Sham states=          790
     kinetic-energy cutoff     =      77.0000  Ry
     charge density cutoff     =     539.0000  Ry
     scf convergence threshold =      1.0E-06
     mixing beta               =       0.2000
     number of iterations used =            8  plain     mixing
     energy convergence thresh.=      1.0E-04
     force convergence thresh. =      1.0E-03
     Exchange-correlation= SLA  PW   PBX  PBC
                           (   1   4   3   4   0   0   0)
     nstep                     =         1000


     Effective Screening Medium Method
     =================================
     Boundary Conditions: Vacuum-Slab-Vacuum
     total charge in unit cell        =   0.0000
     grid points for fit at edges     =        4 
 

     celldm(1)=  23.839504  celldm(2)=   0.000000  celldm(3)=   0.000000
     celldm(4)=   0.000000  celldm(5)=   0.000000  celldm(6)=   0.000000

     crystal axes: (cart. coord. in units of alat)
               a(1) = (   1.000000   0.000000   0.000000 )  
               a(2) = (  -0.500001   0.866026   0.000000 )  
               a(3) = (   0.000000   0.000000   2.401941 )  

     reciprocal axes: (cart. coord. in units 2 pi/alat)
               b(1) = (  1.000000  0.577351  0.000000 )  
               b(2) = (  0.000000  1.154700  0.000000 )  
               b(3) = (  0.000000  0.000000  0.416330 )  


     PseudoPot. # 1 for Mo read from file:
     ./pseudo/Mo.pbe-spn-kjpaw_psl.1.0.0.UPF
     MD5 check sum: 317bf72632116215fd98f72de1686f13
     Pseudo is Projector augmented-wave + core cor, Zval = 14.0
     Generated using 'atomic' code by A. Dal Corso  v.7.2
     Shape of augmentation charge: PSQ
     Using radial grid of 1229 points,  6 beta functions with: 
                l(1) =   0
                l(2) =   0
                l(3) =   1
                l(4) =   1
                l(5) =   2
                l(6) =   2
     Q(r) pseudized with 0 coefficients 


     PseudoPot. # 2 for S  read from file:
     ./pseudo/S.pbe-n-kjpaw_psl.1.0.0.UPF
     MD5 check sum: 8b7b5302570d38d5e87fed6a1065abda
     Pseudo is Projector augmented-wave + core cor, Zval =  6.0
     Generated using 'atomic' code by A. Dal Corso  v.7.2
     Shape of augmentation charge: PSQ
     Using radial grid of 1151 points,  6 beta functions with: 
                l(1) =   0
                l(2) =   0
                l(3) =   1
                l(4) =   1
                l(5) =   2
                l(6) =   2
     Q(r) pseudized with 0 coefficients 


     PseudoPot. # 3 for Pd read from file:
     ./pseudo/Pd.pbe-spn-kjpaw_psl.1.0.0.UPF
     MD5 check sum: a60571a671f2502b8a6a4569d20a6edb
     Pseudo is Projector augmented-wave + core cor, Zval = 18.0
     Generated using 'atomic' code by A. Dal Corso  v.7.2
     Shape of augmentation charge: PSQ
     Using radial grid of 1235 points,  6 beta functions with: 
                l(1) =   0
                l(2) =   0
                l(3) =   1
                l(4) =   1
                l(5) =   2
                l(6) =   2
     Q(r) pseudized with 0 coefficients 


     PseudoPot. # 4 for Pt read from file:
     ./pseudo/Pt.pbe-spfn-kjpaw_psl.1.0.0.UPF
     MD5 check sum: 620096ebf4e6ebacc94de60fd67efcb5
     Pseudo is Projector augmented-wave + core cor, Zval = 32.0
     Generated using 'atomic' code by A. Dal Corso  v.7.2
     Shape of augmentation charge: PSQ
     Using radial grid of 1277 points,  8 beta functions with: 
                l(1) =   0
                l(2) =   0
                l(3) =   1
                l(4) =   1
                l(5) =   2
                l(6) =   2
                l(7) =   3
                l(8) =   3
     Q(r) pseudized with 0 coefficients 


     atomic species   valence    mass     pseudopotential
     Mo               14.00    95.95000     Mo( 1.00)
     S                 6.00    32.06000     S ( 1.00)
     Pd               18.00   106.42000     Pd( 1.00)
     Pt               32.00   195.08400     Pt( 1.00)

     No symmetry found



   Cartesian axes

     site n.     atom                  positions (alat units)
         1        Mo     tau(   1) = (   0.1248625   0.2131281   0.4810783  )
         2        Mo     tau(   2) = (   0.1250004   0.0721694  -0.4825273  )
         3        Mo     tau(   3) = (  -0.0000005   0.1443526  -0.0000490  )
         4        S      tau(   4) = (   0.0000004   0.0000006  -0.6064556  )
         5        S      tau(   5) = (   0.1249809   0.0722325  -0.1242083  )
         6        S      tau(   6) = (  -0.0008091   0.1437924   0.3564499  )
         7        S      tau(   7) = (   0.0000004   0.0000005  -0.3584711  )
         8        S      tau(   8) = (   0.1250266   0.0721270   0.1240857  )
         9        S      tau(   9) = (  -0.0005942   0.1424836   0.6054838  )
        10        Mo     tau(  10) = (  -0.0011099   0.4328730   0.4866737  )
        11        Mo     tau(  11) = (   0.0000001   0.2886759  -0.4825273  )
        12        Mo     tau(  12) = (  -0.1249710   0.3608625  -0.0000153  )
        13        S      tau(  13) = (  -0.1249999   0.2165071  -0.6064556  )
        14        S      tau(  14) = (   0.0000009   0.2886909  -0.1241159  )
        15        S      tau(  15) = (  -0.1236884   0.3618446   0.3606188  )
        16        S      tau(  16) = (  -0.1249998   0.2165070  -0.3584711  )
        17        S      tau(  17) = (   0.0000530   0.2887092   0.1242638  )
        18        S      tau(  18) = (  -0.1316249   0.3573130   0.6109420  )
        19        Mo     tau(  19) = (  -0.1257401   0.6504248   0.4820927  )
        20        Mo     tau(  20) = (  -0.1250002   0.5051824  -0.4825273  )
        21        Mo     tau(  21) = (  -0.2499958   0.5773353  -0.0001714  )
        22        S      tau(  22) = (  -0.2500002   0.4330136  -0.6064556  )
        23        S      tau(  23) = (  -0.1249719   0.5051311  -0.1241932  )
        24        S      tau(  24) = (  -0.2500164   0.5770675   0.3576049  )
        25        S      tau(  25) = (  -0.2500001   0.4330135  -0.3584711  )
        26        S      tau(  26) = (  -0.1250100   0.5052346   0.1241515  )
        27        S      tau(  27) = (  -0.2503695   0.5776584   0.6061514  )
        28        Mo     tau(  28) = (   0.2502170  -0.0003953   0.4806411  )
        29        Mo     tau(  29) = (  -0.2500004   0.7216889  -0.4825273  )
        30        Mo     tau(  30) = (  -0.3749978   0.7938641  -0.0002041  )
        31        S      tau(  31) = (  -0.3750004   0.6495201  -0.6064556  )
        32        S      tau(  32) = (  -0.2499890   0.7216755  -0.1242803  )
        33        S      tau(  33) = (  -0.3749740   0.7932749   0.3566586  )
        34        S      tau(  34) = (  -0.3750004   0.6495200  -0.3584711  )
        35        S      tau(  35) = (  -0.2500089   0.7216778   0.1239952  )
        36        S      tau(  36) = (  -0.3749998   0.7939174   0.6051309  )
        37        Mo     tau(  37) = (   0.3753608   0.2157704   0.4822604  )
        38        Mo     tau(  38) = (   0.3750004   0.0721694  -0.4825273  )
        39        Mo     tau(  39) = (   0.2499960   0.1443611  -0.0001003  )
        40        S      tau(  40) = (   0.2500004   0.0000006  -0.6064556  )
        41        S      tau(  41) = (   0.3750017   0.0721909  -0.1242276  )
        42        S      tau(  42) = (   0.2507085   0.1439928   0.3565793  )
        43        S      tau(  43) = (   0.2500004   0.0000005  -0.3584711  )
        44        S      tau(  44) = (   0.3750105   0.0721153   0.1240138  )
        45        S      tau(  45) = (   0.2503040   0.1425185   0.6055897  )
        46        Mo     tau(  46) = (   0.2508295   0.4328457   0.4866827  )
        47        Mo     tau(  47) = (   0.2500001   0.2886759  -0.4825273  )
        48        Mo     tau(  48) = (   0.1249947   0.3608692  -0.0000343  )
        49        S      tau(  49) = (   0.1250001   0.2165071  -0.6064556  )
        50        S      tau(  50) = (   0.2499709   0.2887106  -0.1241515  )
        51        S      tau(  51) = (   0.1248475   0.3620695   0.3632119  )
        52        S      tau(  52) = (   0.1250002   0.2165070  -0.3584711  )
        53        S      tau(  53) = (   0.2499461   0.2887051   0.1242364  )
        54        S      tau(  54) = (   0.1248217   0.3502704   0.6102012  )
        55        Mo     tau(  55) = (   0.1249300   0.6515066   0.4828014  )
        56        Mo     tau(  56) = (   0.1249998   0.5051824  -0.4825273  )
        57        Mo     tau(  57) = (   0.0000129   0.5773133  -0.0000993  )
        58        S      tau(  58) = (  -0.0000002   0.4330136  -0.6064556  )
        59        S      tau(  59) = (   0.1250046   0.5051576  -0.1241791  )
        60        S      tau(  60) = (   0.0000991   0.5758547   0.3610070  )
        61        S      tau(  61) = (  -0.0000001   0.4330135  -0.3584711  )
        62        S      tau(  62) = (   0.1249978   0.5051967   0.1242137  )
        63        S      tau(  63) = (  -0.0004561   0.5855879   0.6099183  )
        64        Mo     tau(  64) = (   0.4999896   0.0002543   0.4809432  )
        65        Mo     tau(  65) = (  -0.0000004   0.7216889  -0.4825273  )
        66        Mo     tau(  66) = (  -0.1249822   0.7938260  -0.0001787  )
        67        S      tau(  67) = (  -0.1250004   0.6495201  -0.6064556  )
        68        S      tau(  68) = (   0.0000560   0.7216541  -0.1241922  )
        69        S      tau(  69) = (  -0.1247643   0.7934174   0.3566857  )
        70        S      tau(  70) = (  -0.1250004   0.6495200  -0.3584711  )
        71        S      tau(  71) = (  -0.0000442   0.7215876   0.1241439  )
        72        S      tau(  72) = (  -0.1253483   0.7949346   0.6057201  )
        73        Mo     tau(  73) = (   0.6249017   0.2165129   0.4812697  )
        74        Mo     tau(  74) = (   0.6250004   0.0721694  -0.4825273  )
        75        Mo     tau(  75) = (   0.4999952   0.1443533  -0.0001098  )
        76        S      tau(  76) = (   0.5000004   0.0000006  -0.6064556  )
        77        S      tau(  77) = (   0.6250318   0.0721540  -0.1241362  )
        78        S      tau(  78) = (   0.4996954   0.1447446   0.3570727  )
        79        S      tau(  79) = (   0.5000004   0.0000005  -0.3584711  )
        80        S      tau(  80) = (   0.6249569   0.0721720   0.1241430  )
        81        S      tau(  81) = (   0.5006050   0.1436236   0.6059489  )
        82        Mo     tau(  82) = (   0.5006857   0.4329470   0.4824369  )
        83        Mo     tau(  83) = (   0.5000001   0.2886759  -0.4825273  )
        84        Mo     tau(  84) = (   0.3749597   0.3608609  -0.0000517  )
        85        S      tau(  85) = (   0.3750001   0.2165071  -0.6064556  )
        86        S      tau(  86) = (   0.4999928   0.2887170  -0.1241435  )
        87        S      tau(  87) = (   0.3733222   0.3618437   0.3607838  )
        88        S      tau(  88) = (   0.3750002   0.2165070  -0.3584711  )
        89        S      tau(  89) = (   0.4999211   0.2887076   0.1241935  )
        90        S      tau(  90) = (   0.3816191   0.3573238   0.6109900  )
        91        Mo     tau(  91) = (   0.3756235   0.6503811   0.4821918  )
        92        Mo     tau(  92) = (   0.3749998   0.5051824  -0.4825273  )
        93        Mo     tau(  93) = (   0.2499864   0.5773188  -0.0000834  )
        94        S      tau(  94) = (   0.2499998   0.4330136  -0.6064556  )
        95        S      tau(  95) = (   0.3749642   0.5051523  -0.1241979  )
        96        S      tau(  96) = (   0.2498138   0.5757592   0.3610614  )
        97        S      tau(  97) = (   0.2499999   0.4330135  -0.3584711  )
        98        S      tau(  98) = (   0.3750061   0.5052047   0.1241511  )
        99        S      tau(  99) = (   0.2502814   0.5855194   0.6099661  )
       100        Mo     tau( 100) = (   0.7499287   0.0002139   0.4807633  )
       101        Mo     tau( 101) = (   0.2499996   0.7216889  -0.4825273  )
       102        Mo     tau( 102) = (   0.1249938   0.7938245  -0.0000338  )
       103        S      tau( 103) = (   0.1249996   0.6495201  -0.6064556  )
       104        S      tau( 104) = (   0.2499613   0.7216724  -0.1241590  )
       105        S      tau( 105) = (   0.1248898   0.7937393   0.3567607  )
       106        S      tau( 106) = (   0.1249996   0.6495200  -0.3584711  )
       107        S      tau( 107) = (   0.2500082   0.7215902   0.1241792  )
       108        S      tau( 108) = (   0.1250505   0.7963098   0.6059971  )
       109        Mo     tau( 109) = (  -0.1255078   0.2157673   0.4820262  )
       110        Mo     tau( 110) = (   0.8750004   0.0721694  -0.4825273  )
       111        Mo     tau( 111) = (   0.7499955   0.1443569  -0.0000274  )
       112        S      tau( 112) = (   0.7500004   0.0000006  -0.6064556  )
       113        S      tau( 113) = (   0.8749777   0.0721989  -0.1241465  )
       114        S      tau( 114) = (   0.7500467   0.1447298   0.3568874  )
       115        S      tau( 115) = (   0.7500004   0.0000005  -0.3584711  )
       116        S      tau( 116) = (   0.8749903   0.0721117   0.1240970  )
       117        S      tau( 117) = (   0.7493677   0.1435906   0.6057073  )
       118        Mo     tau( 118) = (  -0.2508787   0.4328922   0.4823938  )
       119        Mo     tau( 119) = (   0.7500001   0.2886759  -0.4825273  )
       120        Mo     tau( 120) = (   0.6249968   0.3608571  -0.0000279  )
       121        S      tau( 121) = (   0.6250001   0.2165071  -0.6064556  )
       122        S      tau( 122) = (   0.7500208   0.2886896  -0.1240956  )
       123        S      tau( 123) = (   0.6248005   0.3612471   0.3574315  )
       124        S      tau( 124) = (   0.6250002   0.2165070  -0.3584711  )
       125        S      tau( 125) = (   0.7500493   0.2887427   0.1242427  )
       126        S      tau( 126) = (   0.6249033   0.3601959   0.6065890  )
       127        Mo     tau( 127) = (  -0.3750379   0.6494479   0.4815491  )
       128        Mo     tau( 128) = (   0.6249998   0.5051824  -0.4825273  )
       129        Mo     tau( 129) = (   0.4999893   0.5773309  -0.0001634  )
       130        S      tau( 130) = (   0.4999998   0.4330136  -0.6064556  )
       131        S      tau( 131) = (   0.6249961   0.5051217  -0.1242214  )
       132        S      tau( 132) = (   0.4998255   0.5770883   0.3576879  )
       133        S      tau( 133) = (   0.4999999   0.4330135  -0.3584711  )
       134        S      tau( 134) = (   0.6249981   0.5052504   0.1240736  )
       135        S      tau( 135) = (   0.5003122   0.5776902   0.6062470  )
       136        Mo     tau( 136) = (  -0.0002805  -0.0004824   0.4806096  )
       137        Mo     tau( 137) = (   0.4999996   0.7216889  -0.4825273  )
       138        Mo     tau( 138) = (   0.3749756   0.7938309  -0.0001159  )
       139        S      tau( 139) = (   0.3749996   0.6495201  -0.6064556  )
       140        S      tau( 140) = (   0.4999628   0.7216864  -0.1242513  )
       141        S      tau( 141) = (   0.3747357   0.7932164   0.3566619  )
       142        S      tau( 142) = (   0.3749996   0.6495200  -0.3584711  )
       143        S      tau( 143) = (   0.5000348   0.7216656   0.1240143  )
       144        S      tau( 144) = (   0.3751928   0.7949639   0.6056664  )
       145        Pd     tau( 145) = (   0.2448410   0.4348549   0.7173028  )
       146        Pd     tau( 146) = (   0.0055759   0.4353384   0.7172832  )
       147        Pt     tau( 147) = (   0.1249274   0.6515093   0.7288756  )

     --------------------------------------------
     DFT-D3 Dispersion Correction (3-body terms):
     --------------------------------------------
       Reference C6 values for interpolation: 

         atom   Coordination number   C6
         S          0.000           268.01
         S          0.995           261.99
         S          1.990           251.62
         Mo         0.000          1691.79
         Mo         1.942          1004.01
         Mo        11.056           674.22
         Pd         0.000          1217.01
         Pd         1.863           573.90
         Pd         5.710           531.75
         Pt         0.000           782.29
         Pt         1.919           692.72
         Pt         6.667           673.75

       Values used:

         atom   Coordination number  R0_AB[au]  C6      C8
         Mo        10.164            3.547    674.22  77634.20
         Mo        10.189            3.547    674.22  77634.20
         Mo        10.201            3.547    674.22  77634.20
         S          3.753            3.128    251.62  12327.25
         S          3.858            3.128    251.62  12327.25
         S          3.843            3.128    251.62  12327.25
         S          3.859            3.128    251.62  12327.25
         S          3.863            3.128    251.62  12327.25
         S          3.813            3.128    251.62  12327.25
         Mo        10.778            3.547    674.22  77634.20
         Mo        10.189            3.547    674.22  77634.20
         Mo        10.202            3.547    674.22  77634.20
         S          3.753            3.128    251.62  12327.25
         S          3.859            3.128    251.62  12327.25
         S          3.854            3.128    251.62  12327.25
         S          3.858            3.128    251.62  12327.25
         S          3.851            3.128    251.62  12327.25
         S          4.639            3.128    251.62  12327.25
         Mo        10.206            3.547    674.22  77634.20
         Mo        10.189            3.547    674.22  77634.20
         Mo        10.201            3.547    674.22  77634.20
         S          3.753            3.128    251.62  12327.25
         S          3.859            3.128    251.62  12327.25
         S          3.862            3.128    251.62  12327.25
         S          3.859            3.128    251.62  12327.25
         S          3.855            3.128    251.62  12327.25
         S          3.759            3.128    251.62  12327.25
         Mo        10.248            3.547    674.22  77634.20
         Mo        10.189            3.547    674.22  77634.20
         Mo        10.200            3.547    674.22  77634.20
         S          3.753            3.128    251.62  12327.25
         S          3.858            3.128    251.62  12327.25
         S          3.860            3.128    251.62  12327.25
         S          3.859            3.128    251.62  12327.25
         S          3.864            3.128    251.62  12327.25
         S          3.776            3.128    251.62  12327.25
         Mo        10.201            3.547    674.22  77634.20
         Mo        10.189            3.547    674.22  77634.20
         Mo        10.201            3.547    674.22  77634.20
         S          3.753            3.128    251.62  12327.25
         S          3.858            3.128    251.62  12327.25
         S          3.845            3.128    251.62  12327.25
         S          3.859            3.128    251.62  12327.25
         S          3.864            3.128    251.62  12327.25
         S          3.811            3.128    251.62  12327.25
         Mo        10.777            3.547    674.22  77634.20
         Mo        10.189            3.547    674.22  77634.20
         Mo        10.203            3.547    674.22  77634.20
         S          3.753            3.128    251.62  12327.25
         S          3.859            3.128    251.62  12327.25
         S          3.877            3.128    251.62  12327.25
         S          3.859            3.128    251.62  12327.25
         S          3.852            3.128    251.62  12327.25
         S          5.610            3.128    251.62  12327.25
         Mo        10.714            3.547    674.22  77634.20
         Mo        10.189            3.547    674.22  77634.20
         Mo        10.203            3.547    674.22  77634.20
         S          3.753            3.128    251.62  12327.25
         S          3.859            3.128    251.62  12327.25
         S          3.867            3.128    251.62  12327.25
         S          3.859            3.128    251.62  12327.25
         S          3.849            3.128    251.62  12327.25
         S          5.632            3.128    251.62  12327.25
         Mo        10.252            3.547    674.22  77634.20
         Mo        10.189            3.547    674.22  77634.20
         Mo        10.200            3.547    674.22  77634.20
         S          3.753            3.128    251.62  12327.25
         S          3.858            3.128    251.62  12327.25
         S          3.855            3.128    251.62  12327.25
         S          3.859            3.128    251.62  12327.25
         S          3.859            3.128    251.62  12327.25
         S          3.815            3.128    251.62  12327.25
         Mo        10.229            3.547    674.22  77634.20
         Mo        10.189            3.547    674.22  77634.20
         Mo        10.200            3.547    674.22  77634.20
         S          3.753            3.128    251.62  12327.25
         S          3.858            3.128    251.62  12327.25
         S          3.852            3.128    251.62  12327.25
         S          3.859            3.128    251.62  12327.25
         S          3.861            3.128    251.62  12327.25
         S          3.808            3.128    251.62  12327.25
         Mo        10.207            3.547    674.22  77634.20
         Mo        10.189            3.547    674.22  77634.20
         Mo        10.202            3.547    674.22  77634.20
         S          3.753            3.128    251.62  12327.25
         S          3.858            3.128    251.62  12327.25
         S          3.856            3.128    251.62  12327.25
         S          3.859            3.128    251.62  12327.25
         S          3.856            3.128    251.62  12327.25
         S          4.642            3.128    251.62  12327.25
         Mo        10.206            3.547    674.22  77634.20
         Mo        10.189            3.547    674.22  77634.20
         Mo        10.203            3.547    674.22  77634.20
         S          3.753            3.128    251.62  12327.25
         S          3.859            3.128    251.62  12327.25
         S          3.868            3.128    251.62  12327.25
         S          3.859            3.128    251.62  12327.25
         S          3.855            3.128    251.62  12327.25
         S          5.630            3.128    251.62  12327.25
         Mo        10.251            3.547    674.22  77634.20
         Mo        10.189            3.547    674.22  77634.20
         Mo        10.201            3.547    674.22  77634.20
         S          3.753            3.128    251.62  12327.25
         S          3.859            3.128    251.62  12327.25
         S          3.845            3.128    251.62  12327.25
         S          3.859            3.128    251.62  12327.25
         S          3.858            3.128    251.62  12327.25
         S          4.787            3.128    251.62  12327.25
         Mo        10.201            3.547    674.22  77634.20
         Mo        10.189            3.547    674.22  77634.20
         Mo        10.200            3.547    674.22  77634.20
         S          3.753            3.128    251.62  12327.25
         S          3.859            3.128    251.62  12327.25
         S          3.851            3.128    251.62  12327.25
         S          3.859            3.128    251.62  12327.25
         S          3.863            3.128    251.62  12327.25
         S          3.811            3.128    251.62  12327.25
         Mo        10.207            3.547    674.22  77634.20
         Mo        10.189            3.547    674.22  77634.20
         Mo        10.201            3.547    674.22  77634.20
         S          3.753            3.128    251.62  12327.25
         S          3.859            3.128    251.62  12327.25
         S          3.847            3.128    251.62  12327.25
         S          3.858            3.128    251.62  12327.25
         S          3.856            3.128    251.62  12327.25
         S          3.821            3.128    251.62  12327.25
         Mo        10.224            3.547    674.22  77634.20
         Mo        10.189            3.547    674.22  77634.20
         Mo        10.201            3.547    674.22  77634.20
         S          3.753            3.128    251.62  12327.25
         S          3.859            3.128    251.62  12327.25
         S          3.864            3.128    251.62  12327.25
         S          3.859            3.128    251.62  12327.25
         S          3.861            3.128    251.62  12327.25
         S          3.758            3.128    251.62  12327.25
         Mo        10.248            3.547    674.22  77634.20
         Mo        10.189            3.547    674.22  77634.20
         Mo        10.200            3.547    674.22  77634.20
         S          3.753            3.128    251.62  12327.25
         S          3.858            3.128    251.62  12327.25
         S          3.855            3.128    251.62  12327.25
         S          3.859            3.128    251.62  12327.25
         S          3.864            3.128    251.62  12327.25
         S          3.816            3.128    251.62  12327.25
         Pd         4.306            3.168    531.75  48720.73
         Pd         4.313            3.168    531.75  48720.73
         Pt         4.111            3.168    692.70  72033.22

         Molecular C6 ( Ry / a.u.^6 ) =   8063083.37


     number of k points=     4  Gaussian smearing, width (Ry)=  0.0100
                       cart. coord. in units 2pi/alat
        k(    1) = (   0.0000000   0.0000000   0.0000000), wk =   0.5000000
        k(    2) = (   0.0000000  -0.5773499   0.0000000), wk =   0.5000000
        k(    3) = (  -0.5000000  -0.2886755   0.0000000), wk =   0.5000000
        k(    4) = (  -0.5000000  -0.8660254   0.0000000), wk =   0.5000000

     Dense  grid:  5955087 G-vectors     FFT dimensions: ( 180, 180, 432)

     Smooth grid:  2572543 G-vectors     FFT dimensions: ( 135, 135, 320)

     Estimated max dynamical RAM per process >       3.08 GB

     Estimated total dynamical RAM >     110.88 GB

     Initial potential from superposition of free atoms

     starting charge    1315.9537, renormalised to    1316.0000

     negative rho (up, down):  1.047E-03 0.000E+00
     Starting wfcs are  901 randomized atomic wfcs
     Checking if some PAW data can be deallocated... 

     total cpu time spent up to now is       99.3 secs

     Self-consistent Calculation

     iteration #  1     ecut=    77.00 Ry     beta= 0.20
     Davidson diagonalization with overlap
     ethr =  1.00E-02,  avg # of iterations =  2.0

     Threshold (ethr) on eigenvalues was too large:
     Diagonalizing with lowered threshold

     Davidson diagonalization with overlap
     ethr =  2.23E-04,  avg # of iterations = 16.2

     negative rho (up, down):  3.405E-04 0.000E+00

     total cpu time spent up to now is     1046.8 secs

     total energy              =  -26543.57583540 Ry
     estimated scf accuracy    <       4.71850179 Ry

     iteration #  2     ecut=    77.00 Ry     beta= 0.20
     Davidson diagonalization with overlap
     ethr =  3.59E-04,  avg # of iterations =  6.5

     negative rho (up, down):  7.820E-05 0.000E+00

     total cpu time spent up to now is     1275.0 secs

     total energy              =  -26542.95993478 Ry
     estimated scf accuracy    <       2.32648792 Ry

     iteration #  3     ecut=    77.00 Ry     beta= 0.20
     Davidson diagonalization with overlap
     ethr =  1.77E-04,  avg # of iterations = 12.0

     negative rho (up, down):  3.804E-05 0.000E+00

     total cpu time spent up to now is     1537.6 secs

     total energy              =  -26543.08164246 Ry
     estimated scf accuracy    <       0.91309129 Ry

     iteration #  4     ecut=    77.00 Ry     beta= 0.20
     Davidson diagonalization with overlap
     c_bands:  1 eigenvalues not converged
     ethr =  6.94E-05,  avg # of iterations = 14.2

     negative rho (up, down):  3.712E-05 0.000E+00

     total cpu time spent up to now is     1973.1 secs

     total energy              =  -26543.44042186 Ry
     estimated scf accuracy    <       0.30933274 Ry

     iteration #  5     ecut=    77.00 Ry     beta= 0.20
     Davidson diagonalization with overlap
     ethr =  2.35E-05,  avg # of iterations = 12.5

     negative rho (up, down):  6.669E-05 0.000E+00

     total cpu time spent up to now is     2427.0 secs

     total energy              =  -26543.69058736 Ry
     estimated scf accuracy    <       0.11674155 Ry

     iteration #  6     ecut=    77.00 Ry     beta= 0.20
     Davidson diagonalization with overlap
     c_bands:  2 eigenvalues not converged
     c_bands:  3 eigenvalues not converged
     c_bands:  5 eigenvalues not converged
     ethr =  8.87E-06,  avg # of iterations = 35.5

     negative rho (up, down):  1.472E-04 0.000E+00

     total cpu time spent up to now is     3142.4 secs

     total energy              =  -26543.73779716 Ry
     estimated scf accuracy    <       0.08424012 Ry

     iteration #  7     ecut=    77.00 Ry     beta= 0.20
     Davidson diagonalization with overlap
     c_bands:  1 eigenvalues not converged
     c_bands:  1 eigenvalues not converged
     ethr =  6.40E-06,  avg # of iterations = 12.5

     negative rho (up, down):  8.631E-04 0.000E+00

     total cpu time spent up to now is     3384.7 secs

     total energy              =  -26543.73896070 Ry
     estimated scf accuracy    <       0.04570662 Ry

     iteration #  8     ecut=    77.00 Ry     beta= 0.20
     Davidson diagonalization with overlap
     c_bands:  4 eigenvalues not converged
     c_bands:  1 eigenvalues not converged
     c_bands:  1 eigenvalues not converged
     ethr =  3.47E-06,  avg # of iterations = 25.5

     negative rho (up, down):  5.859E-04 0.000E+00

     total cpu time spent up to now is     4012.6 secs

     total energy              =  -26543.74244618 Ry
     estimated scf accuracy    <       0.08656539 Ry

     iteration #  9     ecut=    77.00 Ry     beta= 0.20
     Davidson diagonalization with overlap
     c_bands:  3 eigenvalues not converged
     c_bands:  1 eigenvalues not converged
     ethr =  3.47E-06,  avg # of iterations = 14.5

     negative rho (up, down):  5.200E-04 0.000E+00

     total cpu time spent up to now is     4302.9 secs

     total energy              =  -26543.74989183 Ry
     estimated scf accuracy    <       0.00562796 Ry

     iteration # 10     ecut=    77.00 Ry     beta= 0.20
     Davidson diagonalization with overlap
     c_bands:  5 eigenvalues not converged
     ethr =  4.28E-07,  avg # of iterations = 36.8

     negative rho (up, down):  5.809E-04 0.000E+00

     total cpu time spent up to now is     5568.4 secs

     total energy              =  -26543.76903901 Ry
     estimated scf accuracy    <       0.02407411 Ry

     iteration # 11     ecut=    77.00 Ry     beta= 0.20
     Davidson diagonalization with overlap
     c_bands:  2 eigenvalues not converged
     ethr =  4.28E-07,  avg # of iterations =  5.8

     negative rho (up, down):  7.621E-04 0.000E+00

     total cpu time spent up to now is     5786.1 secs

     total energy              =  -26543.76202647 Ry
     estimated scf accuracy    <       0.01518526 Ry

     iteration # 12     ecut=    77.00 Ry     beta= 0.20
     Davidson diagonalization with overlap
     ethr =  4.28E-07,  avg # of iterations =  5.0

     negative rho (up, down):  8.195E-04 0.000E+00

     total cpu time spent up to now is     6130.1 secs

     total energy              =  -26543.76488011 Ry
     estimated scf accuracy    <       0.00105844 Ry

     iteration # 13     ecut=    77.00 Ry     beta= 0.20
     Davidson diagonalization with overlap
     ethr =  8.04E-08,  avg # of iterations = 13.5

     negative rho (up, down):  8.596E-04 0.000E+00

     total cpu time spent up to now is     6651.2 secs

     total energy              =  -26543.76601851 Ry
     estimated scf accuracy    <       0.00017554 Ry

     iteration # 14     ecut=    77.00 Ry     beta= 0.20
     Davidson diagonalization with overlap
     c_bands:  1 eigenvalues not converged
     ethr =  1.33E-08,  avg # of iterations = 17.5

     negative rho (up, down):  8.753E-04 0.000E+00

     total cpu time spent up to now is     7382.4 secs

     total energy              =  -26543.76631337 Ry
     estimated scf accuracy    <       0.00057655 Ry

     iteration # 15     ecut=    77.00 Ry     beta= 0.20
     Davidson diagonalization with overlap
     ethr =  1.33E-08,  avg # of iterations =  6.8

     negative rho (up, down):  9.208E-04 0.000E+00

     total cpu time spent up to now is     7649.8 secs

     total energy              =  -26543.76631292 Ry
     estimated scf accuracy    <       0.00012595 Ry

     iteration # 16     ecut=    77.00 Ry     beta= 0.20
     Davidson diagonalization with overlap
     ethr =  9.57E-09,  avg # of iterations =  7.8

     negative rho (up, down):  9.494E-04 0.000E+00

     total cpu time spent up to now is     7939.5 secs

     total energy              =  -26543.76634556 Ry
     estimated scf accuracy    <       0.00003538 Ry

     iteration # 17     ecut=    77.00 Ry     beta= 0.20
     Davidson diagonalization with overlap
     c_bands:  3 eigenvalues not converged
     ethr =  2.69E-09,  avg # of iterations = 16.2

     negative rho (up, down):  9.549E-04 0.000E+00

     total cpu time spent up to now is     8407.2 secs

     total energy              =  -26543.76637898 Ry
     estimated scf accuracy    <       0.00003289 Ry

     iteration # 18     ecut=    77.00 Ry     beta= 0.20
     Davidson diagonalization with overlap
     ethr =  2.50E-09,  avg # of iterations =  1.0

     negative rho (up, down):  9.577E-04 0.000E+00

     total cpu time spent up to now is     8608.3 secs

     total energy              =  -26543.76636327 Ry
     estimated scf accuracy    <       0.00004659 Ry

     iteration # 19     ecut=    77.00 Ry     beta= 0.20
     Davidson diagonalization with overlap
     ethr =  2.50E-09,  avg # of iterations =  4.8

     negative rho (up, down):  9.602E-04 0.000E+00

     total cpu time spent up to now is     8839.7 secs

     total energy              =  -26543.76635629 Ry
     estimated scf accuracy    <       0.00002075 Ry

     iteration # 20     ecut=    77.00 Ry     beta= 0.20
     Davidson diagonalization with overlap
     ethr =  1.58E-09,  avg # of iterations = 10.0

     negative rho (up, down):  9.600E-04 0.000E+00

     total cpu time spent up to now is     9129.5 secs

     total energy              =  -26543.76636285 Ry
     estimated scf accuracy    <       0.00000239 Ry

     iteration # 21     ecut=    77.00 Ry     beta= 0.20
     Davidson diagonalization with overlap
     c_bands:  1 eigenvalues not converged
     c_bands:  3 eigenvalues not converged
     c_bands:  1 eigenvalues not converged
     ethr =  1.82E-10,  avg # of iterations = 20.5

     negative rho (up, down):  9.594E-04 0.000E+00

     total cpu time spent up to now is     9974.8 secs

     total energy              =  -26543.76637154 Ry
     estimated scf accuracy    <       0.00000226 Ry

     iteration # 22     ecut=    77.00 Ry     beta= 0.20
     Davidson diagonalization with overlap
     ethr =  1.72E-10,  avg # of iterations =  3.2

     negative rho (up, down):  9.611E-04 0.000E+00

     total cpu time spent up to now is    10192.4 secs

     total energy              =  -26543.76637077 Ry
     estimated scf accuracy    <       0.00000191 Ry

     iteration # 23     ecut=    77.00 Ry     beta= 0.20
     Davidson diagonalization with overlap
     ethr =  1.45E-10,  avg # of iterations =  1.0

     negative rho (up, down):  9.638E-04 0.000E+00

     total cpu time spent up to now is    10392.8 secs

     total energy              =  -26543.76636919 Ry
     estimated scf accuracy    <       0.00000165 Ry

     iteration # 24     ecut=    77.00 Ry     beta= 0.20
     Davidson diagonalization with overlap
     ethr =  1.25E-10,  avg # of iterations =  6.2

     negative rho (up, down):  9.655E-04 0.000E+00

     total cpu time spent up to now is    10624.1 secs

     End of self-consistent calculation

          k = 0.0000 0.0000 0.0000 (321495 PWs)   bands (ev):

  -102.3782 -88.8233 -88.8170 -70.7254 -70.7190 -70.6940 -70.6803 -70.6704
   -70.6631 -70.6489 -66.7197 -66.6986 -66.6986 -66.6986 -66.6986 -66.6986
   -66.6986 -66.6774 -66.6774 -66.6774 -66.6774 -66.6774 -66.6774 -66.6774
   -66.6774 -66.6774 -66.6537 -66.6330 -66.6327 -66.6327 -66.6324 -66.6324
   -66.6322 -66.6120 -66.6117 -66.6116 -66.6114 -66.6114 -66.6114 -66.6113
   -66.6109 -66.6109 -66.5795 -66.5639 -66.5614 -66.5603 -66.5441 -66.5416
   -66.5396 -66.5350 -66.5336 -66.5262 -66.5231 -66.5183 -66.5172 -66.5098
   -66.5058 -66.4682 -56.6265 -56.6060 -56.5668 -54.6621 -54.6486 -54.6250
   -54.6110 -54.5732 -54.5465 -41.0461 -41.0461 -41.0461 -40.9790 -40.9789
   -40.9787 -40.9713 -40.9713 -40.9713 -40.9713 -40.9713 -40.9712 -40.9044
   -40.9042 -40.9042 -40.9041 -40.9040 -40.9039 -40.8982 -40.8922 -40.8888
   -40.8798 -40.8457 -40.8457 -40.8457 -40.8457 -40.8457 -40.8457 -40.8384
   -40.8383 -40.8383 -40.8383 -40.8383 -40.8383 -40.8232 -40.8222 -40.8153
   -40.8142 -40.8108 -40.8108 -40.8108 -40.8108 -40.8108 -40.8108 -40.8053
   -40.8044 -40.8016 -40.7967 -40.7967 -40.7967 -40.7967 -40.7966 -40.7966
   -40.7966 -40.7966 -40.7966 -40.7790 -40.7787 -40.7787 -40.7787 -40.7786
   -40.7785 -40.7732 -40.7730 -40.7730 -40.7727 -40.7727 -40.7725 -40.7478
   -40.7442 -40.7440 -40.7439 -40.7439 -40.7438 -40.7437 -40.7331 -40.7331
   -40.7331 -40.7318 -40.7315 -40.7314 -40.7313 -40.7312 -40.7311 -40.7310
   -40.7308 -40.7307 -40.7178 -40.7085 -40.7071 -40.7065 -40.7060 -40.7000
   -40.6968 -40.6959 -40.6954 -40.6862 -40.6862 -40.6862 -40.6862 -40.6862
   -40.6862 -40.6799 -40.6794 -40.6719 -40.6695 -40.6694 -40.6670 -40.6663
   -40.6662 -40.6661 -40.6644 -40.6625 -40.6597 -40.6587 -40.6570 -40.6565
   -40.6543 -40.6489 -40.6468 -40.6419 -40.6408 -40.6389 -40.6389 -40.6308
   -40.6197 -40.6196 -40.6194 -40.6193 -40.6192 -40.6192 -40.5798 -40.5785
   -40.5748 -40.5722 -40.5722 -40.5300 -40.5278 -40.5260 -40.5196 -40.5163
   -40.5149 -40.4700 -40.4669 -20.2104 -20.1286 -19.9684 -19.5674 -19.4490
   -19.3994 -19.2869 -19.2862 -19.2853 -19.2776 -19.2755 -19.2745 -19.1969
   -19.1916 -19.1805 -19.1321 -19.1278 -19.1277 -19.0888 -19.0824 -19.0666
   -18.9160 -18.7715 -18.7409 -18.7264 -18.6159 -18.5571 -18.5273 -18.5194
   -18.4915 -18.4711 -18.4708 -18.4364 -18.4123 -18.3970 -18.3564 -18.3175
   -18.3140 -18.2706 -18.2473 -18.2419 -18.2254 -18.1892 -18.1829 -18.1795
   -18.1794 -18.1790 -18.1787 -18.1783 -18.1778 -18.1577 -18.1387 -18.1387
   -18.1387 -18.1057 -18.1049 -18.0968 -18.0965 -18.0930 -18.0926 -18.0674
   -18.0661 -18.0654 -18.0525 -18.0427 -18.0109 -18.0094 -18.0006 -17.9977
   -17.9843 -17.9817 -17.9813 -17.9703 -17.9685 -17.9551 -17.9544 -17.9538
   -17.9514 -17.9278 -17.9212 -17.9209 -17.9020 -17.9016 -17.8877 -17.8869
   -17.8860 -17.8798 -17.8605 -17.8516 -17.8513 -17.8238 -17.8205 -17.8071
   -17.8064 -17.8017 -17.7924 -12.2018 -12.0367 -11.9803 -11.9564 -11.7942
   -11.7926 -11.7922 -11.7284 -11.7086 -11.7073 -11.6954 -11.5077 -11.4601
   -11.3759 -11.3684 -11.2613 -11.2515 -11.2507 -11.2435 -11.2403 -11.2317
   -11.2069 -11.1698 -11.1690 -11.1639 -11.1631 -11.1607 -11.1594 -11.1505
   -11.1138 -11.0867 -11.0747 -11.0452 -11.0356 -11.0271 -11.0182 -11.0165
   -11.0093 -11.0076 -10.9655 -10.9579 -10.9562 -10.9255 -10.9242 -10.9146
   -10.9072 -10.8830 -10.8803 -10.8772 -10.8705 -10.8703 -10.8697 -10.8670
   -10.8637 -10.8595 -10.8418 -10.8417 -10.8397 -10.8294 -10.8246 -10.8237
   -10.8228 -10.8203 -10.8148 -10.8023 -10.7950 -10.7493 -10.7486 -10.7474
   -10.7294 -10.6846 -10.6819 -10.6623 -10.6549 -10.6360 -10.5255 -10.5241
   -10.3740 -10.1945 -10.1269 -10.0869 -10.0858 -10.0848  -9.9670  -9.9347
    -9.9337  -9.9216  -9.8410  -9.8280  -9.8255  -9.8178  -9.8148  -9.8119
    -9.7855  -9.7734  -9.7601  -9.7471  -9.7429  -9.7382  -9.7350  -9.7275
    -9.6888  -9.6783  -9.6737  -9.6642  -9.6614  -9.6594  -9.6574  -9.6535
    -9.6270  -9.6208  -9.6139  -9.6131  -9.6111  -9.6108  -9.6097  -9.6085
    -9.5807  -9.5659  -9.5593  -9.5067  -9.5066  -9.4905  -9.4814  -9.4760
    -9.4755  -9.4661  -9.4277  -9.4257  -9.3997  -9.3978  -9.3755  -9.3749
    -9.3660  -9.3573  -9.3367  -9.3272  -9.2859  -9.2696  -9.2694  -9.2538
    -9.2508  -9.2359  -9.2328  -9.2171  -9.1781  -9.1495  -9.0843  -9.0771
    -9.0656  -9.0606  -9.0596  -9.0580  -9.0578  -9.0572  -9.0443  -9.0425
    -8.9832  -8.9806  -8.9786  -8.9603  -8.9592  -8.9462  -8.9338  -8.9162
    -8.8730  -8.8470  -8.8457  -8.8434  -8.8387  -8.8333  -8.8325  -8.8235
    -8.8178  -8.8013  -8.7920  -8.7893  -8.7834  -8.7789  -8.7762  -8.7560
    -8.7535  -8.7407  -8.7206  -8.5982  -8.5937  -8.4686  -8.4686  -8.3987
    -8.3962  -8.3962  -8.3857  -8.3730  -8.3606  -8.3565  -8.3565  -8.3564
    -8.3561  -8.3557  -8.3538  -8.3298  -8.3179  -8.3046  -8.2856  -8.2829
    -8.2800  -8.2786  -8.2785  -8.2780  -8.2290  -8.2194  -8.2152  -8.0001
    -7.9921  -7.9718  -7.9544  -7.9182  -7.7529  -7.7475  -7.7320  -7.7174
    -7.7012  -7.6951  -7.6568  -7.6216  -7.6214  -7.6210  -7.6205  -7.6205
    -7.6204  -7.6018  -7.5926  -7.5753  -7.5750  -7.5749  -7.5748  -7.5740
    -7.5737  -7.5644  -7.5509  -7.5489  -7.5488  -7.5417  -7.5416  -7.5410
    -7.5303  -7.5301  -7.5046  -7.5007  -7.4991  -7.4976  -7.4906  -7.4900
    -7.4848  -7.4714  -7.4671  -7.4636  -7.4601  -7.4568  -7.4482  -7.4243
    -7.3710  -7.3634  -7.3398  -7.3398  -7.3321  -7.3165  -7.3011  -7.2988
    -7.2894  -7.2688  -7.2683  -7.2291  -7.2179  -7.1931  -7.1666  -7.0567
    -7.0432  -7.0168  -6.9947  -6.9788  -6.9409  -6.9154  -6.9112  -6.8728
    -6.8354  -6.8342  -6.8303  -6.8116  -6.7724  -6.7279  -6.7087  -6.7075
    -6.7037  -6.6988  -6.6705  -6.6670  -6.6554  -6.6542  -6.6453  -6.6037
    -6.5835  -6.5800  -6.5617  -6.5602  -6.5563  -6.5460  -6.5454  -6.5362
    -6.5085  -6.5047  -6.5032  -6.4821  -6.4791  -6.4784  -6.4642  -6.4591
    -6.4547  -6.4510  -6.3999  -6.3978  -6.3878  -6.3878  -6.3878  -6.3877
    -6.3877  -6.3877  -6.3665  -6.3574  -6.3344  -6.3145  -6.3114  -6.3100
    -6.3095  -6.3085  -6.3045  -6.3002  -6.2592  -6.2485  -6.2413  -6.2092
    -6.1913  -5.9609  -5.6847  -5.6527  -5.5396  -5.5145  -5.4315  -5.2553
    -5.2470  -5.1596  -4.2813  -3.9370  -3.8897  -3.8705  -3.8703  -3.8686
    -3.8510  -3.8458  -3.8433  -3.8413  -3.8360  -3.8347  -3.8163  -3.7593
    -3.7033  -3.6492  -3.6353  -3.6256  -3.6173  -3.6161  -3.6150  -3.6047
    -3.6043  -3.5998  -3.5285  -3.5285  -3.5283  -3.5117  -3.5107  -3.5096
    -3.5091  -3.5085  -3.5082  -3.4783  -3.4612  -3.4611  -3.4608  -3.4504
    -3.4398  -3.4270  -3.4179  -3.4160  -3.4129  -3.4028  -3.3995  -3.3955
    -3.3942  -3.3923  -3.3868  -3.3705  -3.3701  -3.3620  -3.3405  -3.3371
    -3.3202  -3.3010  -3.2954  -3.2713  -3.2694  -3.2551  -3.2451  -3.2094
    -3.2029  -3.1017  -3.0629  -3.0627  -3.0610  -3.0571  -3.0570  -3.0122
    -2.9921  -2.9911  -2.9904  -2.9900  -2.9899  -2.9897  -2.9896  -2.9895
    -2.9890  -2.9767  -2.9703  -2.9703  -2.9578  -2.9446  -2.9357  -2.9274
    -2.9244  -2.9205  -2.9188  -2.9163  -2.9159  -2.9119  -2.9050  -2.9032
    -2.9014  -2.9007  -2.8689  -2.8592  -2.8506  -2.8302  -2.8300  -2.8082
    -2.8041  -2.7967  -2.7819  -2.7807  -2.7797  -2.7785  -2.7780  -2.7717
    -2.7550  -2.7323  -2.7316  -2.7014  -2.7007  -2.6665  -2.6590  -2.6588
    -2.6295  -2.6271  -2.6039  -2.5780  -2.5688  -2.5655  -2.5534  -2.5513
    -2.5362  -2.5123  -2.5101  -2.4871  -2.4792  -2.4735

          k = 0.0000-0.5773 0.0000 (321564 PWs)   bands (ev):

  -102.3782 -88.8233 -88.8170 -70.7254 -70.7190 -70.6940 -70.6803 -70.6704
   -70.6631 -70.6489 -66.7135 -66.7135 -66.7030 -66.7030 -66.6880 -66.6880
   -66.6880 -66.6880 -66.6836 -66.6836 -66.6774 -66.6774 -66.6774 -66.6774
   -66.6730 -66.6730 -66.6476 -66.6474 -66.6370 -66.6369 -66.6222 -66.6222
   -66.6218 -66.6218 -66.6177 -66.6175 -66.6117 -66.6115 -66.6114 -66.6110
   -66.6070 -66.6070 -66.5782 -66.5685 -66.5606 -66.5577 -66.5441 -66.5433
   -66.5391 -66.5332 -66.5311 -66.5299 -66.5230 -66.5177 -66.5173 -66.5102
   -66.5056 -66.4682 -56.6265 -56.6060 -56.5668 -54.6622 -54.6486 -54.6250
   -54.6110 -54.5732 -54.5465 -41.0147 -41.0147 -41.0146 -41.0146 -40.9880
   -40.9880 -40.9761 -40.9761 -40.9477 -40.9476 -40.9475 -40.9473 -40.9257
   -40.9257 -40.9257 -40.9257 -40.9209 -40.9208 -40.9089 -40.9089 -40.8778
   -40.8677 -40.8677 -40.8654 -40.8586 -40.8586 -40.8586 -40.8586 -40.8577
   -40.8577 -40.8565 -40.8469 -40.8469 -40.8468 -40.8419 -40.8358 -40.8194
   -40.8175 -40.8175 -40.8175 -40.8175 -40.8089 -40.8088 -40.8022 -40.8021
   -40.7973 -40.7967 -40.7967 -40.7966 -40.7966 -40.7966 -40.7966 -40.7908
   -40.7908 -40.7880 -40.7880 -40.7814 -40.7814 -40.7711 -40.7660 -40.7660
   -40.7659 -40.7659 -40.7638 -40.7578 -40.7569 -40.7523 -40.7523 -40.7518
   -40.7518 -40.7435 -40.7433 -40.7375 -40.7344 -40.7315 -40.7315 -40.7314
   -40.7314 -40.7314 -40.7313 -40.7310 -40.7309 -40.7298 -40.7298 -40.7226
   -40.7226 -40.7194 -40.7194 -40.7146 -40.7144 -40.7002 -40.7002 -40.6993
   -40.6992 -40.6991 -40.6988 -40.6976 -40.6942 -40.6934 -40.6917 -40.6841
   -40.6833 -40.6833 -40.6774 -40.6745 -40.6687 -40.6680 -40.6646 -40.6646
   -40.6646 -40.6645 -40.6621 -40.6597 -40.6576 -40.6529 -40.6528 -40.6526
   -40.6525 -40.6492 -40.6472 -40.6413 -40.6380 -40.6336 -40.6331 -40.6165
   -40.6165 -40.6149 -40.6132 -40.6078 -40.6037 -40.5862 -40.5859 -40.5767
   -40.5731 -40.5726 -40.5616 -40.5612 -40.5440 -40.5432 -40.5379 -40.5185
   -40.4979 -40.4971 -40.4773 -20.0844 -19.9225 -19.9028 -19.8455 -19.7440
   -19.7154 -19.5063 -19.4950 -19.4517 -19.4439 -19.3079 -19.3066 -19.1710
   -18.9791 -18.9498 -18.7948 -18.7827 -18.7750 -18.7689 -18.7686 -18.7646
   -18.7176 -18.7001 -18.6538 -18.6507 -18.6449 -18.6248 -18.6237 -18.5834
   -18.5762 -18.5290 -18.5247 -18.5170 -18.4986 -18.4760 -18.4683 -18.4334
   -18.4292 -18.4101 -18.3812 -18.3591 -18.3464 -18.3025 -18.2857 -18.2589
   -18.2534 -18.2238 -18.2205 -18.2010 -18.1636 -18.1594 -18.1593 -18.1592
   -18.1586 -18.1543 -18.1343 -18.1297 -18.1053 -18.0935 -18.0849 -18.0821
   -18.0784 -18.0768 -18.0703 -18.0422 -18.0368 -18.0235 -18.0150 -18.0126
   -18.0007 -17.9820 -17.9775 -17.9743 -17.9656 -17.9586 -17.9489 -17.9207
   -17.9135 -17.9036 -17.8959 -17.8958 -17.8947 -17.8560 -17.8515 -17.8382
   -17.8362 -17.8354 -17.8206 -17.8196 -17.8160 -17.8029 -17.7940 -17.7759
   -17.7757 -17.7156 -17.7144 -12.1309 -11.9030 -11.8163 -11.7223 -11.7159
   -11.6365 -11.5296 -11.5116 -11.5055 -11.5031 -11.5018 -11.4844 -11.4834
   -11.4626 -11.4215 -11.4177 -11.4082 -11.4071 -11.3906 -11.3772 -11.3701
   -11.3430 -11.3163 -11.3046 -11.3015 -11.2887 -11.2887 -11.2517 -11.2458
   -11.2434 -11.2358 -11.2091 -11.1917 -11.1878 -11.1817 -11.1453 -11.1223
   -11.0602 -11.0340 -11.0251 -11.0086 -10.9987 -10.9864 -10.9488 -10.9484
   -10.9386 -10.9370 -10.9165 -10.9160 -10.9044 -10.8802 -10.8710 -10.8647
   -10.8630 -10.8617 -10.8616 -10.8571 -10.8547 -10.8310 -10.8145 -10.7978
   -10.7966 -10.7896 -10.7878 -10.7265 -10.6708 -10.6373 -10.5977 -10.5385
   -10.5305 -10.5171 -10.4435 -10.4025 -10.3434 -10.3355 -10.3000 -10.1829
   -10.1728 -10.1569 -10.1409 -10.1300 -10.1103 -10.0798 -10.0636 -10.0290
   -10.0027  -9.9882  -9.9733  -9.9713  -9.9632  -9.9566  -9.9493  -9.9414
    -9.9292  -9.9170  -9.9155  -9.9062  -9.8511  -9.8497  -9.8431  -9.8213
    -9.7881  -9.7791  -9.7677  -9.7602  -9.7449  -9.7418  -9.7382  -9.7301
    -9.7176  -9.7096  -9.6974  -9.6849  -9.6522  -9.6474  -9.6393  -9.6197
    -9.5853  -9.5831  -9.5741  -9.5629  -9.5595  -9.5280  -9.5067  -9.5061
    -9.4978  -9.4409  -9.4271  -9.3636  -9.3383  -9.3136  -9.2970  -9.2852
    -9.2409  -9.2302  -9.2191  -9.1917  -9.1781  -9.1689  -9.1629  -9.1563
    -9.1379  -9.1340  -9.1094  -9.1068  -9.0768  -9.0755  -9.0621  -9.0582
    -9.0395  -9.0368  -9.0287  -9.0209  -8.9948  -8.9945  -8.9809  -8.9792
    -8.9671  -8.9662  -8.9648  -8.9566  -8.9427  -8.9142  -8.9050  -8.8917
    -8.8893  -8.8863  -8.8827  -8.8766  -8.8711  -8.8705  -8.8701  -8.8555
    -8.8546  -8.8456  -8.8339  -8.8286  -8.7995  -8.7943  -8.7804  -8.7700
    -8.7450  -8.6775  -8.6276  -8.5927  -8.5437  -8.5436  -8.5100  -8.4960
    -8.4927  -8.4581  -8.4580  -8.3636  -8.3009  -8.2825  -8.2820  -8.2267
    -8.2250  -8.2250  -8.1603  -8.1541  -8.1524  -8.1227  -8.1179  -8.0084
    -7.9825  -7.9630  -7.9602  -7.9535  -7.9117  -7.8923  -7.8905  -7.8880
    -7.8834  -7.8799  -7.8787  -7.8783  -7.8783  -7.8637  -7.8398  -7.8355
    -7.8327  -7.8309  -7.8168  -7.8106  -7.8091  -7.8065  -7.7967  -7.7873
    -7.7795  -7.7752  -7.7721  -7.7581  -7.7547  -7.7502  -7.7460  -7.7410
    -7.7342  -7.7267  -7.7102  -7.7090  -7.6931  -7.6929  -7.6892  -7.6825
    -7.6673  -7.6624  -7.6388  -7.6283  -7.6268  -7.6191  -7.6106  -7.5992
    -7.5899  -7.5678  -7.5661  -7.5042  -7.5027  -7.4379  -7.4223  -7.4058
    -7.3337  -7.3026  -7.2811  -7.2790  -7.2635  -7.2478  -7.2256  -7.2089
    -7.1904  -7.1744  -7.1366  -7.1098  -7.1021  -7.0477  -7.0469  -7.0417
    -7.0379  -7.0346  -7.0034  -6.9861  -6.9705  -6.9517  -6.9344  -6.9326
    -6.9139  -6.8922  -6.8753  -6.8647  -6.8304  -6.8198  -6.8151  -6.7715
    -6.7586  -6.7324  -6.7226  -6.6918  -6.6901  -6.6901  -6.6900  -6.6877
    -6.6779  -6.6602  -6.6227  -6.6213  -6.6203  -6.6202  -6.5987  -6.5823
    -6.5638  -6.5265  -6.5182  -6.5004  -6.4628  -6.4589  -6.4305  -6.4152
    -6.3588  -6.3584  -6.3580  -6.3577  -6.3232  -6.2948  -6.2934  -6.2815
    -6.2802  -6.2765  -6.2718  -6.2644  -6.2436  -6.2360  -6.2305  -6.1874
    -6.1663  -6.0654  -6.0099  -6.0099  -5.9666  -5.9328  -5.9293  -5.8633
    -5.8188  -5.7596  -5.6549  -5.6326  -5.5852  -5.4784  -5.4712  -5.3668
    -5.2877  -5.2767  -4.2769  -4.0659  -4.0515  -4.0497  -4.0157  -3.9255
    -3.9255  -3.9138  -3.8896  -3.8763  -3.8607  -3.8602  -3.8252  -3.8118
    -3.7976  -3.7926  -3.7521  -3.7175  -3.6572  -3.6416  -3.6322  -3.6280
    -3.6251  -3.6208  -3.6111  -3.6108  -3.5982  -3.5838  -3.5474  -3.5369
    -3.5315  -3.5194  -3.5143  -3.5108  -3.5035  -3.4996  -3.4943  -3.4933
    -3.4549  -3.4381  -3.4210  -3.3967  -3.3875  -3.3847  -3.3817  -3.3776
    -3.3769  -3.3523  -3.3462  -3.3451  -3.3408  -3.3361  -3.3129  -3.3023
    -3.3014  -3.3013  -3.3013  -3.2834  -3.2739  -3.2620  -3.2570  -3.2349
    -3.2333  -3.2306  -3.2267  -3.2167  -3.2142  -3.2104  -3.1812  -3.1781
    -3.1488  -3.1422  -3.1352  -3.1251  -3.0991  -3.0961  -3.0740  -3.0705
    -3.0579  -3.0572  -3.0397  -3.0390  -3.0382  -3.0380  -3.0056  -2.9935
    -2.9924  -2.9883  -2.9870  -2.9769  -2.9570  -2.9537  -2.9442  -2.9437
    -2.9379  -2.9348  -2.9249  -2.9193  -2.9057  -2.9040  -2.8927  -2.8716
    -2.8561  -2.8378  -2.8337  -2.8304  -2.8302  -2.8179  -2.7882  -2.7562
    -2.7435  -2.7219  -2.6998  -2.6796  -2.6771  -2.6756  -2.6647  -2.6602
    -2.5982  -2.5905  -2.5827  -2.5392  -2.5303  -2.5212  -2.5149  -2.4876
    -2.4561  -2.4064  -2.3771  -2.3426  -2.3217  -2.3184

          k =-0.5000-0.2887 0.0000 (321564 PWs)   bands (ev):

  -102.3782 -88.8233 -88.8170 -70.7254 -70.7190 -70.6940 -70.6803 -70.6704
   -70.6631 -70.6489 -66.7135 -66.7135 -66.7030 -66.7030 -66.6880 -66.6880
   -66.6880 -66.6880 -66.6836 -66.6836 -66.6774 -66.6774 -66.6774 -66.6774
   -66.6730 -66.6730 -66.6477 -66.6473 -66.6370 -66.6369 -66.6222 -66.6220
   -66.6220 -66.6219 -66.6178 -66.6175 -66.6118 -66.6113 -66.6113 -66.6112
   -66.6070 -66.6069 -66.5783 -66.5676 -66.5623 -66.5567 -66.5461 -66.5411
   -66.5378 -66.5349 -66.5317 -66.5296 -66.5217 -66.5191 -66.5169 -66.5101
   -66.5056 -66.4682 -56.6265 -56.6060 -56.5668 -54.6621 -54.6486 -54.6250
   -54.6110 -54.5732 -54.5465 -41.0147 -41.0147 -41.0146 -41.0146 -40.9880
   -40.9880 -40.9761 -40.9761 -40.9478 -40.9475 -40.9473 -40.9473 -40.9257
   -40.9257 -40.9257 -40.9257 -40.9210 -40.9207 -40.9090 -40.9089 -40.8787
   -40.8677 -40.8677 -40.8642 -40.8587 -40.8586 -40.8586 -40.8585 -40.8577
   -40.8577 -40.8523 -40.8484 -40.8469 -40.8469 -40.8432 -40.8364 -40.8205
   -40.8175 -40.8175 -40.8175 -40.8175 -40.8089 -40.8088 -40.8023 -40.8020
   -40.7971 -40.7967 -40.7967 -40.7966 -40.7966 -40.7966 -40.7966 -40.7908
   -40.7907 -40.7880 -40.7880 -40.7815 -40.7814 -40.7737 -40.7660 -40.7660
   -40.7660 -40.7660 -40.7642 -40.7589 -40.7537 -40.7522 -40.7521 -40.7520
   -40.7520 -40.7436 -40.7432 -40.7387 -40.7326 -40.7316 -40.7315 -40.7314
   -40.7314 -40.7314 -40.7312 -40.7311 -40.7309 -40.7298 -40.7297 -40.7226
   -40.7225 -40.7194 -40.7194 -40.7191 -40.7119 -40.7002 -40.7002 -40.6993
   -40.6992 -40.6990 -40.6989 -40.6987 -40.6941 -40.6910 -40.6896 -40.6833
   -40.6833 -40.6828 -40.6789 -40.6758 -40.6721 -40.6647 -40.6646 -40.6646
   -40.6645 -40.6640 -40.6614 -40.6605 -40.6559 -40.6529 -40.6528 -40.6527
   -40.6524 -40.6515 -40.6462 -40.6429 -40.6356 -40.6335 -40.6332 -40.6166
   -40.6164 -40.6157 -40.6127 -40.6102 -40.6033 -40.5862 -40.5859 -40.5761
   -40.5740 -40.5705 -40.5635 -40.5597 -40.5459 -40.5412 -40.5367 -40.5182
   -40.5044 -40.4970 -40.4735 -20.0909 -19.9186 -19.9027 -19.8272 -19.7436
   -19.7059 -19.5591 -19.4913 -19.4664 -19.4356 -19.3159 -19.3035 -19.0948
   -18.9974 -18.9624 -18.7941 -18.7830 -18.7774 -18.7689 -18.7684 -18.7632
   -18.7514 -18.6748 -18.6573 -18.6490 -18.6410 -18.6262 -18.6257 -18.5841
   -18.5730 -18.5313 -18.5240 -18.5169 -18.4962 -18.4724 -18.4650 -18.4355
   -18.4318 -18.4088 -18.3803 -18.3667 -18.3500 -18.3034 -18.2877 -18.2595
   -18.2511 -18.2302 -18.2231 -18.1952 -18.1681 -18.1594 -18.1593 -18.1592
   -18.1591 -18.1504 -18.1375 -18.1283 -18.1064 -18.0925 -18.0835 -18.0831
   -18.0792 -18.0777 -18.0631 -18.0410 -18.0351 -18.0260 -18.0166 -18.0108
   -17.9996 -17.9822 -17.9776 -17.9745 -17.9641 -17.9571 -17.9484 -17.9218
   -17.9131 -17.9006 -17.8958 -17.8958 -17.8928 -17.8555 -17.8516 -17.8362
   -17.8360 -17.8328 -17.8205 -17.8198 -17.8141 -17.8097 -17.7980 -17.7759
   -17.7755 -17.7187 -17.7118 -12.1357 -11.9311 -11.7932 -11.7198 -11.7180
   -11.5851 -11.5225 -11.5106 -11.5068 -11.5040 -11.5020 -11.4871 -11.4791
   -11.4596 -11.4397 -11.4179 -11.4089 -11.4079 -11.3912 -11.3799 -11.3637
   -11.3422 -11.3212 -11.3180 -11.2996 -11.2887 -11.2887 -11.2674 -11.2533
   -11.2433 -11.2415 -11.2142 -11.1899 -11.1878 -11.1839 -11.1473 -11.1054
   -11.0638 -11.0474 -11.0339 -11.0133 -10.9999 -10.9724 -10.9499 -10.9476
   -10.9428 -10.9349 -10.9198 -10.9092 -10.9030 -10.8790 -10.8701 -10.8678
   -10.8625 -10.8618 -10.8614 -10.8527 -10.8510 -10.8252 -10.8075 -10.7990
   -10.7963 -10.7877 -10.7799 -10.7214 -10.6658 -10.6451 -10.6223 -10.5532
   -10.5264 -10.5165 -10.4284 -10.3949 -10.3639 -10.3143 -10.2573 -10.2106
   -10.1782 -10.1549 -10.1470 -10.1354 -10.1209 -10.0832 -10.0540 -10.0373
   -10.0093  -9.9931  -9.9766  -9.9693  -9.9632  -9.9591  -9.9567  -9.9433
    -9.9307  -9.9259  -9.9168  -9.9078  -9.8597  -9.8381  -9.8329  -9.8047
    -9.7907  -9.7826  -9.7737  -9.7587  -9.7459  -9.7427  -9.7327  -9.7317
    -9.7142  -9.7048  -9.6957  -9.6820  -9.6578  -9.6480  -9.6370  -9.6227
    -9.5894  -9.5817  -9.5778  -9.5640  -9.5609  -9.5237  -9.5077  -9.5033
    -9.4922  -9.4287  -9.4198  -9.3621  -9.3340  -9.3281  -9.2749  -9.2716
    -9.2434  -9.2327  -9.2242  -9.1894  -9.1803  -9.1771  -9.1627  -9.1549
    -9.1364  -9.1336  -9.1255  -9.1090  -9.0779  -9.0743  -9.0719  -9.0645
    -9.0420  -9.0388  -9.0245  -9.0077  -8.9962  -8.9916  -8.9814  -8.9801
    -8.9685  -8.9641  -8.9612  -8.9589  -8.9474  -8.9170  -8.9101  -8.8925
    -8.8906  -8.8880  -8.8835  -8.8795  -8.8713  -8.8707  -8.8653  -8.8541
    -8.8516  -8.8412  -8.8339  -8.8282  -8.7966  -8.7946  -8.7797  -8.7671
    -8.7437  -8.6790  -8.6331  -8.5957  -8.5438  -8.5437  -8.4984  -8.4784
    -8.4745  -8.4548  -8.4496  -8.3879  -8.3162  -8.3008  -8.2633  -8.2250
    -8.2250  -8.2122  -8.1568  -8.1535  -8.1526  -8.1299  -8.1193  -8.0215
    -7.9754  -7.9625  -7.9613  -7.9523  -7.9156  -7.8917  -7.8912  -7.8872
    -7.8825  -7.8783  -7.8783  -7.8780  -7.8768  -7.8648  -7.8403  -7.8361
    -7.8328  -7.8310  -7.8229  -7.8109  -7.8088  -7.8039  -7.7973  -7.7886
    -7.7798  -7.7759  -7.7742  -7.7602  -7.7551  -7.7519  -7.7498  -7.7414
    -7.7315  -7.7250  -7.7114  -7.7059  -7.6941  -7.6931  -7.6929  -7.6840
    -7.6644  -7.6536  -7.6432  -7.6268  -7.6244  -7.6191  -7.6142  -7.6011
    -7.5874  -7.5647  -7.5568  -7.5054  -7.4996  -7.4553  -7.4248  -7.3941
    -7.3384  -7.3029  -7.2852  -7.2764  -7.2680  -7.2628  -7.2360  -7.2092
    -7.1936  -7.1712  -7.1387  -7.1073  -7.1004  -7.0493  -7.0470  -7.0414
    -7.0355  -7.0290  -7.0092  -6.9914  -6.9707  -6.9677  -6.9350  -6.9300
    -6.9184  -6.8870  -6.8751  -6.8625  -6.8360  -6.8171  -6.7952  -6.7783
    -6.7467  -6.7312  -6.6945  -6.6901  -6.6901  -6.6900  -6.6888  -6.6808
    -6.6723  -6.6442  -6.6233  -6.6216  -6.6208  -6.6202  -6.6146  -6.5928
    -6.5556  -6.5386  -6.5240  -6.5027  -6.4727  -6.4592  -6.4067  -6.3737
    -6.3587  -6.3585  -6.3576  -6.3573  -6.3154  -6.2979  -6.2941  -6.2850
    -6.2799  -6.2770  -6.2714  -6.2702  -6.2612  -6.2404  -6.2270  -6.1834
    -6.1353  -6.1079  -6.0183  -6.0099  -6.0096  -5.9328  -5.9308  -5.8569
    -5.8125  -5.7632  -5.6524  -5.6359  -5.5784  -5.5002  -5.4482  -5.3703
    -5.2843  -5.2636  -4.2889  -4.0643  -4.0517  -4.0484  -4.0198  -3.9306
    -3.9255  -3.9254  -3.8923  -3.8651  -3.8608  -3.8588  -3.8288  -3.8066
    -3.8004  -3.7857  -3.7558  -3.7220  -3.6558  -3.6412  -3.6293  -3.6277
    -3.6252  -3.6123  -3.6111  -3.6109  -3.6016  -3.5821  -3.5485  -3.5335
    -3.5304  -3.5224  -3.5137  -3.5075  -3.5032  -3.5016  -3.4929  -3.4900
    -3.4465  -3.4304  -3.4211  -3.3997  -3.3916  -3.3850  -3.3838  -3.3781
    -3.3780  -3.3509  -3.3466  -3.3394  -3.3351  -3.3302  -3.3131  -3.3033
    -3.3018  -3.3012  -3.3007  -3.2845  -3.2741  -3.2635  -3.2538  -3.2477
    -3.2414  -3.2345  -3.2231  -3.2217  -3.2109  -3.2074  -3.1955  -3.1631
    -3.1584  -3.1466  -3.1310  -3.1094  -3.0984  -3.0965  -3.0757  -3.0672
    -3.0584  -3.0560  -3.0400  -3.0389  -3.0383  -3.0380  -3.0039  -2.9963
    -2.9901  -2.9890  -2.9845  -2.9728  -2.9644  -2.9512  -2.9466  -2.9409
    -2.9346  -2.9249  -2.9242  -2.9171  -2.9129  -2.9049  -2.8857  -2.8773
    -2.8532  -2.8469  -2.8342  -2.8257  -2.8236  -2.8173  -2.7775  -2.7580
    -2.7409  -2.7270  -2.6925  -2.6863  -2.6781  -2.6761  -2.6667  -2.6589
    -2.5959  -2.5932  -2.5843  -2.5495  -2.5355  -2.5244  -2.5138  -2.5046
    -2.4594  -2.4142  -2.3784  -2.3185  -2.3082  -2.2908

          k =-0.5000-0.8660 0.0000 (321564 PWs)   bands (ev):

  -102.3782 -88.8233 -88.8170 -70.7254 -70.7190 -70.6940 -70.6803 -70.6704
   -70.6631 -70.6489 -66.7135 -66.7135 -66.7030 -66.7030 -66.6880 -66.6880
   -66.6880 -66.6880 -66.6836 -66.6836 -66.6774 -66.6774 -66.6774 -66.6774
   -66.6730 -66.6730 -66.6477 -66.6473 -66.6370 -66.6369 -66.6222 -66.6220
   -66.6220 -66.6219 -66.6178 -66.6174 -66.6118 -66.6114 -66.6113 -66.6111
   -66.6070 -66.6069 -66.5783 -66.5676 -66.5623 -66.5567 -66.5460 -66.5412
   -66.5378 -66.5351 -66.5315 -66.5296 -66.5216 -66.5192 -66.5169 -66.5100
   -66.5056 -66.4682 -56.6265 -56.6060 -56.5668 -54.6622 -54.6486 -54.6250
   -54.6110 -54.5732 -54.5465 -41.0147 -41.0147 -41.0146 -41.0146 -40.9880
   -40.9880 -40.9761 -40.9761 -40.9479 -40.9475 -40.9473 -40.9473 -40.9257
   -40.9257 -40.9257 -40.9257 -40.9210 -40.9207 -40.9090 -40.9089 -40.8787
   -40.8677 -40.8677 -40.8642 -40.8587 -40.8586 -40.8586 -40.8585 -40.8577
   -40.8577 -40.8524 -40.8484 -40.8469 -40.8469 -40.8432 -40.8365 -40.8205
   -40.8175 -40.8175 -40.8175 -40.8175 -40.8089 -40.8088 -40.8023 -40.8020
   -40.7970 -40.7967 -40.7967 -40.7966 -40.7966 -40.7966 -40.7966 -40.7908
   -40.7907 -40.7880 -40.7880 -40.7815 -40.7814 -40.7738 -40.7660 -40.7660
   -40.7660 -40.7659 -40.7641 -40.7588 -40.7537 -40.7522 -40.7521 -40.7520
   -40.7520 -40.7436 -40.7432 -40.7387 -40.7326 -40.7316 -40.7315 -40.7315
   -40.7314 -40.7314 -40.7312 -40.7310 -40.7309 -40.7298 -40.7297 -40.7226
   -40.7226 -40.7194 -40.7194 -40.7191 -40.7120 -40.7002 -40.7002 -40.6993
   -40.6991 -40.6990 -40.6989 -40.6989 -40.6939 -40.6910 -40.6895 -40.6833
   -40.6833 -40.6829 -40.6790 -40.6758 -40.6720 -40.6647 -40.6646 -40.6646
   -40.6645 -40.6639 -40.6614 -40.6606 -40.6559 -40.6529 -40.6528 -40.6527
   -40.6524 -40.6515 -40.6462 -40.6428 -40.6355 -40.6335 -40.6332 -40.6166
   -40.6164 -40.6157 -40.6127 -40.6102 -40.6035 -40.5862 -40.5859 -40.5761
   -40.5740 -40.5706 -40.5635 -40.5595 -40.5460 -40.5414 -40.5366 -40.5180
   -40.5041 -40.4972 -40.4737 -20.0909 -19.9186 -19.9027 -19.8273 -19.7436
   -19.7060 -19.5581 -19.4915 -19.4663 -19.4362 -19.3159 -19.3037 -19.0956
   -18.9958 -18.9627 -18.7947 -18.7829 -18.7775 -18.7689 -18.7684 -18.7634
   -18.7512 -18.6751 -18.6573 -18.6488 -18.6411 -18.6271 -18.6251 -18.5841
   -18.5728 -18.5314 -18.5239 -18.5170 -18.4963 -18.4724 -18.4643 -18.4355
   -18.4317 -18.4089 -18.3808 -18.3666 -18.3496 -18.3030 -18.2878 -18.2597
   -18.2510 -18.2304 -18.2231 -18.1953 -18.1682 -18.1594 -18.1593 -18.1592
   -18.1590 -18.1503 -18.1377 -18.1283 -18.1064 -18.0926 -18.0835 -18.0830
   -18.0791 -18.0776 -18.0633 -18.0411 -18.0351 -18.0259 -18.0169 -18.0111
   -17.9994 -17.9821 -17.9776 -17.9745 -17.9641 -17.9570 -17.9484 -17.9216
   -17.9130 -17.9005 -17.8959 -17.8958 -17.8927 -17.8553 -17.8514 -17.8363
   -17.8360 -17.8335 -17.8206 -17.8198 -17.8139 -17.8094 -17.7983 -17.7760
   -17.7756 -17.7183 -17.7119 -12.1358 -11.9312 -11.7929 -11.7197 -11.7180
   -11.5848 -11.5223 -11.5107 -11.5069 -11.5040 -11.5020 -11.4874 -11.4791
   -11.4602 -11.4397 -11.4180 -11.4089 -11.4080 -11.3912 -11.3800 -11.3639
   -11.3423 -11.3213 -11.3181 -11.2999 -11.2887 -11.2887 -11.2664 -11.2543
   -11.2434 -11.2414 -11.2141 -11.1899 -11.1878 -11.1837 -11.1475 -11.1050
   -11.0639 -11.0472 -11.0330 -11.0133 -10.9997 -10.9722 -10.9498 -10.9476
   -10.9425 -10.9347 -10.9194 -10.9093 -10.9035 -10.8790 -10.8696 -10.8675
   -10.8625 -10.8618 -10.8614 -10.8524 -10.8508 -10.8254 -10.8081 -10.7991
   -10.7962 -10.7877 -10.7805 -10.7223 -10.6664 -10.6450 -10.6229 -10.5523
   -10.5263 -10.5167 -10.4285 -10.3949 -10.3618 -10.3144 -10.2571 -10.2109
   -10.1787 -10.1547 -10.1470 -10.1355 -10.1215 -10.0837 -10.0546 -10.0367
   -10.0094  -9.9938  -9.9769  -9.9692  -9.9632  -9.9591  -9.9570  -9.9434
    -9.9298  -9.9258  -9.9169  -9.9080  -9.8596  -9.8379  -9.8323  -9.8042
    -9.7906  -9.7827  -9.7740  -9.7590  -9.7459  -9.7427  -9.7327  -9.7318
    -9.7140  -9.7043  -9.6962  -9.6818  -9.6575  -9.6479  -9.6371  -9.6228
    -9.5891  -9.5810  -9.5778  -9.5639  -9.5608  -9.5238  -9.5078  -9.5033
    -9.4926  -9.4285  -9.4202  -9.3620  -9.3344  -9.3276  -9.2736  -9.2719
    -9.2434  -9.2326  -9.2245  -9.1895  -9.1803  -9.1775  -9.1627  -9.1547
    -9.1367  -9.1336  -9.1256  -9.1094  -9.0780  -9.0742  -9.0722  -9.0644
    -9.0419  -9.0388  -9.0247  -9.0077  -8.9966  -8.9920  -8.9815  -8.9803
    -8.9687  -8.9642  -8.9612  -8.9593  -8.9472  -8.9171  -8.9102  -8.8929
    -8.8904  -8.8881  -8.8834  -8.8791  -8.8713  -8.8706  -8.8646  -8.8544
    -8.8514  -8.8411  -8.8337  -8.8275  -8.7967  -8.7946  -8.7796  -8.7671
    -8.7437  -8.6790  -8.6331  -8.5953  -8.5438  -8.5437  -8.4987  -8.4782
    -8.4742  -8.4549  -8.4498  -8.3878  -8.3168  -8.3006  -8.2636  -8.2250
    -8.2250  -8.2133  -8.1571  -8.1535  -8.1527  -8.1298  -8.1190  -8.0211
    -7.9765  -7.9628  -7.9612  -7.9526  -7.9157  -7.8916  -7.8913  -7.8870
    -7.8825  -7.8785  -7.8783  -7.8783  -7.8773  -7.8648  -7.8403  -7.8364
    -7.8328  -7.8310  -7.8229  -7.8113  -7.8088  -7.8044  -7.7976  -7.7886
    -7.7798  -7.7757  -7.7741  -7.7600  -7.7550  -7.7520  -7.7496  -7.7414
    -7.7316  -7.7249  -7.7114  -7.7054  -7.6939  -7.6931  -7.6929  -7.6841
    -7.6639  -7.6534  -7.6429  -7.6267  -7.6244  -7.6191  -7.6138  -7.6009
    -7.5876  -7.5648  -7.5570  -7.5055  -7.5002  -7.4544  -7.4232  -7.3942
    -7.3383  -7.3019  -7.2845  -7.2757  -7.2674  -7.2625  -7.2352  -7.2090
    -7.1939  -7.1711  -7.1393  -7.1071  -7.1002  -7.0494  -7.0470  -7.0413
    -7.0354  -7.0291  -7.0094  -6.9916  -6.9706  -6.9678  -6.9349  -6.9301
    -6.9194  -6.8867  -6.8749  -6.8626  -6.8360  -6.8174  -6.7955  -6.7785
    -6.7473  -6.7312  -6.6946  -6.6901  -6.6901  -6.6900  -6.6888  -6.6809
    -6.6721  -6.6444  -6.6233  -6.6216  -6.6208  -6.6201  -6.6150  -6.5930
    -6.5556  -6.5387  -6.5247  -6.5023  -6.4726  -6.4594  -6.4068  -6.3744
    -6.3586  -6.3585  -6.3576  -6.3574  -6.3158  -6.2981  -6.2941  -6.2848
    -6.2799  -6.2771  -6.2714  -6.2701  -6.2612  -6.2406  -6.2268  -6.1830
    -6.1347  -6.1079  -6.0180  -6.0099  -6.0095  -5.9328  -5.9308  -5.8562
    -5.8127  -5.7631  -5.6523  -5.6359  -5.5788  -5.5005  -5.4481  -5.3700
    -5.2858  -5.2620  -4.2892  -4.0645  -4.0515  -4.0485  -4.0199  -3.9307
    -3.9255  -3.9254  -3.8922  -3.8652  -3.8608  -3.8588  -3.8284  -3.8071
    -3.8004  -3.7855  -3.7562  -3.7217  -3.6556  -3.6412  -3.6294  -3.6277
    -3.6252  -3.6122  -3.6111  -3.6109  -3.6015  -3.5823  -3.5488  -3.5336
    -3.5304  -3.5224  -3.5135  -3.5073  -3.5032  -3.5015  -3.4928  -3.4900
    -3.4470  -3.4303  -3.4212  -3.4000  -3.3914  -3.3847  -3.3837  -3.3781
    -3.3779  -3.3509  -3.3467  -3.3394  -3.3352  -3.3301  -3.3131  -3.3033
    -3.3020  -3.3012  -3.3007  -3.2844  -3.2743  -3.2638  -3.2538  -3.2478
    -3.2415  -3.2345  -3.2232  -3.2216  -3.2109  -3.2072  -3.1957  -3.1626
    -3.1580  -3.1466  -3.1311  -3.1092  -3.0983  -3.0966  -3.0757  -3.0672
    -3.0587  -3.0558  -3.0399  -3.0388  -3.0383  -3.0380  -3.0039  -2.9971
    -2.9902  -2.9889  -2.9844  -2.9732  -2.9638  -2.9511  -2.9461  -2.9407
    -2.9346  -2.9247  -2.9240  -2.9170  -2.9129  -2.9049  -2.8863  -2.8772
    -2.8535  -2.8486  -2.8355  -2.8297  -2.8254  -2.8196  -2.7781  -2.7587
    -2.7432  -2.7310  -2.6940  -2.6868  -2.6775  -2.6760  -2.6667  -2.6592
    -2.5963  -2.5932  -2.5866  -2.5492  -2.5357  -2.5245  -2.5139  -2.5047
    -2.4634  -2.4161  -2.3810  -2.3345  -2.3203  -2.3042

     the Fermi energy is    -4.7359 ev

!    total energy              =  -26543.76636778 Ry
     total all-electron energy =   -522376.362675 Ry
     estimated scf accuracy    <       0.00000079 Ry
     smearing contrib. (-TS)   =      -0.00000018 Ry
     internal energy E=F+TS    =  -26543.76636759 Ry

     The total energy is F=E-TS. E is the sum of the following terms:
     one-electron contribution =  511579.72407718 Ry
     hartree contribution      = -255936.19875888 Ry
     xc contribution           =   -1565.68946248 Ry
     ewald contribution        = -264173.57042426 Ry
     DFT-D3 Dispersion         =      -4.06097769 Ry
     one-center paw contrib.   =  -16443.97082146 Ry

     convergence has been achieved in  24 iterations

     negative rho (up, down):  9.655E-04 0.000E+00

     Forces acting on atoms (cartesian axes, Ry/au):

     atom    1 type  1   force =     0.00022771   -0.00025123   -0.00045256
     atom    2 type  1   force =    -0.00000275    0.00000383    0.00191342
     atom    3 type  1   force =    -0.00003845    0.00002674   -0.00004149
     atom    4 type  2   force =     0.00000292   -0.00000295   -0.00335305
     atom    5 type  2   force =    -0.00000458   -0.00001781   -0.00007036
     atom    6 type  2   force =    -0.00020784    0.00059462   -0.00042748
     atom    7 type  2   force =    -0.00000578    0.00000538    0.00155768
     atom    8 type  2   force =    -0.00003367   -0.00004184    0.00006500
     atom    9 type  2   force =    -0.00062417    0.00044374    0.00050989
     atom   10 type  1   force =    -0.00234200   -0.00281063   -0.00170061
     atom   11 type  1   force =     0.00000318   -0.00001633    0.00191077
     atom   12 type  1   force =     0.00000961   -0.00005010   -0.00002641
     atom   13 type  2   force =     0.00000177   -0.00000330   -0.00335262
     atom   14 type  2   force =    -0.00000630   -0.00002400   -0.00008432
     atom   15 type  2   force =     0.00042019   -0.00012051    0.00006407
     atom   16 type  2   force =     0.00000179   -0.00000352    0.00156848
     atom   17 type  2   force =    -0.00001619   -0.00003411    0.00008556
     atom   18 type  2   force =     0.00050722   -0.00142887    0.00289735
     atom   19 type  1   force =    -0.00420503   -0.00011767    0.00059981
     atom   20 type  1   force =    -0.00000309    0.00001035    0.00191443
     atom   21 type  1   force =    -0.00002883    0.00000281   -0.00002129
     atom   22 type  2   force =     0.00000093   -0.00000290   -0.00335481
     atom   23 type  2   force =    -0.00000972   -0.00000753   -0.00009044
     atom   24 type  2   force =     0.00036028    0.00017290   -0.00018664
     atom   25 type  2   force =     0.00000745   -0.00000671    0.00155651
     atom   26 type  2   force =    -0.00000537   -0.00002747    0.00010181
     atom   27 type  2   force =     0.00015523   -0.00040242    0.00054306
     atom   28 type  1   force =    -0.00043434   -0.00011905    0.00042598
     atom   29 type  1   force =     0.00000026   -0.00000299    0.00191843
     atom   30 type  1   force =    -0.00001192   -0.00003574   -0.00003427
     atom   31 type  2   force =     0.00000067   -0.00000102   -0.00334519
     atom   32 type  2   force =     0.00000309   -0.00000346   -0.00009343
     atom   33 type  2   force =    -0.00013780   -0.00035294   -0.00035915
     atom   34 type  2   force =     0.00000068   -0.00000749    0.00154801
     atom   35 type  2   force =    -0.00002563    0.00000676    0.00007106
     atom   36 type  2   force =    -0.00018369   -0.00039389    0.00012975
     atom   37 type  1   force =    -0.00020276    0.00033308    0.00037973
     atom   38 type  1   force =    -0.00000213   -0.00000872    0.00192854
     atom   39 type  1   force =     0.00004525    0.00000284   -0.00002665
     atom   40 type  2   force =    -0.00000109   -0.00000349   -0.00335118
     atom   41 type  2   force =     0.00003397    0.00002152   -0.00003976
     atom   42 type  2   force =     0.00014277    0.00006297   -0.00062324
     atom   43 type  2   force =    -0.00000269    0.00000161    0.00155002
     atom   44 type  2   force =    -0.00005242   -0.00000142    0.00015377
     atom   45 type  2   force =     0.00076650    0.00055949    0.00044397
     atom   46 type  1   force =     0.00241004   -0.00297090   -0.00057124
     atom   47 type  1   force =    -0.00000716   -0.00000735    0.00190811
     atom   48 type  1   force =     0.00000584   -0.00009009    0.00000477
     atom   49 type  2   force =     0.00000090   -0.00000621   -0.00334793
     atom   50 type  2   force =     0.00002450   -0.00003588   -0.00006404
     atom   51 type  2   force =     0.00006246   -0.00132044   -0.00029565
     atom   52 type  2   force =    -0.00000360    0.00000171    0.00155458
     atom   53 type  2   force =     0.00003046   -0.00005235    0.00006334
     atom   54 type  2   force =     0.00076464   -0.00474853   -0.00887935
     atom   55 type  1   force =     0.00019158   -0.00053166   -0.03247276
     atom   56 type  1   force =     0.00000752   -0.00000003    0.00190142
     atom   57 type  1   force =    -0.00000051    0.00000263   -0.00002850
     atom   58 type  2   force =     0.00000216   -0.00000288   -0.00336190
     atom   59 type  2   force =    -0.00000290   -0.00003535   -0.00010127
     atom   60 type  2   force =     0.00012102   -0.00051349    0.00347603
     atom   61 type  2   force =     0.00000185   -0.00000765    0.00156105
     atom   62 type  2   force =    -0.00001623   -0.00004287    0.00005450
     atom   63 type  2   force =    -0.02431258   -0.01132196    0.00603304
     atom   64 type  1   force =    -0.00203040    0.00289283   -0.00181774
     atom   65 type  1   force =    -0.00000701    0.00000165    0.00191851
     atom   66 type  1   force =    -0.00003803    0.00007089    0.00004667
     atom   67 type  2   force =    -0.00000264   -0.00000451   -0.00334953
     atom   68 type  2   force =    -0.00002135    0.00001966   -0.00009168
     atom   69 type  2   force =    -0.00085990    0.00086534   -0.00170503
     atom   70 type  2   force =     0.00000559   -0.00000822    0.00155765
     atom   71 type  2   force =    -0.00000186    0.00004591    0.00008736
     atom   72 type  2   force =     0.00056336   -0.00016860   -0.00185096
     atom   73 type  1   force =     0.00008033   -0.00071865    0.00008560
     atom   74 type  1   force =    -0.00000653   -0.00001169    0.00191999
     atom   75 type  1   force =    -0.00008971    0.00001917    0.00011140
     atom   76 type  2   force =     0.00000208   -0.00000200   -0.00335251
     atom   77 type  2   force =    -0.00005189    0.00004822   -0.00006934
     atom   78 type  2   force =     0.00004713   -0.00017680   -0.00045035
     atom   79 type  2   force =     0.00000228    0.00000034    0.00156022
     atom   80 type  2   force =     0.00004434   -0.00002219    0.00015047
     atom   81 type  2   force =    -0.00025739    0.00021773    0.00100966
     atom   82 type  1   force =    -0.00135887    0.00081948    0.00100709
     atom   83 type  1   force =    -0.00000552   -0.00000300    0.00191186
     atom   84 type  1   force =    -0.00000509   -0.00003801   -0.00000952
     atom   85 type  2   force =    -0.00000106   -0.00000139   -0.00335419
     atom   86 type  2   force =     0.00000313   -0.00005866   -0.00004724
     atom   87 type  2   force =     0.00047744   -0.00041020   -0.00029235
     atom   88 type  2   force =     0.00000263    0.00000134    0.00156491
     atom   89 type  2   force =     0.00000515    0.00002699    0.00012800
     atom   90 type  2   force =    -0.00098997   -0.00143844    0.00324465
     atom   91 type  1   force =     0.00400460   -0.00032095    0.00041143
     atom   92 type  1   force =    -0.00000520    0.00000692    0.00190083
     atom   93 type  1   force =    -0.00001142   -0.00001848   -0.00003609
     atom   94 type  2   force =    -0.00000086   -0.00000208   -0.00335637
     atom   95 type  2   force =     0.00000626   -0.00001004   -0.00007861
     atom   96 type  2   force =    -0.00040015   -0.00010308    0.00345342
     atom   97 type  2   force =    -0.00000343   -0.00000617    0.00154911
     atom   98 type  2   force =     0.00000845    0.00000561    0.00008569
     atom   99 type  2   force =     0.02431575   -0.01183176    0.00630393
     atom  100 type  1   force =     0.00201878    0.00300953   -0.00150612
     atom  101 type  1   force =     0.00000986    0.00000037    0.00190653
     atom  102 type  1   force =     0.00000415   -0.00003017   -0.00003428
     atom  103 type  2   force =     0.00000256   -0.00000443   -0.00335985
     atom  104 type  2   force =     0.00001516   -0.00001558   -0.00011555
     atom  105 type  2   force =     0.00005842   -0.00038475    0.00362406
     atom  106 type  2   force =     0.00000295   -0.00000921    0.00155436
     atom  107 type  2   force =     0.00002233    0.00001910    0.00005955
     atom  108 type  2   force =    -0.00026633    0.02272379    0.02220842
     atom  109 type  1   force =     0.00008619    0.00017923    0.00074264
     atom  110 type  1   force =     0.00001038   -0.00000602    0.00192393
     atom  111 type  1   force =     0.00007471    0.00000384   -0.00000974
     atom  112 type  2   force =     0.00000167   -0.00000613   -0.00335640
     atom  113 type  2   force =     0.00000872   -0.00001069   -0.00010972
     atom  114 type  2   force =     0.00010118   -0.00011092   -0.00012777
     atom  115 type  2   force =     0.00000546   -0.00000293    0.00156364
     atom  116 type  2   force =     0.00002589    0.00000224    0.00008925
     atom  117 type  2   force =     0.00005349    0.00033175    0.00143414
     atom  118 type  1   force =     0.00126238    0.00090456    0.00096778
     atom  119 type  1   force =     0.00001067    0.00000080    0.00191218
     atom  120 type  1   force =    -0.00001333    0.00001072   -0.00001076
     atom  121 type  2   force =    -0.00000079   -0.00000438   -0.00335718
     atom  122 type  2   force =    -0.00004062   -0.00001553   -0.00008427
     atom  123 type  2   force =     0.00034307   -0.00030454   -0.00032429
     atom  124 type  2   force =    -0.00000094   -0.00000802    0.00158564
     atom  125 type  2   force =    -0.00000839   -0.00002285    0.00008098
     atom  126 type  2   force =     0.00017087    0.00022308    0.00062782
     atom  127 type  1   force =    -0.00007951   -0.00021173    0.00070619
     atom  128 type  1   force =     0.00000471    0.00001402    0.00191061
     atom  129 type  1   force =     0.00003045    0.00001242   -0.00001571
     atom  130 type  2   force =    -0.00000042   -0.00000275   -0.00335792
     atom  131 type  2   force =    -0.00000114   -0.00000296   -0.00009248
     atom  132 type  2   force =    -0.00008819    0.00015729   -0.00046588
     atom  133 type  2   force =    -0.00000591   -0.00000707    0.00155238
     atom  134 type  2   force =    -0.00000612    0.00000946    0.00005553
     atom  135 type  2   force =    -0.00022831   -0.00039010    0.00038088
[...]
     atom   72 type  2   force =     0.00008230    0.00008374    0.00000140
     atom   73 type  1   force =    -0.00000660    0.00001288    0.00007441
     atom   74 type  1   force =    -0.00000020   -0.00000155    0.00189883
     atom   75 type  1   force =    -0.00002043    0.00000181    0.00001438
     atom   76 type  2   force =     0.00000005   -0.00000026   -0.00328024
     atom   77 type  2   force =    -0.00000512    0.00001063   -0.00000431
     atom   78 type  2   force =     0.00013598    0.00001696    0.00017218
     atom   79 type  2   force =     0.00000441   -0.00000103    0.00149824
     atom   80 type  2   force =     0.00000100    0.00003044   -0.00002047
     atom   81 type  2   force =    -0.00010025    0.00006169    0.00006303
     atom   82 type  1   force =     0.00003586   -0.00000220   -0.00034617
     atom   83 type  1   force =    -0.00000297    0.00000066    0.00189689
     atom   84 type  1   force =    -0.00000125   -0.00003813   -0.00003431
     atom   85 type  2   force =     0.00000021   -0.00000051   -0.00328007
     atom   86 type  2   force =     0.00002210   -0.00001349    0.00001228
     atom   87 type  2   force =     0.00032281   -0.00031964   -0.00025867
     atom   88 type  2   force =    -0.00000315    0.00000585    0.00149337
     atom   89 type  2   force =    -0.00000937   -0.00000966   -0.00001530
     atom   90 type  2   force =     0.00015716    0.00028540    0.00012298
     atom   91 type  1   force =     0.00007125   -0.00007915    0.00010038
     atom   92 type  1   force =    -0.00000218   -0.00000273    0.00189545
     atom   93 type  1   force =     0.00000616    0.00000937   -0.00001589
     atom   94 type  2   force =     0.00000035   -0.00000033   -0.00327974
     atom   95 type  2   force =     0.00001349    0.00000515   -0.00001030
     atom   96 type  2   force =    -0.00060901   -0.00003973    0.00058654
     atom   97 type  2   force =    -0.00000347   -0.00000345    0.00148391
     atom   98 type  2   force =     0.00001777   -0.00003428   -0.00004618
     atom   99 type  2   force =    -0.00051134    0.00035761   -0.00064496
     atom  100 type  1   force =    -0.00010343    0.00001540    0.00021609
     atom  101 type  1   force =    -0.00000183   -0.00000091    0.00189545
     atom  102 type  1   force =    -0.00000154   -0.00000620   -0.00000221
     atom  103 type  2   force =     0.00000024   -0.00000029   -0.00327981
     atom  104 type  2   force =     0.00001122    0.00002199    0.00001470
     atom  105 type  2   force =     0.00001397   -0.00027848    0.00048320
     atom  106 type  2   force =     0.00000044   -0.00000395    0.00148924
     atom  107 type  2   force =    -0.00000441    0.00000567    0.00002781
     atom  108 type  2   force =    -0.00000128   -0.00042691    0.00006548
     atom  109 type  1   force =    -0.00000432    0.00003117    0.00001267
     atom  110 type  1   force =     0.00000026   -0.00000016    0.00190037
     atom  111 type  1   force =     0.00002334   -0.00000005   -0.00000494
     atom  112 type  2   force =     0.00000040   -0.00000024   -0.00328033
     atom  113 type  2   force =    -0.00000185   -0.00000677    0.00001136
     atom  114 type  2   force =    -0.00014748    0.00000034    0.00018266
     atom  115 type  2   force =    -0.00000400   -0.00000120    0.00149854
     atom  116 type  2   force =     0.00000578    0.00000155    0.00000306
     atom  117 type  2   force =     0.00007930    0.00005809    0.00007451
     atom  118 type  1   force =    -0.00004032   -0.00000512   -0.00034437
     atom  119 type  1   force =     0.00000233    0.00000049    0.00189707
     atom  120 type  1   force =    -0.00000579    0.00000432    0.00002698
     atom  121 type  2   force =     0.00000029   -0.00000029   -0.00327931
     atom  122 type  2   force =    -0.00002560   -0.00001217    0.00000617
     atom  123 type  2   force =    -0.00001275   -0.00023495   -0.00026576
     atom  124 type  2   force =     0.00000012    0.00000102    0.00151643
     atom  125 type  2   force =     0.00001281   -0.00001175   -0.00001688
     atom  126 type  2   force =    -0.00000970    0.00021062   -0.00033047
     atom  127 type  1   force =     0.00001005    0.00029595   -0.00038745
     atom  128 type  1   force =    -0.00000043   -0.00000003    0.00190102
     atom  129 type  1   force =     0.00003295   -0.00001351    0.00002128
     atom  130 type  2   force =     0.00000039   -0.00000018   -0.00327985
     atom  131 type  2   force =     0.00000014   -0.00001775    0.00004892
     atom  132 type  2   force =    -0.00015216    0.00019332   -0.00012789
     atom  133 type  2   force =    -0.00000673   -0.00000562    0.00149119
     atom  134 type  2   force =    -0.00000250   -0.00000667    0.00009915
     atom  135 type  2   force =     0.00024465   -0.00009412   -0.00044683
     atom  136 type  1   force =    -0.00012354    0.00004511   -0.00008899
     atom  137 type  1   force =     0.00000010    0.00000055    0.00189903
     atom  138 type  1   force =     0.00000464    0.00001438    0.00002788
     atom  139 type  2   force =     0.00000052   -0.00000029   -0.00327879
     atom  140 type  2   force =    -0.00000892   -0.00000277    0.00002570
     atom  141 type  2   force =    -0.00029369   -0.00034924    0.00046141
     atom  142 type  2   force =    -0.00000775   -0.00000462    0.00149561
     atom  143 type  2   force =     0.00001113    0.00000908   -0.00000876
     atom  144 type  2   force =    -0.00005825    0.00007292   -0.00000535
     atom  145 type  3   force =    -0.00057407   -0.00026390    0.00008285
     atom  146 type  3   force =     0.00058640   -0.00025864    0.00003490
     atom  147 type  4   force =    -0.00000290   -0.00068354    0.00089400

     Total force =     0.003566     Total SCF correction =     0.000461
     SCF correction compared to forces is large: reduce conv_thr to get better values
     Energy error            =      3.5E-05 Ry
     Gradient error          =      8.9E-04 Ry/Bohr

     bfgs converged in  16 scf cycles and  15 bfgs steps
     (criteria: energy <  1.0E-04 Ry, force <  1.0E-03 Ry/Bohr)

     End of BFGS Geometry Optimization

     Final energy             =  -26543.7852122448 Ry

     File ./outdir/pwscf.bfgs deleted, as requested
Begin final coordinates

ATOMIC_POSITIONS (angstrom)
Mo               1.5761074884        2.6955982491        6.0704179907
Mo               1.5769197498        0.9104407117       -6.0872367793    0   0   0
Mo              -0.0001377568        1.8211878611       -0.0011740583
S                0.0000044503        0.0000077495       -7.6506323570    0   0   0
S                1.5767835703        0.9108328181       -1.5669073511
S               -0.0085990558        1.8251266952        4.4972408951
S                0.0000053241        0.0000068460       -4.5222282367    0   0   0
S                1.5769005287        0.9100164897        1.5651073256
S               -0.0031758726        1.8008087807        7.6405312622
Mo              -0.0256628476        5.4455025989        6.1274651300
Mo               0.0000011799        3.6417399547       -6.0872367793    0   0   0
Mo              -1.5766346422        4.5523859399       -0.0002025196
S               -1.5769141197        2.7313069925       -7.6506323570    0   0   0
S               -0.0001172175        3.6420950651       -1.5660389514
S               -1.5690602192        4.5571034795        4.5425639462
S               -1.5769132459        2.7313060890       -4.5222282367    0   0   0
S                0.0006048561        3.6421625263        1.5671988841
S               -1.6534583424        4.5032373796        7.7156739675
Mo              -1.6195644873        8.2181041959        6.0609146213
Mo              -1.5769173901        6.3730391977       -6.0872367793    0   0   0
Mo              -3.1534867620        7.2831377849       -0.0021053228
S               -3.1538326896        5.4626062355       -7.6506323570    0   0   0
S               -1.5763132725        6.3724663448       -1.5665929873
S               -3.1627419382        7.2690162125        4.4923565526
S               -3.1538318159        5.4626053320       -4.5222282367    0   0   0
S               -1.5763099921        6.3736818164        1.5666293853
S               -3.1753603091        7.2932980589        7.6386346592
Mo               3.1524480112        0.0019325264        6.0577200127
Mo              -3.1538359601        9.1043384407       -6.0872367793    0   0   0
Mo              -4.7308291365       10.0145487626       -0.0022001920
S               -4.7307512596        8.1939054785       -7.6506323570    0   0   0
S               -3.1535336177        9.1042621232       -1.5674300180
S               -4.7316207573       10.0131531207        4.4892897418
S               -4.7307503859        8.1939045750       -4.5222282367    0   0   0
S               -3.1538193192        9.1039621761        1.5646948322
S               -4.7315837600       10.0139644189        7.6233053953
Mo               4.7366683233        2.7238271051        6.0860324204
Mo               4.7307503218        0.9104407117       -6.0872367793    0   0   0
Mo               3.1538159697        1.8211952765       -0.0013282140
S                3.1538350223        0.0000077495       -7.6506323570    0   0   0
S                4.7311349650        0.9108072785       -1.5667154018
S                3.1609361161        1.8252178590        4.4972971839
S                3.1538358961        0.0000068460       -4.5222282367    0   0   0
S                4.7305059697        0.9103701154        1.5648256895
S                3.1553655477        1.8007935442        7.6405417226
Mo               3.1779038074        5.4454036962        6.1276199681
Mo               3.1538317519        3.6417399547       -6.0872367793    0   0   0
Mo               1.5768417940        4.5525438511       -0.0006397946
S                1.5769164523        2.7313069925       -7.6506323570    0   0   0
S                3.1537592705        3.6421406765       -1.5661530247
S                1.5761527606        4.5654369287        4.5716474756
S                1.5769173261        2.7313060890       -4.5222282367    0   0   0
S                3.1531284431        3.6421226823        1.5670814938
S                1.5759595109        4.4394271648        7.6859693950
Mo               1.5762014916        8.2177409231        6.1199033242
Mo               1.5769131819        6.3730391977       -6.0872367793    0   0   0
Mo               0.0003854700        7.2831566124       -0.0010401814
S               -0.0000021176        5.4626062355       -7.6506323570    0   0   0
S                1.5768494907        6.3727280266       -1.5666957096
S                0.0085256430        7.2773905564        4.5705110243
S               -0.0000012439        5.4626053320       -4.5222282367    0   0   0
S                1.5768226838        6.3730756954        1.5671589074
S               -0.1360184669        7.3304418975        7.6781656994
Mo               6.3029800792        0.0090036111        6.0847852127
Mo              -0.0000053881        9.1043384407       -6.0872367793    0   0   0
Mo              -1.5765873903       10.0146103323       -0.0016247985
S               -1.5769206876        8.1939054785       -7.6506323570    0   0   0
S                0.0004939503        9.1040738795       -1.5664819011
S               -1.5737621134       10.0296956767        4.4902985978
S               -1.5769198139        8.1939045750       -4.5222282367    0   0   0
S               -0.0001334480        9.1033891330        1.5668054334
S               -1.5960753596       10.0275214690        7.6351248064
Mo               7.8838654639        2.7299160878        6.0838836386
Mo               7.8845808939        0.9104407117       -6.0872367793    0   0   0
Mo               6.3077286766        1.8209400325       -0.0004970053
S                6.3076655943        0.0000077495       -7.6506323570    0   0   0
S                7.8845740218        0.9102388569       -1.5656524671
S                6.3084402732        1.8216031409        4.5128277280
S                6.3076664681        0.0000068460       -4.5222282367    0   0   0
S                7.8844322539        0.9095095525        1.5672266371
S                6.3084576889        1.8205588977        7.6569269963
Mo               6.3152075627        5.4593807423        6.0891446605
Mo               6.3076623239        3.6417399547       -6.0872367793    0   0   0
Mo               4.7303216203        4.5523868061       -0.0003241427
S                4.7307470244        2.7313069925       -7.6506323570    0   0   0
S                6.3072177719        3.6416936941       -1.5659444939
S                4.7213129116        4.5569981640        4.5428159759
S                4.7307478981        2.7313060890       -4.5222282367    0   0   0
S                6.3072135725        3.6422932309        1.5670577942
S                4.8057830798        4.5031366879        7.7159085930
Mo               4.7718898439        8.2180366972        6.0610869181
Mo               4.7307437539        6.3730391977       -6.0872367793    0   0   0
Mo               3.1532876559        7.2831547019       -0.0010100775
S                3.1538284544        5.4626062355       -7.6506323570    0   0   0
S                4.7300067950        6.3725437846       -1.5666143801
S                3.1439432703        7.2772486251        4.5706860101
S                3.1538293281        5.4626053320       -4.5222282367    0   0   0
S                4.7299775100        6.3736018627        1.5665975280
S                3.2883773809        7.3304013516        7.6783535759
Mo               9.4646089043        0.0090336354        6.0847019198
Mo               3.1538251839        9.1043384407       -6.0872367793    0   0   0
Mo               1.5768312596       10.0142868193       -0.0003473177
S                1.5769098844        8.1939054785       -7.6506323570    0   0   0
S                3.1532597858        9.1041023934       -1.5663884977
S                1.5760960739        9.9999996478        4.5437350531
S                1.5769107581        8.1939045750       -4.5222282367    0   0   0
S                3.1537012672        9.1033458396        1.5668951886
S                1.5761565458       10.1181884526        7.7331785450
Mo              -1.5843078210        2.7238991943        6.0858376840
Mo              11.0384114659        0.9104407117       -6.0872367793    0   0   0
Mo               9.4612738196        1.8209358619       -0.0003354032
S                9.4614961663        0.0000077495       -7.6506323570    0   0   0
S               11.0378825417        0.9107843387       -1.5665137638
S                9.4592331263        1.8216508059        4.5127029526
S                9.4614970401        0.0000068460       -4.5222282367    0   0   0
S               11.0384886309        0.9103700321        1.5650275131
S                9.4593542843        1.8206128848        7.6568068038
Mo              -3.1628807393        5.4594409154        6.0890268348
Mo               9.4614928959        3.6417399547       -6.0872367793    0   0   0
Mo               7.8845035893        4.5519987801       -0.0011286285
S                7.8845775964        2.7313069925       -7.6506323570    0   0   0
S                9.4618512942        3.6416495946       -1.5658308450
S                7.8838183187        4.5501966467        4.5174811731
S                7.8845784701        2.7313060890       -4.5222282367    0   0   0
S                9.4617189698        3.6423367440        1.5671584916
S                7.8839029892        4.5481447761        7.6597677629
Mo              -4.7315466318        8.1905994422        6.0571720321
Mo               7.8845743259        6.3730391977       -6.0872367793    0   0   0
Mo               6.3071649290        7.2831397362       -0.0020736202
S                6.3076590264        5.4626062355       -7.6506323570    0   0   0
S                7.8844953019        6.3724946127       -1.5674390379
S                6.3150029525        7.2689272291        4.4924013153
S                6.3076599001        5.4626053320       -4.5222282367    0   0   0
S                7.8845040958        6.3731069052        1.5638350839
S                6.3277344691        7.2932214259        7.6387530462
Mo              -0.0002764717        0.0019148565        6.0577595806
Mo               6.3076557559        9.1043384407       -6.0872367793    0   0   0
Mo               4.7302503123       10.0146016934       -0.0014317243
S                4.7307404564        8.1939054785       -7.6506323570    0   0   0
S                6.3071358837        9.1042931476       -1.5673397643
S                4.7259999732       10.0295776997        4.4903403472
S                4.7307413301        8.1939045750       -4.5222282367    0   0   0
S                6.3075451298        9.1039265467        1.5647928085
S                4.7481858137       10.0275773231        7.6351849216
Pd               3.0803733031        5.5309667633        9.0969396385
Pd               0.0717103610        5.5312113866        9.0972006459
Pt               1.5761330343        8.0759276655        8.9767668608
End final coordinates



     Writing all to output data dir ./outdir/pwscf.save/ :
     XML data file, charge density, pseudopotentials, collected wavefunctions
 
     init_run     :     96.32s CPU     98.53s WALL (       1 calls)
     electrons    :  75421.13s CPU  76591.98s WALL (      16 calls)
     update_pot   :     19.77s CPU     20.42s WALL (      15 calls)
     forces       :   1145.70s CPU   1171.00s WALL (      16 calls)
     force_dftd3  :      6.08s CPU      6.41s WALL (      16 calls)

     Called by init_run:
     wfcinit      :     78.22s CPU     79.25s WALL (       1 calls)
     potinit      :      1.10s CPU      1.20s WALL (       1 calls)
     hinit0       :      9.28s CPU      9.34s WALL (       1 calls)

     Called by electrons:
     c_bands      :  65487.62s CPU  66191.18s WALL (     230 calls)
     sum_band     :   8517.29s CPU   8757.07s WALL (     230 calls)
     v_of_rho     :     66.96s CPU     75.27s WALL (     236 calls)
     newd         :   1187.88s CPU   1409.87s WALL (     236 calls)
     PAW_pot      :    192.94s CPU    194.69s WALL (     251 calls)
     mix_rho      :     18.53s CPU     21.09s WALL (     230 calls)
     energy_dftd3 :      3.41s CPU      3.44s WALL (      16 calls)

     Called by c_bands:
     init_us_2    :    320.69s CPU    322.46s WALL (    1968 calls)
     init_us_2:cp :    320.68s CPU    322.45s WALL (    1968 calls)
     cegterg      :  64155.78s CPU  64852.64s WALL (     935 calls)

     Called by *egterg:
     cdiaghg      :   3475.79s CPU   3634.39s WALL (   11254 calls)
     h_psi        :  33383.67s CPU  33607.55s WALL (   11360 calls)
     s_psi        :   7074.60s CPU   7107.37s WALL (   11360 calls)
     g_psi        :     73.01s CPU     73.33s WALL (   10421 calls)

     Called by h_psi:
     h_psi:calbec :   6853.26s CPU   6878.42s WALL (   11360 calls)
     vloc_psi     :  19273.32s CPU  19383.05s WALL (   11360 calls)
     add_vuspsi   :   7096.14s CPU   7130.47s WALL (   11360 calls)

     General routines
     calbec       :   9744.96s CPU   9780.75s WALL (   12596 calls)
     fft          :     54.94s CPU     62.47s WALL (    3237 calls)
     ffts         :      2.98s CPU      3.09s WALL (     466 calls)
     fftw         :  14348.25s CPU  14429.03s WALL ( 5057912 calls)
     interpolate  :      5.55s CPU      6.11s WALL (     236 calls)
 
     Parallel routines
 
     PWSCF        :     21h24m CPU     21h45m WALL

 
   This run was terminated on:  14:41:20  30Mar2024            

=------------------------------------------------------------------------------=
   JOB DONE.
=------------------------------------------------------------------------------=
