
     Program PWSCF v.7.3 starts on  9Mar2024 at  4:24:57 

     This program is part of the open-source Quantum ESPRESSO suite
     for quantum simulation of materials; please cite
         "P. Giannozzi et al., J. Phys.:Condens. Matter 21 395502 (2009);
         "P. Giannozzi et al., J. Phys.:Condens. Matter 29 465901 (2017);
         "P. Giannozzi et al., J. Chem. Phys. 152 154105 (2020);
          URL http://www.quantum-espresso.org", 
     in publications or presentations arising from this work. More details at
     http://www.quantum-espresso.org/quote

     Parallel version (MPI & OpenMP), running on      36 processor cores
     Number of MPI processes:                36
     Threads/MPI process:                     1

     MPI processes distributed on     1 nodes
     555799 MiB available memory on the printing compute node when the environment starts
 
     Waiting for input...
     Reading input from standard input
Warning: card &CELL ignored
Warning: card / ignored

     Current dimensions of program PWSCF are:
     Max number of different atomic species (ntypx) = 10
     Max number of k-points (npk) =  40000
     Max angular momentum in pseudopotentials (lmaxx) =  4
     file Mo.pbe-spn-kjpaw_psl.1.0.0.UPF: wavefunction(s)  4S 4D renormalized
     file S.pbe-n-kjpaw_psl.1.0.0.UPF: wavefunction(s)  3S 3P renormalized
     file Pt.pbe-spfn-kjpaw_psl.1.0.0.UPF: wavefunction(s)  5P 4F renormalized
     file Pd.pbe-spn-kjpaw_psl.1.0.0.UPF: wavefunction(s)  4S 5S 4D renormalized
 
     R & G space division:  proc/nbgrp/npool/nimage =      36
     Subspace diagonalization in iterative solution of the eigenvalue problem:
     one sub-group per band group will be used
     scalapack distributed-memory algorithm (size of sub-group:  6*  6 procs)

 
     Parallelization info
     --------------------
     sticks:   dense  smooth     PW     G-vecs:    dense   smooth      PW
     Min         586     335     89               165416    71459    9765
     Max         587     337     90               165425    71461    9778
     Sum       21109   12085   3205              5955087  2572543  351657
 
     Using Slab Decomposition
 


     bravais-lattice index     =            0
     lattice parameter (alat)  =      23.8395  a.u.
     unit-cell volume          =   28182.8498 (a.u.)^3
     number of atoms/cell      =          146
     number of atomic types    =            4
     number of electrons       =      1298.00
     number of Kohn-Sham states=          779
     kinetic-energy cutoff     =      77.0000  Ry
     charge density cutoff     =     539.0000  Ry
     scf convergence threshold =      1.0E-06
     mixing beta               =       0.2000
     number of iterations used =            8  plain     mixing
     energy convergence thresh.=      1.0E-04
     force convergence thresh. =      1.0E-03
     Exchange-correlation= SLA  PW   PBX  PBC
                           (   1   4   3   4   0   0   0)
     nstep                     =         1000


     Effective Screening Medium Method
     =================================
     Boundary Conditions: Vacuum-Slab-Vacuum
     total charge in unit cell        =   0.0000
     grid points for fit at edges     =        4 
 

     celldm(1)=  23.839504  celldm(2)=   0.000000  celldm(3)=   0.000000
     celldm(4)=   0.000000  celldm(5)=   0.000000  celldm(6)=   0.000000

     crystal axes: (cart. coord. in units of alat)
               a(1) = (   1.000000   0.000000   0.000000 )  
               a(2) = (  -0.500001   0.866026   0.000000 )  
               a(3) = (   0.000000   0.000000   2.401941 )  

     reciprocal axes: (cart. coord. in units 2 pi/alat)
               b(1) = (  1.000000  0.577351  0.000000 )  
               b(2) = (  0.000000  1.154700  0.000000 )  
               b(3) = (  0.000000  0.000000  0.416330 )  


     PseudoPot. # 1 for Mo read from file:
     ./pseudo/Mo.pbe-spn-kjpaw_psl.1.0.0.UPF
     MD5 check sum: 317bf72632116215fd98f72de1686f13
     Pseudo is Projector augmented-wave + core cor, Zval = 14.0
     Generated using 'atomic' code by A. Dal Corso  v.7.2
     Shape of augmentation charge: PSQ
     Using radial grid of 1229 points,  6 beta functions with: 
                l(1) =   0
                l(2) =   0
                l(3) =   1
                l(4) =   1
                l(5) =   2
                l(6) =   2
     Q(r) pseudized with 0 coefficients 


     PseudoPot. # 2 for S  read from file:
     ./pseudo/S.pbe-n-kjpaw_psl.1.0.0.UPF
     MD5 check sum: 8b7b5302570d38d5e87fed6a1065abda
     Pseudo is Projector augmented-wave + core cor, Zval =  6.0
     Generated using 'atomic' code by A. Dal Corso  v.7.2
     Shape of augmentation charge: PSQ
     Using radial grid of 1151 points,  6 beta functions with: 
                l(1) =   0
                l(2) =   0
                l(3) =   1
                l(4) =   1
                l(5) =   2
                l(6) =   2
     Q(r) pseudized with 0 coefficients 


     PseudoPot. # 3 for Pt read from file:
     ./pseudo/Pt.pbe-spfn-kjpaw_psl.1.0.0.UPF
     MD5 check sum: 620096ebf4e6ebacc94de60fd67efcb5
     Pseudo is Projector augmented-wave + core cor, Zval = 32.0
     Generated using 'atomic' code by A. Dal Corso  v.7.2
     Shape of augmentation charge: PSQ
     Using radial grid of 1277 points,  8 beta functions with: 
                l(1) =   0
                l(2) =   0
                l(3) =   1
                l(4) =   1
                l(5) =   2
                l(6) =   2
                l(7) =   3
                l(8) =   3
     Q(r) pseudized with 0 coefficients 


     PseudoPot. # 4 for Pd read from file:
     ./pseudo/Pd.pbe-spn-kjpaw_psl.1.0.0.UPF
     MD5 check sum: a60571a671f2502b8a6a4569d20a6edb
     Pseudo is Projector augmented-wave + core cor, Zval = 18.0
     Generated using 'atomic' code by A. Dal Corso  v.7.2
     Shape of augmentation charge: PSQ
     Using radial grid of 1235 points,  6 beta functions with: 
                l(1) =   0
                l(2) =   0
                l(3) =   1
                l(4) =   1
                l(5) =   2
                l(6) =   2
     Q(r) pseudized with 0 coefficients 


     atomic species   valence    mass     pseudopotential
     Mo               14.00    95.95000     Mo( 1.00)
     S                 6.00    32.06000     S ( 1.00)
     Pt               32.00   195.08400     Pt( 1.00)
     Pd               18.00   106.42000     Pd( 1.00)

     No symmetry found



   Cartesian axes

     site n.     atom                  positions (alat units)
         1        Mo     tau(   1) = (   0.1245066   0.2151403   0.4829270  )
         2        Mo     tau(   2) = (   0.1250004   0.0721694  -0.4825273  )
         3        Mo     tau(   3) = (   0.0000143   0.1443586  -0.0000404  )
         4        S      tau(   4) = (   0.0000004   0.0000006  -0.6064556  )
         5        S      tau(   5) = (   0.1249859   0.0722111  -0.1241825  )
         6        S      tau(   6) = (   0.0002990   0.1445714   0.3572522  )
         7        S      tau(   7) = (   0.0000004   0.0000005  -0.3584711  )
         8        S      tau(   8) = (   0.1250243   0.0721377   0.1241202  )
         9        S      tau(   9) = (  -0.0011552   0.1430195   0.6061730  )
        10        Mo     tau(  10) = (  -0.0014303   0.4332690   0.4829269  )
        11        Mo     tau(  11) = (   0.0000001   0.2886759  -0.4825273  )
        12        Mo     tau(  12) = (  -0.1249759   0.3608474  -0.0000404  )
        13        S      tau(  13) = (  -0.1249999   0.2165071  -0.6064556  )
        14        S      tau(  14) = (   0.0000250   0.2886908  -0.1241273  )
        15        S      tau(  15) = (  -0.1246483   0.3609863   0.3572522  )
        16        S      tau(  16) = (  -0.1249998   0.2165070  -0.3584711  )
        17        S      tau(  17) = (   0.0000923   0.2887297   0.1242244  )
        18        S      tau(  18) = (  -0.1267194   0.3605027   0.6061730  )
        19        Mo     tau(  19) = (  -0.1251617   0.6496109   0.4820319  )
        20        Mo     tau(  20) = (  -0.1250002   0.5051824  -0.4825273  )
        21        Mo     tau(  21) = (  -0.2500022   0.5773395  -0.0001503  )
        22        S      tau(  22) = (  -0.2500002   0.4330136  -0.6064556  )
        23        S      tau(  23) = (  -0.1249718   0.5051500  -0.1241823  )
        24        S      tau(  24) = (  -0.2500018   0.5776353   0.3574746  )
        25        S      tau(  25) = (  -0.2500001   0.4330135  -0.3584711  )
        26        S      tau(  26) = (  -0.1250162   0.5052198   0.1241203  )
        27        S      tau(  27) = (  -0.2500018   0.5771316   0.6060170  )
        28        Mo     tau(  28) = (   0.2499988  -0.0001852   0.4820322  )
        29        Mo     tau(  29) = (  -0.2500004   0.7216889  -0.4825273  )
        30        Mo     tau(  30) = (  -0.3750121   0.7938628  -0.0001504  )
        31        S      tau(  31) = (  -0.3750004   0.6495201  -0.6064556  )
        32        S      tau(  32) = (  -0.2500022   0.7216884  -0.1242395  )
        33        S      tau(  33) = (  -0.3747547   0.7937137   0.3574746  )
        34        S      tau(  34) = (  -0.3750004   0.6495200  -0.3584711  )
        35        S      tau(  35) = (  -0.2500023   0.7216883   0.1240244  )
        36        S      tau(  36) = (  -0.3751912   0.7939655   0.6060169  )
        37        Mo     tau(  37) = (   0.3754907   0.2151405   0.4829271  )
        38        Mo     tau(  38) = (   0.3750004   0.0721694  -0.4825273  )
        39        Mo     tau(  39) = (   0.2499984   0.1443573  -0.0000731  )
        40        S      tau(  40) = (   0.2500004   0.0000006  -0.6064556  )
        41        S      tau(  41) = (   0.3750112   0.0722112  -0.1241824  )
        42        S      tau(  42) = (   0.2499987   0.1444686   0.3583292  )
        43        S      tau(  43) = (   0.2500004   0.0000005  -0.3584711  )
        44        S      tau(  44) = (   0.3749727   0.0721378   0.1241202  )
        45        S      tau(  45) = (   0.2499989   0.1436262   0.6067914  )
        46        Mo     tau(  46) = (   0.2499982   0.4330120   0.4873213  )
        47        Mo     tau(  47) = (   0.2500001   0.2886759  -0.4825273  )
        48        Mo     tau(  48) = (   0.1250313   0.3608632  -0.0000369  )
        49        S      tau(  49) = (   0.1250001   0.2165071  -0.6064556  )
        50        S      tau(  50) = (   0.2499984   0.2886902  -0.1241509  )
        51        S      tau(  51) = (   0.1269276   0.3619573   0.3622727  )
        52        S      tau(  52) = (   0.1250002   0.2165070  -0.3584711  )
        53        S      tau(  53) = (   0.2499983   0.2886817   0.1242427  )
        54        S      tau(  54) = (   0.1143670   0.3547054   0.6129634  )
        55        Mo     tau(  55) = (   0.1240620   0.6506275   0.4829270  )
        56        Mo     tau(  56) = (   0.1249998   0.5051824  -0.4825273  )
        57        Mo     tau(  57) = (   0.0000150   0.5773409  -0.0000731  )
        58        S      tau(  58) = (  -0.0000002   0.4330136  -0.6064556  )
        59        S      tau(  59) = (   0.1250108   0.5051746  -0.1241509  )
        60        S      tau(  60) = (   0.0001121   0.5772840   0.3583290  )
        61        S      tau(  61) = (  -0.0000001   0.4330135  -0.3584711  )
        62        S      tau(  62) = (   0.1250034   0.5051788   0.1242428  )
        63        S      tau(  63) = (  -0.0006172   0.5777056   0.6067911  )
        64        Mo     tau(  64) = (   0.5000733   0.0000423   0.4811256  )
        65        Mo     tau(  65) = (  -0.0000004   0.7216889  -0.4825273  )
        66        Mo     tau(  66) = (  -0.1249927   0.7938628  -0.0001503  )
        67        S      tau(  67) = (  -0.1250004   0.6495201  -0.6064556  )
        68        S      tau(  68) = (   0.0000406   0.7216783  -0.1241824  )
        69        S      tau(  69) = (  -0.1252496   0.7937135   0.3574746  )
        70        S      tau(  70) = (  -0.1250004   0.6495200  -0.3584711  )
        71        S      tau(  71) = (  -0.0000422   0.7216817   0.1241204  )
        72        S      tau(  72) = (  -0.1248129   0.7939655   0.6060170  )
        73        Mo     tau(  73) = (   0.6251034   0.2164454   0.4813717  )
        74        Mo     tau(  74) = (   0.6250004   0.0721694  -0.4825273  )
        75        Mo     tau(  75) = (   0.4999826   0.1443587  -0.0000403  )
        76        S      tau(  76) = (   0.5000004   0.0000006  -0.6064556  )
        77        S      tau(  77) = (   0.6249765   0.0721563  -0.1241436  )
        78        S      tau(  78) = (   0.4996985   0.1445712   0.3572516  )
        79        S      tau(  79) = (   0.5000004   0.0000005  -0.3584711  )
        80        S      tau(  80) = (   0.6250052   0.0721729   0.1241442  )
        81        S      tau(  81) = (   0.5011529   0.1430194   0.6061729  )
        82        Mo     tau(  82) = (   0.5014272   0.4332689   0.4829269  )
        83        Mo     tau(  83) = (   0.5000001   0.2886759  -0.4825273  )
        84        Mo     tau(  84) = (   0.3749652   0.3608633  -0.0000370  )
        85        S      tau(  85) = (   0.3750001   0.2165071  -0.6064556  )
        86        S      tau(  86) = (   0.4999715   0.2886908  -0.1241272  )
        87        S      tau(  87) = (   0.3730698   0.3619571   0.3622724  )
        88        S      tau(  88) = (   0.3750002   0.2165070  -0.3584711  )
        89        S      tau(  89) = (   0.4999043   0.2887298   0.1242243  )
        90        S      tau(  90) = (   0.3856284   0.3547066   0.6129638  )
        91        Mo     tau(  91) = (   0.3759345   0.6506277   0.4829270  )
        92        Mo     tau(  92) = (   0.3749998   0.5051824  -0.4825273  )
        93        Mo     tau(  93) = (   0.2499980   0.5773127  -0.0000370  )
        94        S      tau(  94) = (   0.2499998   0.4330136  -0.6064556  )
        95        S      tau(  95) = (   0.3749852   0.5051745  -0.1241508  )
        96        S      tau(  96) = (   0.2499983   0.5751230   0.3622722  )
        97        S      tau(  97) = (   0.2499999   0.4330135  -0.3584711  )
        98        S      tau(  98) = (   0.3749925   0.5051788   0.1242430  )
        99        S      tau(  99) = (   0.2499985   0.5896211   0.6129642  )
       100        Mo     tau( 100) = (   0.7499990   0.0001203   0.4813716  )
       101        Mo     tau( 101) = (   0.2499996   0.7216889  -0.4825273  )
       102        Mo     tau( 102) = (   0.1250080   0.7938333  -0.0000403  )
       103        S      tau( 103) = (   0.1249996   0.6495201  -0.6064556  )
       104        S      tau( 104) = (   0.2499977   0.7216576  -0.1241273  )
       105        S      tau( 105) = (   0.1250507   0.7934796   0.3572514  )
       106        S      tau( 106) = (   0.1249996   0.6495200  -0.3584711  )
       107        S      tau( 107) = (   0.2499978   0.7215798   0.1242243  )
       108        S      tau( 108) = (   0.1244341   0.7955149   0.6061727  )
       109        Mo     tau( 109) = (  -0.1251058   0.2164455   0.4813720  )
       110        Mo     tau( 110) = (   0.8750004   0.0721694  -0.4825273  )
       111        Mo     tau( 111) = (   0.7499984   0.1443377  -0.0000951  )
       112        S      tau( 112) = (   0.7500004   0.0000006  -0.6064556  )
       113        S      tau( 113) = (   0.8750204   0.0721563  -0.1241436  )
       114        S      tau( 114) = (   0.7499989   0.1443372   0.3571897  )
       115        S      tau( 115) = (   0.7500004   0.0000005  -0.3584711  )
       116        S      tau( 116) = (   0.8749917   0.0721728   0.1241442  )
       117        S      tau( 117) = (   0.7499986   0.1443371   0.6056765  )
       118        Mo     tau( 118) = (  -0.2500015   0.4329261   0.4811261  )
       119        Mo     tau( 119) = (   0.7500001   0.2886759  -0.4825273  )
       120        Mo     tau( 120) = (   0.6249722   0.3608476  -0.0000403  )
       121        S      tau( 121) = (   0.6250001   0.2165071  -0.6064556  )
       122        S      tau( 122) = (   0.7499981   0.2887008  -0.1241435  )
       123        S      tau( 123) = (   0.6246456   0.3609863   0.3572519  )
       124        S      tau( 124) = (   0.6250002   0.2165070  -0.3584711  )
       125        S      tau( 125) = (   0.7499982   0.2886677   0.1241441  )
       126        S      tau( 126) = (   0.6267164   0.3605023   0.6061731  )
       127        Mo     tau( 127) = (  -0.3748420   0.6496111   0.4820319  )
       128        Mo     tau( 128) = (   0.6249998   0.5051824  -0.4825273  )
       129        Mo     tau( 129) = (   0.4999808   0.5773409  -0.0000733  )
       130        S      tau( 130) = (   0.4999998   0.4330136  -0.6064556  )
       131        S      tau( 131) = (   0.6249676   0.5051499  -0.1241823  )
       132        S      tau( 132) = (   0.4998845   0.5772841   0.3583289  )
       133        S      tau( 133) = (   0.4999999   0.4330135  -0.3584711  )
       134        S      tau( 134) = (   0.6250119   0.5052197   0.1241202  )
       135        S      tau( 135) = (   0.5006138   0.5777054   0.6067911  )
       136        Mo     tau( 136) = (  -0.0000756   0.0000425   0.4811258  )
       137        Mo     tau( 137) = (   0.4999996   0.7216889  -0.4825273  )
       138        Mo     tau( 138) = (   0.3749875   0.7938333  -0.0000404  )
       139        S      tau( 139) = (   0.3749996   0.6495201  -0.6064556  )
       140        S      tau( 140) = (   0.4999549   0.7216781  -0.1241825  )
       141        S      tau( 141) = (   0.3749453   0.7934797   0.3572516  )
       142        S      tau( 142) = (   0.3749996   0.6495200  -0.3584711  )
       143        S      tau( 143) = (   0.5000375   0.7216816   0.1241203  )
       144        S      tau( 144) = (   0.3755618   0.7955149   0.6061729  )
       145        Pt     tau( 145) = (   0.2499972   0.4330095   0.7045710  )
       146        Pd     tau( 146) = (   0.1245311   0.2151352   0.7398146  )

     --------------------------------------------
     DFT-D3 Dispersion Correction (3-body terms):
     --------------------------------------------
       Reference C6 values for interpolation: 

         atom   Coordination number   C6
         S          0.000           268.01
         S          0.995           261.99
         S          1.990           251.62
         Mo         0.000          1691.79
         Mo         1.942          1004.01
         Mo        11.056           674.22
         Pd         0.000          1217.01
         Pd         1.863           573.90
         Pd         5.710           531.75
         Pt         0.000           782.29
         Pt         1.919           692.72
         Pt         6.667           673.75

       Values used:

         atom   Coordination number  R0_AB[au]  C6      C8
         Mo        10.498            3.547    674.22  77634.20
         Mo        10.189            3.547    674.22  77634.20
         Mo        10.200            3.547    674.22  77634.20
         S          3.753            3.128    251.62  12327.25
         S          3.858            3.128    251.62  12327.25
         S          3.846            3.128    251.62  12327.25
         S          3.859            3.128    251.62  12327.25
         S          3.860            3.128    251.62  12327.25
         S          4.703            3.128    251.62  12327.25
         Mo        10.178            3.547    674.22  77634.20
         Mo        10.189            3.547    674.22  77634.20
         Mo        10.200            3.547    674.22  77634.20
         S          3.753            3.128    251.62  12327.25
         S          3.859            3.128    251.62  12327.25
         S          3.846            3.128    251.62  12327.25
         S          3.858            3.128    251.62  12327.25
         S          3.855            3.128    251.62  12327.25
         S          3.828            3.128    251.62  12327.25
         Mo        10.217            3.547    674.22  77634.20
         Mo        10.189            3.547    674.22  77634.20
         Mo        10.200            3.547    674.22  77634.20
         S          3.753            3.128    251.62  12327.25
         S          3.858            3.128    251.62  12327.25
         S          3.861            3.128    251.62  12327.25
         S          3.859            3.128    251.62  12327.25
         S          3.860            3.128    251.62  12327.25
         S          3.762            3.128    251.62  12327.25
         Mo        10.223            3.547    674.22  77634.20
         Mo        10.189            3.547    674.22  77634.20
         Mo        10.200            3.547    674.22  77634.20
         S          3.753            3.128    251.62  12327.25
         S          3.858            3.128    251.62  12327.25
         S          3.861            3.128    251.62  12327.25
         S          3.859            3.128    251.62  12327.25
         S          3.863            3.128    251.62  12327.25
         S          3.770            3.128    251.62  12327.25
         Mo        10.179            3.547    674.22  77634.20
         Mo        10.189            3.547    674.22  77634.20
         Mo        10.202            3.547    674.22  77634.20
         S          3.753            3.128    251.62  12327.25
         S          3.858            3.128    251.62  12327.25
         S          3.859            3.128    251.62  12327.25
         S          3.859            3.128    251.62  12327.25
         S          3.860            3.128    251.62  12327.25
         S          4.641            3.128    251.62  12327.25
         Mo        10.895            3.547    674.22  77634.20
         Mo        10.189            3.547    674.22  77634.20
         Mo        10.203            3.547    674.21  77634.20
         S          3.753            3.128    251.62  12327.25
         S          3.859            3.128    251.62  12327.25
         S          3.865            3.128    251.62  12327.25
         S          3.859            3.128    251.62  12327.25
         S          3.851            3.128    251.62  12327.25
         S          5.596            3.128    251.62  12327.25
         Mo        10.173            3.547    674.22  77634.20
         Mo        10.189            3.547    674.22  77634.20
         Mo        10.201            3.547    674.22  77634.20
         S          3.753            3.128    251.62  12327.25
         S          3.859            3.128    251.62  12327.25
         S          3.858            3.128    251.62  12327.25
         S          3.859            3.128    251.62  12327.25
         S          3.851            3.128    251.62  12327.25
         S          3.752            3.128    251.62  12327.25
         Mo        10.230            3.547    674.22  77634.20
         Mo        10.189            3.547    674.22  77634.20
         Mo        10.200            3.547    674.22  77634.20
         S          3.753            3.128    251.62  12327.25
         S          3.858            3.128    251.62  12327.25
         S          3.861            3.128    251.62  12327.25
         S          3.859            3.128    251.62  12327.25
         S          3.860            3.128    251.62  12327.25
         S          3.763            3.128    251.62  12327.25
         Mo        10.215            3.547    674.22  77634.20
         Mo        10.189            3.547    674.22  77634.20
         Mo        10.200            3.547    674.22  77634.20
         S          3.753            3.128    251.62  12327.25
         S          3.858            3.128    251.62  12327.25
         S          3.845            3.128    251.62  12327.25
         S          3.859            3.128    251.62  12327.25
         S          3.860            3.128    251.62  12327.25
         S          3.822            3.128    251.62  12327.25
         Mo        10.173            3.547    674.22  77634.20
         Mo        10.189            3.547    674.22  77634.20
         Mo        10.203            3.547    674.22  77634.20
         S          3.753            3.128    251.62  12327.25
         S          3.859            3.128    251.62  12327.25
         S          3.865            3.128    251.62  12327.25
         S          3.859            3.128    251.62  12327.25
         S          3.855            3.128    251.62  12327.25
         S          4.660            3.128    251.62  12327.25
         Mo        10.173            3.547    674.22  77634.20
         Mo        10.189            3.547    674.22  77634.20
         Mo        10.203            3.547    674.22  77634.20
         S          3.753            3.128    251.62  12327.25
         S          3.859            3.128    251.62  12327.25
         S          3.864            3.128    251.62  12327.25
         S          3.859            3.128    251.62  12327.25
         S          3.851            3.128    251.62  12327.25
         S          4.654            3.128    251.62  12327.25
         Mo        10.216            3.547    674.22  77634.20
         Mo        10.189            3.547    674.22  77634.20
         Mo        10.200            3.547    674.22  77634.20
         S          3.753            3.128    251.62  12327.25
         S          3.859            3.128    251.62  12327.25
         S          3.845            3.128    251.62  12327.25
         S          3.859            3.128    251.62  12327.25
         S          3.855            3.128    251.62  12327.25
         S          3.821            3.128    251.62  12327.25
         Mo        10.221            3.547    674.22  77634.20
         Mo        10.189            3.547    674.22  77634.20
         Mo        10.200            3.547    674.22  77634.20
         S          3.753            3.128    251.62  12327.25
         S          3.858            3.128    251.62  12327.25
         S          3.853            3.128    251.62  12327.25
         S          3.858            3.128    251.62  12327.25
         S          3.860            3.128    251.62  12327.25
         S          3.786            3.128    251.62  12327.25
         Mo        10.230            3.547    674.22  77634.20
         Mo        10.189            3.547    674.22  77634.20
         Mo        10.200            3.547    674.22  77634.20
         S          3.753            3.128    251.62  12327.25
         S          3.858            3.128    251.62  12327.25
         S          3.845            3.128    251.62  12327.25
         S          3.858            3.128    251.62  12327.25
         S          3.860            3.128    251.62  12327.25
         S          3.821            3.128    251.62  12327.25
         Mo        10.217            3.547    674.22  77634.20
         Mo        10.189            3.547    674.22  77634.20
         Mo        10.201            3.547    674.22  77634.20
         S          3.753            3.128    251.62  12327.25
         S          3.858            3.128    251.62  12327.25
         S          3.858            3.128    251.62  12327.25
         S          3.859            3.128    251.62  12327.25
         S          3.860            3.128    251.62  12327.25
         S          3.752            3.128    251.62  12327.25
         Mo        10.236            3.547    674.22  77634.20
         Mo        10.189            3.547    674.22  77634.20
         Mo        10.200            3.547    674.22  77634.20
         S          3.753            3.128    251.62  12327.25
         S          3.858            3.128    251.62  12327.25
         S          3.845            3.128    251.62  12327.25
         S          3.859            3.128    251.62  12327.25
         S          3.860            3.128    251.62  12327.25
         S          3.822            3.128    251.62  12327.25
         Pt         4.232            3.168    690.95  71851.06
         Pd         3.322            3.168    573.90  52583.08

         Molecular C6 ( Ry / a.u.^6 ) =   7937426.96


     number of k points=     4  Gaussian smearing, width (Ry)=  0.0100
                       cart. coord. in units 2pi/alat
        k(    1) = (   0.0000000   0.0000000   0.0000000), wk =   0.5000000
        k(    2) = (   0.0000000  -0.5773499   0.0000000), wk =   0.5000000
        k(    3) = (  -0.5000000  -0.2886755   0.0000000), wk =   0.5000000
        k(    4) = (  -0.5000000  -0.8660254   0.0000000), wk =   0.5000000

     Dense  grid:  5955087 G-vectors     FFT dimensions: ( 180, 180, 432)

     Smooth grid:  2572543 G-vectors     FFT dimensions: ( 135, 135, 320)

     Estimated max dynamical RAM per process >       3.07 GB

     Estimated total dynamical RAM >     110.53 GB

     Initial potential from superposition of free atoms

     starting charge    1297.9541, renormalised to    1298.0000

     negative rho (up, down):  9.142E-04 0.000E+00
     Starting wfcs are  891 randomized atomic wfcs
     Checking if some PAW data can be deallocated... 

     total cpu time spent up to now is       98.8 secs

     Self-consistent Calculation

     iteration #  1     ecut=    77.00 Ry     beta= 0.20
     Davidson diagonalization with overlap
     ethr =  1.00E-02,  avg # of iterations =  2.0

     Threshold (ethr) on eigenvalues was too large:
     Diagonalizing with lowered threshold

     Davidson diagonalization with overlap
     ethr =  1.79E-04,  avg # of iterations = 13.0

     negative rho (up, down):  2.858E-04 0.000E+00

     total cpu time spent up to now is     1126.2 secs

     total energy              =  -26031.71705118 Ry
     estimated scf accuracy    <       5.13144765 Ry

     iteration #  2     ecut=    77.00 Ry     beta= 0.20
     Davidson diagonalization with overlap
     ethr =  3.95E-04,  avg # of iterations =  3.0

     negative rho (up, down):  4.154E-05 0.000E+00

     total cpu time spent up to now is     1347.3 secs

     total energy              =  -26030.69726130 Ry
     estimated scf accuracy    <       2.63477815 Ry

     iteration #  3     ecut=    77.00 Ry     beta= 0.20
     Davidson diagonalization with overlap
     ethr =  2.03E-04,  avg # of iterations = 19.5

     negative rho (up, down):  3.952E-05 0.000E+00

     total cpu time spent up to now is     1646.9 secs

     total energy              =  -26031.04459886 Ry
     estimated scf accuracy    <       2.34662344 Ry

     iteration #  4     ecut=    77.00 Ry     beta= 0.20
     Davidson diagonalization with overlap
     ethr =  1.81E-04,  avg # of iterations = 19.2

     negative rho (up, down):  2.971E-05 0.000E+00

     total cpu time spent up to now is     1895.6 secs

     total energy              =  -26031.07926743 Ry
     estimated scf accuracy    <       0.58051835 Ry

     iteration #  5     ecut=    77.00 Ry     beta= 0.20
     Davidson diagonalization with overlap
     c_bands:  1 eigenvalues not converged
     ethr =  4.47E-05,  avg # of iterations = 17.5

     negative rho (up, down):  4.183E-05 0.000E+00

     total cpu time spent up to now is     2586.0 secs

     total energy              =  -26031.70224836 Ry
     estimated scf accuracy    <       0.35164796 Ry

     iteration #  6     ecut=    77.00 Ry     beta= 0.20
     Davidson diagonalization with overlap
     c_bands:  3 eigenvalues not converged
     ethr =  2.71E-05,  avg # of iterations =  8.2

     negative rho (up, down):  6.752E-05 0.000E+00

     total cpu time spent up to now is     2830.9 secs

     total energy              =  -26031.69946941 Ry
     estimated scf accuracy    <       0.19724326 Ry

     iteration #  7     ecut=    77.00 Ry     beta= 0.20
     Davidson diagonalization with overlap
     ethr =  1.52E-05,  avg # of iterations = 12.0

     negative rho (up, down):  2.270E-04 0.000E+00

     total cpu time spent up to now is     3121.6 secs

     total energy              =  -26031.69202480 Ry
     estimated scf accuracy    <       0.11464779 Ry

     iteration #  8     ecut=    77.00 Ry     beta= 0.20
     Davidson diagonalization with overlap
     c_bands:  3 eigenvalues not converged
     ethr =  8.83E-06,  avg # of iterations = 36.8

     negative rho (up, down):  3.190E-04 0.000E+00

     total cpu time spent up to now is     3768.8 secs

     total energy              =  -26031.77470783 Ry
     estimated scf accuracy    <       0.08745931 Ry

     iteration #  9     ecut=    77.00 Ry     beta= 0.20
     Davidson diagonalization with overlap
     ethr =  6.74E-06,  avg # of iterations =  6.0

     negative rho (up, down):  3.292E-04 0.000E+00

     total cpu time spent up to now is     3993.2 secs

     total energy              =  -26031.75798226 Ry
     estimated scf accuracy    <       0.05117851 Ry

     iteration # 10     ecut=    77.00 Ry     beta= 0.20
     Davidson diagonalization with overlap
     c_bands:  1 eigenvalues not converged
     ethr =  3.94E-06,  avg # of iterations = 23.2

     negative rho (up, down):  3.664E-04 0.000E+00

     total cpu time spent up to now is     4439.0 secs

     total energy              =  -26031.78413553 Ry
     estimated scf accuracy    <       0.01344165 Ry

     iteration # 11     ecut=    77.00 Ry     beta= 0.20
     Davidson diagonalization with overlap
     c_bands:  2 eigenvalues not converged
     c_bands:  1 eigenvalues not converged
     c_bands:  3 eigenvalues not converged
     c_bands:  2 eigenvalues not converged
     ethr =  1.04E-06,  avg # of iterations = 50.0

     negative rho (up, down):  3.786E-04 0.000E+00

     total cpu time spent up to now is     5267.1 secs

     total energy              =  -26031.79484425 Ry
     estimated scf accuracy    <       0.00831887 Ry

     iteration # 12     ecut=    77.00 Ry     beta= 0.20
     Davidson diagonalization with overlap
     c_bands:  1 eigenvalues not converged
     c_bands:  1 eigenvalues not converged
     c_bands:  1 eigenvalues not converged
     ethr =  6.41E-07,  avg # of iterations = 15.5

     negative rho (up, down):  4.847E-04 0.000E+00

     total cpu time spent up to now is     5515.7 secs

     total energy              =  -26031.79264030 Ry
     estimated scf accuracy    <       0.00716667 Ry

     iteration # 13     ecut=    77.00 Ry     beta= 0.20
     Davidson diagonalization with overlap
     c_bands:  1 eigenvalues not converged
     c_bands:  1 eigenvalues not converged
     ethr =  5.52E-07,  avg # of iterations = 12.8

     negative rho (up, down):  7.259E-04 0.000E+00

     total cpu time spent up to now is     5759.4 secs

     total energy              =  -26031.79162230 Ry
     estimated scf accuracy    <       0.00250062 Ry

     iteration # 14     ecut=    77.00 Ry     beta= 0.20
     Davidson diagonalization with overlap
     c_bands:  1 eigenvalues not converged
     ethr =  1.93E-07,  avg # of iterations = 14.2

     negative rho (up, down):  7.458E-04 0.000E+00

     total cpu time spent up to now is     6272.7 secs

     total energy              =  -26031.79525334 Ry
     estimated scf accuracy    <       0.00096789 Ry

     iteration # 15     ecut=    77.00 Ry     beta= 0.20
     Davidson diagonalization with overlap
     ethr =  7.46E-08,  avg # of iterations = 11.8

     negative rho (up, down):  7.893E-04 0.000E+00

     total cpu time spent up to now is     6621.8 secs

     total energy              =  -26031.79588874 Ry
     estimated scf accuracy    <       0.00171111 Ry

     iteration # 16     ecut=    77.00 Ry     beta= 0.20
     Davidson diagonalization with overlap
     ethr =  7.46E-08,  avg # of iterations =  7.2

     negative rho (up, down):  8.364E-04 0.000E+00

     total cpu time spent up to now is     6852.8 secs

     total energy              =  -26031.79502410 Ry
     estimated scf accuracy    <       0.00232943 Ry

     iteration # 17     ecut=    77.00 Ry     beta= 0.20
     Davidson diagonalization with overlap
     ethr =  7.46E-08,  avg # of iterations =  1.2

     negative rho (up, down):  8.629E-04 0.000E+00

     total cpu time spent up to now is     7056.3 secs

     total energy              =  -26031.79475086 Ry
     estimated scf accuracy    <       0.00092734 Ry

     iteration # 18     ecut=    77.00 Ry     beta= 0.20
     Davidson diagonalization with overlap
     ethr =  7.14E-08,  avg # of iterations =  4.5

     negative rho (up, down):  8.709E-04 0.000E+00

     total cpu time spent up to now is     7286.1 secs

     total energy              =  -26031.79477938 Ry
     estimated scf accuracy    <       0.00031497 Ry

     iteration # 19     ecut=    77.00 Ry     beta= 0.20
     Davidson diagonalization with overlap
     c_bands:  3 eigenvalues not converged
     ethr =  2.43E-08,  avg # of iterations = 12.8

     negative rho (up, down):  8.883E-04 0.000E+00

     total cpu time spent up to now is     7716.7 secs

     total energy              =  -26031.79507898 Ry
     estimated scf accuracy    <       0.00011532 Ry

     iteration # 20     ecut=    77.00 Ry     beta= 0.20
     Davidson diagonalization with overlap
     c_bands:  4 eigenvalues not converged
     c_bands:  2 eigenvalues not converged
     ethr =  8.88E-09,  avg # of iterations = 14.0

     negative rho (up, down):  8.833E-04 0.000E+00

     total cpu time spent up to now is     8010.1 secs

     total energy              =  -26031.79509624 Ry
     estimated scf accuracy    <       0.00010043 Ry

     iteration # 21     ecut=    77.00 Ry     beta= 0.20
     Davidson diagonalization with overlap
     c_bands:  1 eigenvalues not converged
     c_bands:  1 eigenvalues not converged
     ethr =  7.74E-09,  avg # of iterations = 12.8

     negative rho (up, down):  8.868E-04 0.000E+00

     total cpu time spent up to now is     8251.0 secs

     total energy              =  -26031.79508931 Ry
     estimated scf accuracy    <       0.00007039 Ry

     iteration # 22     ecut=    77.00 Ry     beta= 0.20
     Davidson diagonalization with overlap
     ethr =  5.42E-09,  avg # of iterations = 14.2

     negative rho (up, down):  8.883E-04 0.000E+00

     total cpu time spent up to now is     8546.7 secs

     total energy              =  -26031.79511068 Ry
     estimated scf accuracy    <       0.00002569 Ry

     iteration # 23     ecut=    77.00 Ry     beta= 0.20
     Davidson diagonalization with overlap
     ethr =  1.98E-09,  avg # of iterations = 13.0

     negative rho (up, down):  8.962E-04 0.000E+00

     total cpu time spent up to now is     8955.7 secs

     total energy              =  -26031.79512700 Ry
     estimated scf accuracy    <       0.00002251 Ry

     iteration # 24     ecut=    77.00 Ry     beta= 0.20
     Davidson diagonalization with overlap
     ethr =  1.73E-09,  avg # of iterations = 11.2

     negative rho (up, down):  9.012E-04 0.000E+00

     total cpu time spent up to now is     9209.8 secs

     total energy              =  -26031.79511850 Ry
     estimated scf accuracy    <       0.00001562 Ry

     iteration # 25     ecut=    77.00 Ry     beta= 0.20
     Davidson diagonalization with overlap
     ethr =  1.20E-09,  avg # of iterations =  9.2

     negative rho (up, down):  9.032E-04 0.000E+00

     total cpu time spent up to now is     9483.4 secs

     total energy              =  -26031.79512006 Ry
     estimated scf accuracy    <       0.00000263 Ry

     iteration # 26     ecut=    77.00 Ry     beta= 0.20
     Davidson diagonalization with overlap
     c_bands:  1 eigenvalues not converged
     ethr =  2.03E-10,  avg # of iterations = 19.5

     negative rho (up, down):  9.044E-04 0.000E+00

     total cpu time spent up to now is    10274.2 secs

     total energy              =  -26031.79512717 Ry
     estimated scf accuracy    <       0.00000189 Ry

     iteration # 27     ecut=    77.00 Ry     beta= 0.20
     Davidson diagonalization with overlap
     ethr =  1.46E-10,  avg # of iterations =  2.8

     negative rho (up, down):  9.078E-04 0.000E+00

     total cpu time spent up to now is    10492.7 secs

     total energy              =  -26031.79512558 Ry
     estimated scf accuracy    <       0.00000125 Ry

     iteration # 28     ecut=    77.00 Ry     beta= 0.20
     Davidson diagonalization with overlap
     ethr =  9.62E-11,  avg # of iterations =  7.8

     negative rho (up, down):  9.217E-04 0.000E+00

     total cpu time spent up to now is    10832.5 secs

     End of self-consistent calculation

          k = 0.0000 0.0000 0.0000 (321495 PWs)   bands (ev):

  -102.9863 -88.0407 -71.3083 -71.2958 -71.2864 -71.2741 -71.2665 -71.2597
   -71.2522 -66.6930 -66.6719 -66.6719 -66.6719 -66.6719 -66.6719 -66.6719
   -66.6507 -66.6507 -66.6507 -66.6507 -66.6507 -66.6507 -66.6507 -66.6507
   -66.6507 -66.6270 -66.6063 -66.6061 -66.6059 -66.6059 -66.6057 -66.6056
   -66.5853 -66.5850 -66.5849 -66.5848 -66.5847 -66.5846 -66.5845 -66.5845
   -66.5843 -66.5589 -66.5475 -66.5398 -66.5378 -66.5335 -66.5262 -66.5249
   -66.5183 -66.5161 -66.5099 -66.5020 -66.4960 -66.4920 -66.4874 -66.4801
   -66.4734 -57.2307 -57.2193 -57.1811 -53.8949 -53.8572 -53.7763 -41.0194
   -41.0194 -41.0194 -40.9523 -40.9522 -40.9522 -40.9446 -40.9446 -40.9446
   -40.9446 -40.9446 -40.9446 -40.8777 -40.8776 -40.8775 -40.8775 -40.8774
   -40.8773 -40.8773 -40.8762 -40.8705 -40.8531 -40.8190 -40.8190 -40.8190
   -40.8190 -40.8190 -40.8190 -40.8117 -40.8117 -40.8117 -40.8117 -40.8117
   -40.8117 -40.8060 -40.8038 -40.7988 -40.7947 -40.7876 -40.7842 -40.7842
   -40.7842 -40.7842 -40.7842 -40.7842 -40.7803 -40.7789 -40.7700 -40.7700
   -40.7700 -40.7700 -40.7700 -40.7700 -40.7699 -40.7699 -40.7699 -40.7523
   -40.7521 -40.7521 -40.7520 -40.7520 -40.7519 -40.7465 -40.7463 -40.7462
   -40.7462 -40.7461 -40.7460 -40.7424 -40.7175 -40.7174 -40.7173 -40.7173
   -40.7172 -40.7171 -40.7163 -40.7064 -40.7064 -40.7064 -40.7050 -40.7048
   -40.7047 -40.7046 -40.7046 -40.7045 -40.7044 -40.7044 -40.7042 -40.6893
   -40.6834 -40.6817 -40.6808 -40.6801 -40.6780 -40.6755 -40.6699 -40.6667
   -40.6647 -40.6596 -40.6596 -40.6596 -40.6596 -40.6596 -40.6596 -40.6514
   -40.6494 -40.6482 -40.6449 -40.6437 -40.6396 -40.6395 -40.6395 -40.6387
   -40.6362 -40.6355 -40.6332 -40.6292 -40.6276 -40.6248 -40.6223 -40.6169
   -40.6167 -40.6160 -40.6123 -40.6123 -40.5931 -40.5928 -40.5928 -40.5927
   -40.5927 -40.5926 -40.5618 -40.5597 -40.5570 -40.5455 -40.5455 -40.5126
   -40.5114 -40.5065 -40.5049 -40.5009 -40.4976 -40.4525 -40.4479 -20.1352
   -20.0625 -19.9261 -19.4465 -19.2861 -19.2707 -19.2593 -19.2585 -19.2577
   -19.2499 -19.2328 -19.2179 -19.1601 -19.1513 -19.1445 -19.1039 -19.0898
   -19.0857 -19.0498 -19.0343 -19.0191 -18.8829 -18.7398 -18.6535 -18.5528
   -18.5484 -18.4977 -18.4727 -18.4656 -18.4609 -18.4336 -18.4111 -18.3851
   -18.3437 -18.3360 -18.3082 -18.2758 -18.2607 -18.2202 -18.2112 -18.2033
   -18.1692 -18.1571 -18.1536 -18.1527 -18.1527 -18.1522 -18.1522 -18.1511
   -18.1477 -18.1122 -18.1121 -18.1121 -18.0843 -18.0796 -18.0743 -18.0716
   -18.0677 -18.0649 -18.0573 -18.0402 -18.0400 -18.0361 -18.0173 -17.9932
   -17.9855 -17.9789 -17.9747 -17.9728 -17.9569 -17.9536 -17.9521 -17.9419
   -17.9322 -17.9285 -17.9268 -17.9257 -17.9234 -17.8987 -17.8935 -17.8890
   -17.8734 -17.8687 -17.8597 -17.8580 -17.8539 -17.8509 -17.8293 -17.8257
   -17.8182 -17.7963 -17.7868 -17.7818 -17.7753 -17.7737 -17.7663 -12.0539
   -11.9597 -11.8292 -11.7841 -11.7664 -11.7639 -11.7522 -11.6847 -11.6805
   -11.6719 -11.6353 -11.3708 -11.3385 -11.3171 -11.2446 -11.2178 -11.2157
   -11.2129 -11.2028 -11.1960 -11.1873 -11.1452 -11.1408 -11.1399 -11.1380
   -11.1359 -11.1307 -11.1103 -11.0506 -11.0385 -11.0182 -11.0110 -11.0006
   -10.9927 -10.9794 -10.9724 -10.9512 -10.9372 -10.9317 -10.9300 -10.9257
   -10.9219 -10.8968 -10.8962 -10.8689 -10.8596 -10.8524 -10.8463 -10.8438
   -10.8434 -10.8413 -10.8401 -10.8371 -10.8177 -10.8146 -10.8144 -10.8105
   -10.7976 -10.7946 -10.7924 -10.7906 -10.7895 -10.7742 -10.7582 -10.7386
   -10.7357 -10.7186 -10.7016 -10.6946 -10.6642 -10.6458 -10.6348 -10.6174
   -10.6110 -10.6072 -10.4576 -10.3830 -10.0774 -10.0614 -10.0603 -10.0475
   -10.0255  -9.9127  -9.9103  -9.8776  -9.8282  -9.8233  -9.7961  -9.7924
    -9.7883  -9.7838  -9.7696  -9.7532  -9.7406  -9.7218  -9.7079  -9.7042
    -9.6989  -9.6913  -9.6694  -9.6560  -9.6424  -9.6414  -9.6330  -9.6308
    -9.6221  -9.6163  -9.6009  -9.5885  -9.5871  -9.5862  -9.5853  -9.5832
    -9.5823  -9.5793  -9.5630  -9.5484  -9.5352  -9.5331  -9.5240  -9.4774
    -9.4684  -9.4514  -9.4482  -9.4448  -9.4408  -9.4071  -9.3760  -9.3721
    -9.3495  -9.3475  -9.3378  -9.3232  -9.3136  -9.2939  -9.2702  -9.2579
    -9.2382  -9.2319  -9.2136  -9.2052  -9.2030  -9.2010  -9.1847  -9.1242
    -9.1135  -9.0898  -9.0703  -9.0397  -9.0334  -9.0311  -9.0310  -9.0307
    -9.0246  -9.0228  -8.9877  -8.9682  -8.9543  -8.9532  -8.9499  -8.9267
    -8.8983  -8.8858  -8.8697  -8.8600  -8.8272  -8.8227  -8.8143  -8.8127
    -8.8110  -8.8061  -8.8020  -8.7949  -8.7897  -8.7680  -8.7612  -8.7494
    -8.7403  -8.7352  -8.7292  -8.7211  -8.7069  -8.7028  -8.5992  -8.4831
    -8.4603  -8.4421  -8.4421  -8.3695  -8.3695  -8.3453  -8.3305  -8.3301
    -8.3300  -8.3299  -8.3299  -8.3299  -8.3154  -8.2907  -8.2851  -8.2743
    -8.2616  -8.2587  -8.2522  -8.2517  -8.2489  -8.2449  -8.2225  -8.1974
    -8.1283  -8.0827  -8.0143  -7.9514  -7.9451  -7.9048  -7.8843  -7.7328
    -7.7028  -7.6831  -7.6556  -7.6125  -7.5958  -7.5947  -7.5946  -7.5944
    -7.5944  -7.5934  -7.5745  -7.5602  -7.5488  -7.5485  -7.5480  -7.5478
    -7.5475  -7.5465  -7.5276  -7.5234  -7.5209  -7.5172  -7.5137  -7.5111
    -7.5083  -7.5006  -7.4881  -7.4805  -7.4775  -7.4757  -7.4742  -7.4719
    -7.4642  -7.4587  -7.4533  -7.4438  -7.4332  -7.4322  -7.4307  -7.4296
    -7.4279  -7.4162  -7.3935  -7.3801  -7.3133  -7.3133  -7.2967  -7.2824
    -7.2567  -7.2529  -7.2437  -7.2395  -7.2292  -7.2019  -7.1867  -7.1429
    -7.0586  -7.0239  -6.9888  -6.9618  -6.9372  -6.8960  -6.8881  -6.8766
    -6.8428  -6.8260  -6.8140  -6.8080  -6.7998  -6.7647  -6.7119  -6.6781
    -6.6752  -6.6559  -6.6504  -6.6396  -6.6260  -6.6242  -6.6227  -6.6078
    -6.5648  -6.5517  -6.5355  -6.5327  -6.5293  -6.5194  -6.5173  -6.5118
    -6.5083  -6.4809  -6.4741  -6.4646  -6.4533  -6.4494  -6.4381  -6.4329
    -6.4307  -6.4200  -6.3891  -6.3802  -6.3612  -6.3612  -6.3612  -6.3612
    -6.3612  -6.3612  -6.3531  -6.3200  -6.3015  -6.2901  -6.2855  -6.2843
    -6.2825  -6.2810  -6.2803  -6.2666  -6.2453  -6.2246  -6.1883  -6.1754
    -6.0927  -5.9569  -5.8114  -5.7010  -5.5030  -5.4674  -5.3781  -5.3323
    -5.1388  -4.1668  -3.9083  -3.8469  -3.8459  -3.8424  -3.8390  -3.8200
    -3.8171  -3.8127  -3.8117  -3.8104  -3.8081  -3.7876  -3.7262  -3.6184
    -3.6153  -3.6015  -3.5953  -3.5920  -3.5861  -3.5816  -3.5778  -3.5766
    -3.5727  -3.5019  -3.5019  -3.5018  -3.4877  -3.4847  -3.4837  -3.4836
    -3.4819  -3.4815  -3.4437  -3.4348  -3.4345  -3.4345  -3.4232  -3.4102
    -3.4037  -3.3896  -3.3879  -3.3844  -3.3793  -3.3784  -3.3746  -3.3680
    -3.3666  -3.3515  -3.3501  -3.3459  -3.3388  -3.3160  -3.3034  -3.2834
    -3.2776  -3.2726  -3.2680  -3.2462  -3.2446  -3.2379  -3.2196  -3.2013
    -3.0364  -3.0361  -3.0360  -3.0303  -3.0299  -3.0225  -2.9769  -2.9668
    -2.9645  -2.9638  -2.9635  -2.9634  -2.9634  -2.9633  -2.9618  -2.9523
    -2.9444  -2.9428  -2.9397  -2.9366  -2.9123  -2.9091  -2.9021  -2.8992
    -2.8966  -2.8938  -2.8901  -2.8895  -2.8785  -2.8775  -2.8771  -2.8591
    -2.8561  -2.8245  -2.8226  -2.8135  -2.8091  -2.8042  -2.7937  -2.7727
    -2.7721  -2.7551  -2.7539  -2.7524  -2.7495  -2.7458  -2.7382  -2.7043
    -2.7032  -2.6999  -2.6758  -2.6565  -2.6434  -2.6381  -2.6341  -2.6211
    -2.6115  -2.5539  -2.5447  -2.5375  -2.5352  -2.5064  -2.4890  -2.4767
    -2.4624  -2.4592  -2.4544

          k = 0.0000-0.5773 0.0000 (321564 PWs)   bands (ev):

  -102.9863 -88.0407 -71.3083 -71.2958 -71.2864 -71.2741 -71.2665 -71.2597
   -71.2522 -66.6868 -66.6868 -66.6763 -66.6763 -66.6613 -66.6613 -66.6613
   -66.6613 -66.6569 -66.6569 -66.6507 -66.6507 -66.6507 -66.6507 -66.6463
   -66.6463 -66.6210 -66.6207 -66.6104 -66.6102 -66.5955 -66.5954 -66.5954
   -66.5951 -66.5911 -66.5908 -66.5849 -66.5849 -66.5847 -66.5844 -66.5804
   -66.5803 -66.5555 -66.5533 -66.5397 -66.5346 -66.5325 -66.5283 -66.5246
   -66.5192 -66.5151 -66.5096 -66.5023 -66.4960 -66.4919 -66.4875 -66.4804
   -66.4732 -57.2307 -57.2193 -57.1811 -53.8949 -53.8572 -53.7763 -40.9880
   -40.9880 -40.9880 -40.9880 -40.9613 -40.9613 -40.9494 -40.9494 -40.9210
   -40.9210 -40.9208 -40.9206 -40.8990 -40.8990 -40.8990 -40.8990 -40.8944
   -40.8941 -40.8824 -40.8822 -40.8517 -40.8507 -40.8414 -40.8410 -40.8410
   -40.8320 -40.8320 -40.8319 -40.8319 -40.8311 -40.8311 -40.8278 -40.8238
   -40.8207 -40.8203 -40.8203 -40.8015 -40.7909 -40.7909 -40.7909 -40.7909
   -40.7822 -40.7822 -40.7804 -40.7756 -40.7754 -40.7701 -40.7701 -40.7700
   -40.7700 -40.7700 -40.7700 -40.7642 -40.7641 -40.7614 -40.7614 -40.7557
   -40.7549 -40.7548 -40.7478 -40.7410 -40.7393 -40.7393 -40.7393 -40.7393
   -40.7384 -40.7317 -40.7255 -40.7255 -40.7255 -40.7253 -40.7169 -40.7167
   -40.7104 -40.7069 -40.7048 -40.7048 -40.7048 -40.7048 -40.7048 -40.7047
   -40.7045 -40.7043 -40.7032 -40.7031 -40.6960 -40.6959 -40.6927 -40.6927
   -40.6866 -40.6800 -40.6759 -40.6735 -40.6735 -40.6726 -40.6726 -40.6724
   -40.6723 -40.6721 -40.6634 -40.6621 -40.6569 -40.6566 -40.6566 -40.6533
   -40.6409 -40.6401 -40.6380 -40.6380 -40.6379 -40.6379 -40.6366 -40.6340
   -40.6274 -40.6262 -40.6262 -40.6261 -40.6258 -40.6250 -40.6229 -40.6189
   -40.6143 -40.6069 -40.6065 -40.5958 -40.5945 -40.5912 -40.5900 -40.5900
   -40.5898 -40.5631 -40.5596 -40.5593 -40.5539 -40.5505 -40.5482 -40.5378
   -40.5317 -40.5290 -40.5145 -40.5024 -40.4819 -40.4790 -40.4588 -19.9367
   -19.8896 -19.8645 -19.7840 -19.7081 -19.6635 -19.4670 -19.4563 -19.4142
   -19.3704 -19.2798 -19.2556 -18.9837 -18.8261 -18.8013 -18.7508 -18.7459
   -18.7452 -18.7413 -18.7324 -18.7042 -18.6683 -18.6423 -18.6215 -18.6166
   -18.6041 -18.5712 -18.5575 -18.5543 -18.5427 -18.4995 -18.4971 -18.4758
   -18.4643 -18.4305 -18.4185 -18.4038 -18.3962 -18.3796 -18.3249 -18.3193
   -18.2712 -18.2527 -18.2384 -18.2309 -18.2214 -18.1868 -18.1715 -18.1567
   -18.1329 -18.1329 -18.1327 -18.1325 -18.1277 -18.1112 -18.1076 -18.0789
   -18.0728 -18.0621 -18.0579 -18.0547 -18.0502 -18.0424 -18.0332 -18.0088
   -18.0007 -17.9912 -17.9856 -17.9800 -17.9755 -17.9521 -17.9484 -17.9439
   -17.9364 -17.9306 -17.9203 -17.8890 -17.8850 -17.8738 -17.8693 -17.8693
   -17.8651 -17.8233 -17.8207 -17.8094 -17.8093 -17.8050 -17.7933 -17.7929
   -17.7859 -17.7669 -17.7544 -17.7489 -17.7449 -17.6935 -17.6838 -11.9373
   -11.7593 -11.6864 -11.6417 -11.6021 -11.4924 -11.4811 -11.4804 -11.4776
   -11.4717 -11.4533 -11.4489 -11.4232 -11.3993 -11.3886 -11.3793 -11.3696
   -11.3548 -11.3283 -11.3181 -11.3040 -11.2935 -11.2890 -11.2738 -11.2701
   -11.2621 -11.2621 -11.2164 -11.2162 -11.2011 -11.1670 -11.1632 -11.1576
   -11.1562 -11.1103 -11.0721 -11.0167 -11.0017 -10.9822 -10.9792 -10.9648
   -10.9473 -10.9240 -10.9196 -10.9135 -10.9003 -10.8878 -10.8845 -10.8733
   -10.8439 -10.8410 -10.8363 -10.8349 -10.8346 -10.8309 -10.8231 -10.8063
   -10.7977 -10.7911 -10.7771 -10.7689 -10.7655 -10.7578 -10.7385 -10.6119
   -10.6054 -10.5872 -10.5458 -10.4979 -10.4916 -10.3943 -10.3663 -10.2805
   -10.2494 -10.1992 -10.1553 -10.1330 -10.1272 -10.1151 -10.0973 -10.0525
   -10.0375 -10.0113 -10.0076  -9.9631  -9.9580  -9.9415  -9.9399  -9.9378
    -9.9292  -9.9144  -9.9090  -9.8996  -9.8971  -9.8871  -9.8603  -9.8150
    -9.7953  -9.7871  -9.7640  -9.7627  -9.7494  -9.7401  -9.7329  -9.7167
    -9.7147  -9.7050  -9.7011  -9.6778  -9.6629  -9.6566  -9.6415  -9.6281
    -9.6204  -9.6160  -9.6079  -9.5682  -9.5498  -9.5364  -9.5338  -9.5222
    -9.5157  -9.4765  -9.4748  -9.4660  -9.4341  -9.3781  -9.3310  -9.3182
    -9.3069  -9.2722  -9.2190  -9.2026  -9.1955  -9.1779  -9.1649  -9.1573
    -9.1449  -9.1319  -9.1297  -9.1154  -9.0951  -9.0825  -9.0566  -9.0472
    -9.0318  -9.0217  -9.0168  -9.0165  -9.0043  -8.9915  -8.9823  -8.9716
    -8.9606  -8.9532  -8.9486  -8.9374  -8.9372  -8.9330  -8.9227  -8.9058
    -8.8951  -8.8752  -8.8652  -8.8626  -8.8553  -8.8524  -8.8483  -8.8448
    -8.8440  -8.8346  -8.8269  -8.8230  -8.8126  -8.8061  -8.7830  -8.7713
    -8.7677  -8.7560  -8.7471  -8.7300  -8.7079  -8.6577  -8.5520  -8.5311
    -8.5170  -8.5144  -8.4380  -8.4343  -8.4290  -8.3609  -8.3533  -8.2733
    -8.1985  -8.1985  -8.1920  -8.1524  -8.1264  -8.1258  -8.1112  -8.0579
    -8.0208  -8.0120  -7.9762  -7.9398  -7.9363  -7.9156  -7.8724  -7.8665
    -7.8633  -7.8587  -7.8518  -7.8518  -7.8515  -7.8494  -7.8458  -7.8363
    -7.8092  -7.8061  -7.8055  -7.8044  -7.7987  -7.7824  -7.7812  -7.7689
    -7.7644  -7.7584  -7.7527  -7.7432  -7.7404  -7.7327  -7.7283  -7.7239
    -7.7191  -7.7121  -7.7003  -7.6907  -7.6891  -7.6748  -7.6666  -7.6666
    -7.6631  -7.6587  -7.6371  -7.6282  -7.6216  -7.6140  -7.6049  -7.5970
    -7.5864  -7.5837  -7.5646  -7.5561  -7.5207  -7.5156  -7.4966  -7.4672
    -7.4288  -7.3911  -7.3058  -7.2673  -7.2528  -7.2462  -7.2299  -7.2078
    -7.1979  -7.1594  -7.1390  -7.1305  -7.1214  -7.0738  -7.0574  -7.0304
    -7.0201  -7.0136  -7.0115  -6.9935  -6.9551  -6.9541  -6.9424  -6.9323
    -6.9079  -6.9011  -6.8696  -6.8577  -6.8366  -6.8215  -6.8028  -6.7749
    -6.7240  -6.7133  -6.6934  -6.6637  -6.6635  -6.6635  -6.6634  -6.6570
    -6.6234  -6.6173  -6.6055  -6.5956  -6.5940  -6.5930  -6.5787  -6.5552
    -6.5430  -6.5350  -6.4776  -6.4602  -6.4445  -6.4026  -6.3968  -6.3629
    -6.3328  -6.3317  -6.3316  -6.3303  -6.3127  -6.2718  -6.2674  -6.2547
    -6.2516  -6.2475  -6.2442  -6.2380  -6.2160  -6.2079  -6.2042  -6.1565
    -6.1345  -6.0029  -5.9834  -5.9833  -5.9208  -5.9137  -5.9007  -5.8938
    -5.8172  -5.7489  -5.6575  -5.6211  -5.5767  -5.5329  -5.4491  -5.3809
    -5.2991  -4.1939  -4.0406  -4.0265  -4.0180  -3.9934  -3.8989  -3.8988
    -3.8883  -3.8645  -3.8386  -3.8340  -3.8333  -3.7871  -3.7768  -3.7656
    -3.7551  -3.7303  -3.6905  -3.6344  -3.6088  -3.6025  -3.6007  -3.5972
    -3.5893  -3.5845  -3.5843  -3.5588  -3.5522  -3.5258  -3.5079  -3.5048
    -3.4973  -3.4862  -3.4803  -3.4770  -3.4705  -3.4670  -3.4652  -3.4238
    -3.4176  -3.4090  -3.3783  -3.3707  -3.3590  -3.3519  -3.3516  -3.3404
    -3.3232  -3.3195  -3.3181  -3.3105  -3.2907  -3.2790  -3.2756  -3.2750
    -3.2739  -3.2734  -3.2503  -3.2415  -3.2382  -3.2342  -3.2273  -3.2143
    -3.2075  -3.2047  -3.1987  -3.1961  -3.1874  -3.1589  -3.1363  -3.1226
    -3.1153  -3.1033  -3.0888  -3.0724  -3.0704  -3.0417  -3.0356  -3.0320
    -3.0294  -3.0126  -3.0119  -3.0117  -3.0112  -2.9812  -2.9714  -2.9645
    -2.9625  -2.9493  -2.9379  -2.9367  -2.9244  -2.9199  -2.9140  -2.9076
    -2.9009  -2.8940  -2.8861  -2.8775  -2.8691  -2.8594  -2.8460  -2.8364
    -2.8267  -2.8117  -2.8023  -2.7991  -2.7958  -2.7392  -2.7326  -2.7110
    -2.7031  -2.6672  -2.6497  -2.6494  -2.6428  -2.6311  -2.6301  -2.5705
    -2.5634  -2.5230  -2.5121  -2.5026  -2.4947  -2.4904  -2.4575  -2.3715
    -2.3501  -2.3373  -2.2839

          k =-0.5000-0.2887 0.0000 (321564 PWs)   bands (ev):

  -102.9863 -88.0407 -71.3083 -71.2958 -71.2864 -71.2741 -71.2665 -71.2597
   -71.2522 -66.6868 -66.6868 -66.6763 -66.6763 -66.6613 -66.6613 -66.6613
   -66.6613 -66.6569 -66.6569 -66.6507 -66.6507 -66.6507 -66.6507 -66.6463
   -66.6463 -66.6209 -66.6208 -66.6104 -66.6102 -66.5955 -66.5954 -66.5954
   -66.5951 -66.5910 -66.5909 -66.5849 -66.5848 -66.5847 -66.5846 -66.5804
   -66.5802 -66.5561 -66.5525 -66.5391 -66.5356 -66.5326 -66.5293 -66.5233
   -66.5187 -66.5150 -66.5103 -66.5021 -66.4961 -66.4921 -66.4873 -66.4804
   -66.4732 -57.2307 -57.2193 -57.1811 -53.8949 -53.8572 -53.7763 -40.9880
   -40.9880 -40.9880 -40.9880 -40.9613 -40.9613 -40.9494 -40.9494 -40.9209
   -40.9209 -40.9208 -40.9208 -40.8990 -40.8990 -40.8990 -40.8990 -40.8943
   -40.8942 -40.8824 -40.8822 -40.8559 -40.8480 -40.8427 -40.8410 -40.8410
   -40.8320 -40.8320 -40.8319 -40.8319 -40.8311 -40.8311 -40.8252 -40.8235
   -40.8203 -40.8203 -40.8194 -40.7992 -40.7909 -40.7909 -40.7909 -40.7909
   -40.7829 -40.7822 -40.7822 -40.7756 -40.7755 -40.7701 -40.7700 -40.7700
   -40.7700 -40.7700 -40.7700 -40.7642 -40.7641 -40.7614 -40.7613 -40.7549
   -40.7548 -40.7521 -40.7493 -40.7442 -40.7402 -40.7393 -40.7393 -40.7393
   -40.7393 -40.7310 -40.7256 -40.7255 -40.7255 -40.7252 -40.7168 -40.7168
   -40.7134 -40.7048 -40.7048 -40.7048 -40.7048 -40.7047 -40.7046 -40.7045
   -40.7044 -40.7032 -40.7031 -40.7029 -40.6960 -40.6959 -40.6927 -40.6927
   -40.6853 -40.6800 -40.6773 -40.6759 -40.6735 -40.6735 -40.6726 -40.6725
   -40.6724 -40.6723 -40.6637 -40.6604 -40.6566 -40.6566 -40.6533 -40.6516
   -40.6453 -40.6404 -40.6381 -40.6380 -40.6379 -40.6379 -40.6370 -40.6319
   -40.6292 -40.6262 -40.6262 -40.6259 -40.6259 -40.6248 -40.6229 -40.6183
   -40.6146 -40.6068 -40.6066 -40.5966 -40.5960 -40.5910 -40.5900 -40.5898
   -40.5863 -40.5607 -40.5595 -40.5594 -40.5553 -40.5501 -40.5469 -40.5408
   -40.5294 -40.5288 -40.5174 -40.5007 -40.4844 -40.4795 -40.4571 -19.9331
   -19.8902 -19.8636 -19.7900 -19.7083 -19.6697 -19.4596 -19.4578 -19.3963
   -19.3784 -19.2750 -19.2603 -18.9974 -18.8344 -18.7953 -18.7522 -18.7455
   -18.7454 -18.7412 -18.7359 -18.7003 -18.6625 -18.6419 -18.6245 -18.6132
   -18.5988 -18.5711 -18.5566 -18.5534 -18.5463 -18.4980 -18.4975 -18.4684
   -18.4623 -18.4400 -18.4149 -18.4042 -18.3949 -18.3795 -18.3210 -18.3080
   -18.2950 -18.2540 -18.2439 -18.2264 -18.2240 -18.1897 -18.1725 -18.1466
   -18.1331 -18.1328 -18.1326 -18.1326 -18.1307 -18.1106 -18.1063 -18.0762
   -18.0729 -18.0617 -18.0566 -18.0555 -18.0491 -18.0421 -18.0359 -18.0069
   -18.0018 -17.9961 -17.9822 -17.9801 -17.9756 -17.9519 -17.9469 -17.9431
   -17.9377 -17.9308 -17.9211 -17.8881 -17.8836 -17.8744 -17.8693 -17.8693
   -17.8656 -17.8235 -17.8187 -17.8099 -17.8094 -17.8049 -17.7942 -17.7929
   -17.7873 -17.7683 -17.7542 -17.7490 -17.7437 -17.6928 -17.6842 -11.9216
   -11.7587 -11.6855 -11.6524 -11.6299 -11.4884 -11.4837 -11.4785 -11.4766
   -11.4658 -11.4553 -11.4525 -11.4359 -11.4017 -11.3835 -11.3790 -11.3709
   -11.3517 -11.3464 -11.3257 -11.3105 -11.2885 -11.2870 -11.2622 -11.2621
   -11.2556 -11.2481 -11.2164 -11.2162 -11.1947 -11.1625 -11.1616 -11.1580
   -11.1566 -11.1022 -11.0560 -11.0216 -11.0169 -10.9890 -10.9728 -10.9686
   -10.9487 -10.9246 -10.9224 -10.9109 -10.9030 -10.8881 -10.8755 -10.8640
   -10.8597 -10.8371 -10.8363 -10.8350 -10.8346 -10.8278 -10.8208 -10.8164
   -10.8076 -10.7929 -10.7716 -10.7679 -10.7673 -10.7590 -10.7060 -10.6278
   -10.5854 -10.5795 -10.5403 -10.5020 -10.4936 -10.4165 -10.3760 -10.3067
   -10.2751 -10.1752 -10.1454 -10.1299 -10.1228 -10.1030 -10.0911 -10.0473
   -10.0250 -10.0213 -10.0115  -9.9666  -9.9500  -9.9441  -9.9413  -9.9365
    -9.9301  -9.9120  -9.9057  -9.9043  -9.8977  -9.8825  -9.8756  -9.8189
    -9.8055  -9.7810  -9.7643  -9.7597  -9.7550  -9.7376  -9.7206  -9.7176
    -9.7132  -9.7043  -9.7020  -9.6754  -9.6617  -9.6577  -9.6456  -9.6316
    -9.6184  -9.6132  -9.6114  -9.5642  -9.5410  -9.5374  -9.5346  -9.5255
    -9.5143  -9.4797  -9.4764  -9.4738  -9.4468  -9.3855  -9.3486  -9.3286
    -9.3022  -9.2720  -9.2151  -9.1998  -9.1930  -9.1766  -9.1578  -9.1441
    -9.1421  -9.1376  -9.1308  -9.1150  -9.0932  -9.0857  -9.0509  -9.0476
    -9.0330  -9.0310  -9.0210  -9.0028  -8.9968  -8.9918  -8.9806  -8.9671
    -8.9585  -8.9504  -8.9405  -8.9371  -8.9349  -8.9325  -8.9291  -8.9026
    -8.8988  -8.8747  -8.8634  -8.8623  -8.8582  -8.8499  -8.8453  -8.8438
    -8.8428  -8.8371  -8.8288  -8.8196  -8.8143  -8.8001  -8.7950  -8.7733
    -8.7678  -8.7613  -8.7473  -8.7280  -8.7092  -8.6462  -8.5656  -8.5309
    -8.5171  -8.5154  -8.4388  -8.4313  -8.4259  -8.3893  -8.3198  -8.2888
    -8.1986  -8.1985  -8.1644  -8.1330  -8.1271  -8.1260  -8.1028  -8.0913
    -8.0688  -7.9951  -7.9624  -7.9380  -7.9360  -7.8974  -7.8698  -7.8665
    -7.8599  -7.8590  -7.8520  -7.8518  -7.8518  -7.8506  -7.8425  -7.8402
    -7.8107  -7.8058  -7.8053  -7.8030  -7.7985  -7.7830  -7.7813  -7.7711
    -7.7651  -7.7600  -7.7518  -7.7503  -7.7345  -7.7319  -7.7290  -7.7257
    -7.7195  -7.7087  -7.6994  -7.6983  -7.6890  -7.6727  -7.6666  -7.6666
    -7.6614  -7.6544  -7.6418  -7.6318  -7.6258  -7.6062  -7.6019  -7.5978
    -7.5968  -7.5861  -7.5535  -7.5501  -7.5317  -7.5172  -7.5144  -7.4632
    -7.4470  -7.3677  -7.3413  -7.2818  -7.2613  -7.2427  -7.2391  -7.2208
    -7.1972  -7.1402  -7.1313  -7.1195  -7.1082  -7.0787  -7.0551  -7.0198
    -7.0145  -7.0083  -7.0018  -6.9814  -6.9580  -6.9532  -6.9439  -6.9120
    -6.9057  -6.8913  -6.8843  -6.8571  -6.8411  -6.8333  -6.8067  -6.7595
    -6.7256  -6.6971  -6.6825  -6.6638  -6.6635  -6.6635  -6.6634  -6.6588
    -6.6354  -6.6218  -6.5992  -6.5955  -6.5945  -6.5907  -6.5865  -6.5585
    -6.5459  -6.5296  -6.5150  -6.4675  -6.4462  -6.4333  -6.4025  -6.3539
    -6.3326  -6.3320  -6.3315  -6.3301  -6.3002  -6.2675  -6.2626  -6.2564
    -6.2489  -6.2451  -6.2435  -6.2282  -6.2114  -6.2050  -6.1840  -6.1638
    -6.1352  -5.9834  -5.9834  -5.9748  -5.9480  -5.9139  -5.9040  -5.8958
    -5.8369  -5.7521  -5.6564  -5.6242  -5.5710  -5.5275  -5.4576  -5.3626
    -5.3040  -4.2000  -4.0375  -4.0259  -4.0218  -3.9944  -3.8989  -3.8988
    -3.8906  -3.8614  -3.8343  -3.8339  -3.8300  -3.7850  -3.7806  -3.7661
    -3.7572  -3.7290  -3.6842  -3.6289  -3.6068  -3.6016  -3.5996  -3.5975
    -3.5856  -3.5844  -3.5842  -3.5558  -3.5506  -3.5234  -3.5095  -3.5076
    -3.5017  -3.4844  -3.4787  -3.4749  -3.4733  -3.4682  -3.4665  -3.4234
    -3.4124  -3.4038  -3.3759  -3.3650  -3.3622  -3.3528  -3.3518  -3.3438
    -3.3234  -3.3200  -3.3143  -3.3122  -3.3081  -3.2824  -3.2755  -3.2751
    -3.2748  -3.2732  -3.2561  -3.2417  -3.2378  -3.2302  -3.2179  -3.2132
    -3.2099  -3.2039  -3.1977  -3.1895  -3.1858  -3.1748  -3.1406  -3.1238
    -3.1134  -3.1059  -3.0904  -3.0726  -3.0699  -3.0410  -3.0345  -3.0298
    -3.0265  -3.0125  -3.0121  -3.0117  -3.0113  -2.9830  -2.9732  -2.9649
    -2.9625  -2.9502  -2.9440  -2.9339  -2.9239  -2.9208  -2.9186  -2.9123
    -2.9020  -2.8936  -2.8868  -2.8746  -2.8715  -2.8629  -2.8383  -2.8327
    -2.8295  -2.8099  -2.8042  -2.8022  -2.7911  -2.7370  -2.7320  -2.7077
    -2.7043  -2.6599  -2.6520  -2.6496  -2.6435  -2.6335  -2.6269  -2.5705
    -2.5628  -2.5221  -2.5136  -2.5011  -2.4959  -2.4850  -2.4553  -2.3666
    -2.3491  -2.3100  -2.2933

          k =-0.5000-0.8660 0.0000 (321564 PWs)   bands (ev):

  -102.9863 -88.0407 -71.3083 -71.2958 -71.2864 -71.2741 -71.2665 -71.2597
   -71.2522 -66.6868 -66.6868 -66.6763 -66.6763 -66.6613 -66.6613 -66.6613
   -66.6613 -66.6569 -66.6569 -66.6507 -66.6507 -66.6507 -66.6507 -66.6463
   -66.6463 -66.6209 -66.6207 -66.6104 -66.6102 -66.5955 -66.5955 -66.5954
   -66.5951 -66.5910 -66.5908 -66.5850 -66.5847 -66.5847 -66.5845 -66.5804
   -66.5803 -66.5574 -66.5497 -66.5409 -66.5374 -66.5332 -66.5252 -66.5241
   -66.5189 -66.5153 -66.5107 -66.5019 -66.4961 -66.4923 -66.4873 -66.4802
   -66.4733 -57.2307 -57.2193 -57.1811 -53.8949 -53.8572 -53.7763 -40.9880
   -40.9880 -40.9880 -40.9880 -40.9614 -40.9613 -40.9494 -40.9494 -40.9211
   -40.9208 -40.9208 -40.9207 -40.8990 -40.8990 -40.8990 -40.8990 -40.8943
   -40.8942 -40.8824 -40.8822 -40.8613 -40.8458 -40.8410 -40.8410 -40.8367
   -40.8320 -40.8320 -40.8319 -40.8319 -40.8311 -40.8311 -40.8262 -40.8206
   -40.8203 -40.8203 -40.8164 -40.8027 -40.7909 -40.7909 -40.7909 -40.7909
   -40.7876 -40.7822 -40.7822 -40.7756 -40.7754 -40.7701 -40.7700 -40.7700
   -40.7700 -40.7700 -40.7700 -40.7642 -40.7641 -40.7614 -40.7613 -40.7549
   -40.7548 -40.7520 -40.7509 -40.7490 -40.7409 -40.7393 -40.7393 -40.7393
   -40.7393 -40.7276 -40.7256 -40.7255 -40.7254 -40.7253 -40.7169 -40.7167
   -40.7140 -40.7049 -40.7048 -40.7048 -40.7048 -40.7048 -40.7045 -40.7045
   -40.7044 -40.7032 -40.7031 -40.7012 -40.6960 -40.6959 -40.6927 -40.6927
   -40.6868 -40.6787 -40.6773 -40.6735 -40.6735 -40.6733 -40.6725 -40.6725
   -40.6724 -40.6723 -40.6633 -40.6582 -40.6566 -40.6566 -40.6549 -40.6493
   -40.6467 -40.6412 -40.6381 -40.6380 -40.6379 -40.6379 -40.6359 -40.6343
   -40.6286 -40.6262 -40.6262 -40.6260 -40.6258 -40.6237 -40.6218 -40.6179
   -40.6150 -40.6068 -40.6066 -40.6004 -40.5957 -40.5903 -40.5899 -40.5898
   -40.5813 -40.5611 -40.5595 -40.5593 -40.5542 -40.5521 -40.5492 -40.5416
   -40.5273 -40.5251 -40.5219 -40.5036 -40.4854 -40.4809 -40.4532 -19.9415
   -19.8889 -19.8655 -19.7780 -19.7080 -19.6558 -19.4678 -19.4575 -19.4147
   -19.3787 -19.2798 -19.2608 -18.9836 -18.8192 -18.8017 -18.7489 -18.7469
   -18.7451 -18.7411 -18.7321 -18.7038 -18.6650 -18.6455 -18.6217 -18.6175
   -18.5967 -18.5789 -18.5550 -18.5471 -18.5448 -18.4991 -18.4972 -18.4752
   -18.4576 -18.4312 -18.4145 -18.4053 -18.3996 -18.3709 -18.3368 -18.3068
   -18.2833 -18.2701 -18.2383 -18.2256 -18.2224 -18.1987 -18.1795 -18.1432
   -18.1328 -18.1327 -18.1326 -18.1325 -18.1258 -18.1173 -18.1067 -18.0928
   -18.0696 -18.0580 -18.0569 -18.0537 -18.0515 -18.0461 -18.0175 -18.0167
   -17.9993 -17.9934 -17.9841 -17.9770 -17.9757 -17.9534 -17.9457 -17.9419
   -17.9323 -17.9304 -17.9169 -17.8935 -17.8821 -17.8693 -17.8693 -17.8671
   -17.8648 -17.8260 -17.8187 -17.8097 -17.8094 -17.7945 -17.7931 -17.7897
   -17.7875 -17.7727 -17.7628 -17.7491 -17.7476 -17.6912 -17.6868 -11.9537
   -11.7806 -11.6829 -11.6383 -11.5858 -11.4805 -11.4802 -11.4774 -11.4770
   -11.4640 -11.4558 -11.4370 -11.4053 -11.3979 -11.3912 -11.3813 -11.3709
   -11.3432 -11.3240 -11.3132 -11.3039 -11.2966 -11.2880 -11.2795 -11.2622
   -11.2621 -11.2556 -11.2168 -11.2164 -11.2097 -11.1751 -11.1627 -11.1564
   -11.1563 -11.1190 -11.0898 -11.0076 -11.0024 -10.9877 -10.9769 -10.9716
   -10.9484 -10.9236 -10.9211 -10.9176 -10.9026 -10.8892 -10.8811 -10.8689
   -10.8517 -10.8406 -10.8364 -10.8356 -10.8349 -10.8327 -10.8289 -10.8127
   -10.8031 -10.7833 -10.7719 -10.7690 -10.7635 -10.7589 -10.6958 -10.6488
   -10.5951 -10.5886 -10.5777 -10.4989 -10.4928 -10.4008 -10.3693 -10.2980
   -10.2340 -10.1690 -10.1373 -10.1325 -10.1282 -10.1020 -10.0701 -10.0571
   -10.0398 -10.0279 -10.0055  -9.9814  -9.9470  -9.9461  -9.9418  -9.9340
    -9.9315  -9.9261  -9.9193  -9.9013  -9.8969  -9.8893  -9.8769  -9.8252
    -9.8006  -9.7902  -9.7862  -9.7622  -9.7522  -9.7408  -9.7243  -9.7171
    -9.7163  -9.7066  -9.7011  -9.6720  -9.6700  -9.6523  -9.6482  -9.6450
    -9.6218  -9.6159  -9.6063  -9.5895  -9.5489  -9.5365  -9.5349  -9.5240
    -9.5068  -9.4758  -9.4743  -9.4565  -9.4375  -9.3547  -9.3342  -9.2941
    -9.2782  -9.2638  -9.2153  -9.2036  -9.1964  -9.1725  -9.1507  -9.1423
    -9.1375  -9.1323  -9.1315  -9.1133  -9.0907  -9.0821  -9.0680  -9.0426
    -9.0417  -9.0283  -9.0233  -9.0118  -9.0032  -8.9910  -8.9730  -8.9692
    -8.9524  -8.9513  -8.9464  -8.9398  -8.9368  -8.9324  -8.9183  -8.9103
    -8.8982  -8.8801  -8.8753  -8.8634  -8.8629  -8.8583  -8.8488  -8.8449
    -8.8441  -8.8399  -8.8303  -8.8195  -8.8078  -8.7931  -8.7782  -8.7737
    -8.7678  -8.7541  -8.7449  -8.7279  -8.7140  -8.6350  -8.5505  -8.5380
    -8.5170  -8.5150  -8.4369  -8.4324  -8.4171  -8.3716  -8.3301  -8.2544
    -8.2095  -8.1985  -8.1985  -8.1837  -8.1268  -8.1258  -8.1168  -8.0856
    -8.0680  -7.9857  -7.9558  -7.9392  -7.9362  -7.9244  -7.8732  -7.8663
    -7.8632  -7.8586  -7.8533  -7.8518  -7.8518  -7.8506  -7.8495  -7.8328
    -7.8088  -7.8062  -7.8055  -7.8051  -7.7913  -7.7836  -7.7816  -7.7726
    -7.7647  -7.7635  -7.7568  -7.7498  -7.7356  -7.7338  -7.7280  -7.7234
    -7.7176  -7.7072  -7.7013  -7.6939  -7.6857  -7.6816  -7.6667  -7.6666
    -7.6622  -7.6580  -7.6516  -7.6357  -7.6277  -7.6106  -7.6001  -7.5977
    -7.5922  -7.5772  -7.5661  -7.5497  -7.5303  -7.5282  -7.4693  -7.4611
    -7.4431  -7.3775  -7.3291  -7.2781  -7.2600  -7.2434  -7.2368  -7.2243
    -7.1868  -7.1769  -7.1358  -7.1242  -7.1107  -7.0675  -7.0536  -7.0196
    -7.0136  -7.0123  -6.9891  -6.9680  -6.9659  -6.9500  -6.9479  -6.9398
    -6.9071  -6.8918  -6.8522  -6.8407  -6.8335  -6.8227  -6.8029  -6.7458
    -6.7330  -6.6986  -6.6647  -6.6635  -6.6635  -6.6634  -6.6606  -6.6475
    -6.6316  -6.6242  -6.6065  -6.5982  -6.5957  -6.5914  -6.5900  -6.5766
    -6.5510  -6.5309  -6.5120  -6.4699  -6.4405  -6.4354  -6.4109  -6.3326
    -6.3322  -6.3316  -6.3314  -6.3207  -6.2844  -6.2688  -6.2672  -6.2581
    -6.2507  -6.2492  -6.2471  -6.2380  -6.2240  -6.1965  -6.1942  -6.1563
    -6.1427  -6.0941  -5.9836  -5.9833  -5.9775  -5.9069  -5.9051  -5.8471
    -5.7778  -5.7616  -5.6552  -5.6516  -5.5390  -5.5172  -5.4541  -5.3568
    -5.3053  -4.1783  -4.0440  -4.0203  -4.0193  -3.9865  -3.8993  -3.8989
    -3.8983  -3.8651  -3.8366  -3.8337  -3.8316  -3.7787  -3.7699  -3.7649
    -3.7620  -3.7181  -3.6954  -3.6352  -3.6076  -3.6034  -3.5996  -3.5989
    -3.5845  -3.5842  -3.5824  -3.5605  -3.5440  -3.5199  -3.5111  -3.5056
    -3.5034  -3.4880  -3.4818  -3.4806  -3.4754  -3.4668  -3.4656  -3.4321
    -3.4246  -3.4114  -3.3903  -3.3715  -3.3588  -3.3542  -3.3516  -3.3516
    -3.3223  -3.3209  -3.3197  -3.3105  -3.2880  -3.2784  -3.2755  -3.2749
    -3.2746  -3.2716  -3.2551  -3.2466  -3.2354  -3.2287  -3.2277  -3.2103
    -3.2099  -3.2053  -3.2018  -3.1963  -3.1884  -3.1581  -3.1458  -3.1247
    -3.1149  -3.1074  -3.0883  -3.0724  -3.0698  -3.0369  -3.0328  -3.0299
    -3.0252  -3.0140  -3.0121  -3.0118  -3.0113  -2.9848  -2.9773  -2.9650
    -2.9623  -2.9505  -2.9469  -2.9375  -2.9269  -2.9173  -2.9157  -2.9134
    -2.8998  -2.8955  -2.8891  -2.8818  -2.8651  -2.8634  -2.8459  -2.8354
    -2.8143  -2.8023  -2.8018  -2.7973  -2.7900  -2.7417  -2.7326  -2.7132
    -2.7039  -2.6567  -2.6505  -2.6490  -2.6412  -2.6324  -2.6268  -2.5689
    -2.5631  -2.5176  -2.5104  -2.5024  -2.4890  -2.4863  -2.4507  -2.3673
    -2.3571  -2.3460  -2.3004

     the Fermi energy is    -4.6768 ev

!    total energy              =  -26031.79512087 Ry
     total all-electron energy =   -512284.364748 Ry
     estimated scf accuracy    <       0.00000041 Ry
     smearing contrib. (-TS)   =      -0.00000003 Ry
     internal energy E=F+TS    =  -26031.79512085 Ry

     The total energy is F=E-TS. E is the sum of the following terms:
     one-electron contribution =  491812.76221578 Ry
     hartree contribution      = -246048.61975046 Ry
     xc contribution           =   -1534.62198313 Ry
     ewald contribution        = -254068.56177628 Ry
     DFT-D3 Dispersion         =      -4.02100517 Ry
     one-center paw contrib.   =  -16188.73282158 Ry

     convergence has been achieved in  28 iterations

     negative rho (up, down):  9.217E-04 0.000E+00

     Forces acting on atoms (cartesian axes, Ry/au):

     atom    1 type  1   force =    -0.00118951    0.00030956   -0.01979577
     atom    2 type  1   force =    -0.00000503    0.00001100    0.00189983
     atom    3 type  1   force =     0.00000814   -0.00001813   -0.00002132
     atom    4 type  2   force =    -0.00000036   -0.00000040   -0.00332421
     atom    5 type  2   force =     0.00000198    0.00000159   -0.00003692
     atom    6 type  2   force =     0.00012931    0.00008925    0.00230273
     atom    7 type  2   force =     0.00000653    0.00000011    0.00155238
     atom    8 type  2   force =     0.00002642   -0.00001512    0.00009326
     atom    9 type  2   force =    -0.00780203   -0.00686913    0.01659831
     atom   10 type  1   force =    -0.00025867    0.00347958    0.00223256
     atom   11 type  1   force =     0.00000849   -0.00001603    0.00188401
     atom   12 type  1   force =    -0.00004718    0.00001132    0.00000796
     atom   13 type  2   force =     0.00000603   -0.00000111   -0.00332305
     atom   14 type  2   force =    -0.00001953   -0.00001332   -0.00002444
     atom   15 type  2   force =    -0.00075217    0.00023397   -0.00142722
     atom   16 type  2   force =     0.00000172   -0.00000142    0.00157055
     atom   17 type  2   force =    -0.00003213   -0.00001234    0.00006069
     atom   18 type  2   force =     0.00004534   -0.00035675   -0.00109226
     atom   19 type  1   force =     0.00030185   -0.00025439    0.00045115
     atom   20 type  1   force =    -0.00000635   -0.00000397    0.00189364
     atom   21 type  1   force =     0.00000817    0.00004007   -0.00003786
     atom   22 type  2   force =    -0.00000210    0.00000223   -0.00332806
     atom   23 type  2   force =     0.00000473   -0.00000002   -0.00004831
     atom   24 type  2   force =     0.00004681    0.00013824   -0.00024672
     atom   25 type  2   force =    -0.00000740    0.00000160    0.00155375
     atom   26 type  2   force =    -0.00000858    0.00002644    0.00004944
     atom   27 type  2   force =     0.00020062    0.00040233   -0.00013662
     atom   28 type  1   force =     0.00160264   -0.00129584   -0.00170376
     atom   29 type  1   force =    -0.00000687    0.00000474    0.00189401
     atom   30 type  1   force =    -0.00000276   -0.00004906    0.00000408
     atom   31 type  2   force =    -0.00000111    0.00000110   -0.00332882
     atom   32 type  2   force =    -0.00000296   -0.00000190   -0.00009933
     atom   33 type  2   force =     0.00012914   -0.00075424   -0.00108454
     atom   34 type  2   force =    -0.00000168   -0.00000426    0.00156416
     atom   35 type  2   force =    -0.00000861   -0.00001009    0.00001593
     atom   36 type  2   force =     0.00019005    0.00092135   -0.00059817
     atom   37 type  1   force =     0.00370303   -0.00141869   -0.00073110
     atom   38 type  1   force =    -0.00001222   -0.00000129    0.00189392
     atom   39 type  1   force =     0.00000389   -0.00001153   -0.00002810
     atom   40 type  2   force =     0.00000029   -0.00000274   -0.00332413
     atom   41 type  2   force =    -0.00000131    0.00000546   -0.00003721
     atom   42 type  2   force =     0.00087936    0.00007786    0.00221358
     atom   43 type  2   force =    -0.00000235    0.00000482    0.00155432
     atom   44 type  2   force =    -0.00002364    0.00000075    0.00009139
     atom   45 type  2   force =     0.00632148   -0.00541458    0.01559621
     atom   46 type  1   force =     0.00050279    0.00187404   -0.00507055
     atom   47 type  1   force =    -0.00000312   -0.00000138    0.00188661
     atom   48 type  1   force =     0.00000339   -0.00001576   -0.00002372
     atom   49 type  2   force =    -0.00000150   -0.00000145   -0.00331833
     atom   50 type  2   force =     0.00000188    0.00002908   -0.00003558
     atom   51 type  2   force =     0.00008322    0.00009272    0.00213832
     atom   52 type  2   force =     0.00000036    0.00000043    0.00154778
     atom   53 type  2   force =     0.00000742   -0.00001056    0.00004595
     atom   54 type  2   force =     0.00284239    0.01284573    0.00441848
     atom   55 type  1   force =     0.00010145   -0.00068979    0.00020020
     atom   56 type  1   force =     0.00001027   -0.00000608    0.00188582
     atom   57 type  1   force =    -0.00002416    0.00004748    0.00000036
     atom   58 type  2   force =     0.00000103   -0.00000338   -0.00332812
     atom   59 type  2   force =     0.00002572   -0.00001524   -0.00003263
     atom   60 type  2   force =    -0.00018664   -0.00055352   -0.00065788
     atom   61 type  2   force =     0.00000557   -0.00000598    0.00155107
     atom   62 type  2   force =     0.00000180   -0.00000493    0.00005698
     atom   63 type  2   force =     0.00024383   -0.00028018    0.00011386
     atom   64 type  1   force =    -0.00054481    0.00007862    0.00006584
     atom   65 type  1   force =    -0.00000887   -0.00000257    0.00189902
     atom   66 type  1   force =     0.00000087   -0.00003063   -0.00002605
     atom   67 type  2   force =    -0.00000786    0.00000173   -0.00333173
     atom   68 type  2   force =     0.00000319   -0.00000522   -0.00004583
     atom   69 type  2   force =    -0.00021073   -0.00013254   -0.00007822
     atom   70 type  2   force =    -0.00000305   -0.00000178    0.00156348
     atom   71 type  2   force =    -0.00000905   -0.00001568    0.00002456
     atom   72 type  2   force =    -0.00001340   -0.00013137    0.00040405
     atom   73 type  1   force =     0.00030092    0.00004516    0.00044254
     atom   74 type  1   force =    -0.00000694    0.00000810    0.00190447
     atom   75 type  1   force =     0.00003368   -0.00000657   -0.00001590
     atom   76 type  2   force =    -0.00000920    0.00000099   -0.00333525
     atom   77 type  2   force =     0.00004258    0.00002590   -0.00001209
     atom   78 type  2   force =    -0.00025567    0.00031638   -0.00023815
     atom   79 type  2   force =    -0.00000965    0.00000160    0.00155995
     atom   80 type  2   force =    -0.00004113   -0.00002409    0.00006603
     atom   81 type  2   force =     0.00062746    0.00003917    0.00008946
     atom   82 type  1   force =     0.00039216    0.00059501   -0.00003812
     atom   83 type  1   force =    -0.00001442    0.00000872    0.00189197
     atom   84 type  1   force =     0.00005185    0.00002456    0.00000421
     atom   85 type  2   force =    -0.00000187    0.00000157   -0.00332560
     atom   86 type  2   force =     0.00001844   -0.00000683   -0.00002983
     atom   87 type  2   force =     0.00125818    0.00007024   -0.00054788
     atom   88 type  2   force =    -0.00000133    0.00000507    0.00155782
     atom   89 type  2   force =     0.00002901   -0.00000653    0.00006888
     atom   90 type  2   force =    -0.00103749    0.00266173   -0.00502029
     atom   91 type  1   force =     0.00018447    0.00011101    0.00001577
     atom   92 type  1   force =     0.00000092   -0.00002190    0.00188638
     atom   93 type  1   force =     0.00003842    0.00002506   -0.00000577
     atom   94 type  2   force =     0.00000140   -0.00000141   -0.00332052
     atom   95 type  2   force =    -0.00001615   -0.00001734   -0.00003992
     atom   96 type  2   force =     0.00039113   -0.00028846    0.00032112
     atom   97 type  2   force =     0.00000409   -0.00000234    0.00155440
     atom   98 type  2   force =     0.00002549    0.00001042    0.00001196
     atom   99 type  2   force =     0.00132859   -0.00084743    0.00162529
     atom  100 type  1   force =     0.00055338    0.00013438   -0.00012337
     atom  101 type  1   force =     0.00000527   -0.00001038    0.00189405
     atom  102 type  1   force =    -0.00002038    0.00000762   -0.00000759
     atom  103 type  2   force =     0.00000298   -0.00000897   -0.00333105
     atom  104 type  2   force =     0.00000292    0.00001896   -0.00002536
     atom  105 type  2   force =    -0.00002654   -0.00002137   -0.00025282
     atom  106 type  2   force =     0.00000524   -0.00000811    0.00156000
     atom  107 type  2   force =     0.00000387    0.00001883    0.00006171
     atom  108 type  2   force =     0.00004896    0.00019255    0.00023824
     atom  109 type  1   force =    -0.00237501   -0.00071756   -0.00023294
     atom  110 type  1   force =     0.00001998    0.00000257    0.00188894
     atom  111 type  1   force =    -0.00003795    0.00000509    0.00009000
     atom  112 type  2   force =     0.00000328    0.00000341   -0.00333225
     atom  113 type  2   force =    -0.00004314    0.00002165   -0.00000981
     atom  114 type  2   force =     0.00009409    0.00035298   -0.00066117
     atom  115 type  2   force =     0.00000209    0.00000045    0.00157674
     atom  116 type  2   force =     0.00004885   -0.00002985    0.00013438
     atom  117 type  2   force =    -0.00029456   -0.00000878    0.00050038
     atom  118 type  1   force =    -0.00010321    0.00017418    0.00029213
     atom  119 type  1   force =     0.00000683    0.00000702    0.00189601
     atom  120 type  1   force =    -0.00000824   -0.00002079   -0.00004562
     atom  121 type  2   force =    -0.00000486    0.00000048   -0.00333661
     atom  122 type  2   force =    -0.00000109   -0.00005043   -0.00002996
[...]
     atom   69 type  2   force =     0.00004081   -0.00022666   -0.00057874
     atom   70 type  2   force =     0.00000089   -0.00000573    0.00149623
     atom   71 type  2   force =    -0.00001312    0.00000041    0.00002374
     atom   72 type  2   force =     0.00013915   -0.00027234   -0.00011002
     atom   73 type  1   force =     0.00006023   -0.00005310   -0.00006311
     atom   74 type  1   force =    -0.00000195    0.00000135    0.00190204
     atom   75 type  1   force =    -0.00000256    0.00000604   -0.00002643
     atom   76 type  2   force =    -0.00000125   -0.00000053   -0.00327930
     atom   77 type  2   force =     0.00001566   -0.00003887    0.00000371
     atom   78 type  2   force =     0.00033421   -0.00002137   -0.00027078
     atom   79 type  2   force =    -0.00000004    0.00000175    0.00150311
     atom   80 type  2   force =    -0.00000573    0.00003902    0.00000898
     atom   81 type  2   force =     0.00023531   -0.00004800   -0.00004546
     atom   82 type  1   force =     0.00010089    0.00002552   -0.00027409
     atom   83 type  1   force =    -0.00000145   -0.00000102    0.00189815
     atom   84 type  1   force =    -0.00000869    0.00000602   -0.00002002
     atom   85 type  2   force =    -0.00000081   -0.00000074   -0.00327923
     atom   86 type  2   force =    -0.00000608    0.00001757   -0.00002373
     atom   87 type  2   force =     0.00005145    0.00031399   -0.00030532
     atom   88 type  2   force =    -0.00000612    0.00000727    0.00149298
     atom   89 type  2   force =    -0.00002093   -0.00000462   -0.00001782
     atom   90 type  2   force =     0.00044982   -0.00008686   -0.00030534
     atom   91 type  1   force =    -0.00008721    0.00010838    0.00003681
     atom   92 type  1   force =    -0.00000220   -0.00000004    0.00189554
     atom   93 type  1   force =     0.00000751    0.00000415    0.00000965
     atom   94 type  2   force =    -0.00000104   -0.00000033   -0.00327965
     atom   95 type  2   force =     0.00000088    0.00000610   -0.00000234
     atom   96 type  2   force =     0.00020662    0.00037454   -0.00027743
     atom   97 type  2   force =    -0.00000354    0.00000066    0.00149343
     atom   98 type  2   force =    -0.00000199   -0.00002833    0.00001504
     atom   99 type  2   force =    -0.00015082    0.00006711   -0.00008870
     atom  100 type  1   force =    -0.00003252    0.00002818   -0.00001461
     atom  101 type  1   force =    -0.00000060   -0.00000119    0.00189866
     atom  102 type  1   force =     0.00000736   -0.00000466    0.00004406
     atom  103 type  2   force =    -0.00000125    0.00000003   -0.00327940
     atom  104 type  2   force =    -0.00001865    0.00001297    0.00001823
     atom  105 type  2   force =     0.00011792   -0.00006115   -0.00012820
     atom  106 type  2   force =     0.00000661   -0.00000593    0.00150290
     atom  107 type  2   force =     0.00002663   -0.00000514    0.00002468
     atom  108 type  2   force =     0.00001308   -0.00017978   -0.00014694
     atom  109 type  1   force =    -0.00023067    0.00016002    0.00006844
     atom  110 type  1   force =    -0.00000127   -0.00000037    0.00189936
     atom  111 type  1   force =    -0.00000565    0.00000397   -0.00001558
     atom  112 type  2   force =    -0.00000138   -0.00000040   -0.00327898
     atom  113 type  2   force =    -0.00000539   -0.00001135    0.00001214
     atom  114 type  2   force =    -0.00011026   -0.00006680   -0.00017143
     atom  115 type  2   force =    -0.00000064    0.00000023    0.00151763
     atom  116 type  2   force =    -0.00000513    0.00000745    0.00001649
     atom  117 type  2   force =    -0.00032867   -0.00007280    0.00020875
     atom  118 type  1   force =     0.00012527   -0.00003695   -0.00026003
     atom  119 type  1   force =    -0.00000284   -0.00000083    0.00190149
     atom  120 type  1   force =    -0.00000352   -0.00000348   -0.00000181
     atom  121 type  2   force =    -0.00000120   -0.00000055   -0.00327965
     atom  122 type  2   force =     0.00000539    0.00000407   -0.00000565
     atom  123 type  2   force =     0.00020788   -0.00006891   -0.00014243
     atom  124 type  2   force =    -0.00000125    0.00000189    0.00150458
     atom  125 type  2   force =     0.00000255   -0.00000823   -0.00000258
     atom  126 type  2   force =    -0.00010054    0.00013444   -0.00015780
     atom  127 type  1   force =    -0.00012744    0.00013260    0.00000190
     atom  128 type  1   force =    -0.00000205   -0.00000102    0.00190085
     atom  129 type  1   force =    -0.00000564   -0.00000820    0.00001837
     atom  130 type  2   force =    -0.00000089   -0.00000055   -0.00327867
     atom  131 type  2   force =    -0.00000595   -0.00000118   -0.00001119
     atom  132 type  2   force =    -0.00012400    0.00017992    0.00007509
     atom  133 type  2   force =    -0.00000758   -0.00000398    0.00150104
     atom  134 type  2   force =    -0.00001477   -0.00001352    0.00000484
     atom  135 type  2   force =    -0.00000567   -0.00014161   -0.00010177
     atom  136 type  1   force =    -0.00007992   -0.00011604    0.00010520
     atom  137 type  1   force =    -0.00000303   -0.00000058    0.00189981
     atom  138 type  1   force =    -0.00000552   -0.00000734    0.00000696
     atom  139 type  2   force =    -0.00000096   -0.00000018   -0.00327946
     atom  140 type  2   force =     0.00000619   -0.00000506    0.00001540
     atom  141 type  2   force =    -0.00017784    0.00004714   -0.00012888
     atom  142 type  2   force =    -0.00000544   -0.00000489    0.00149089
     atom  143 type  2   force =     0.00000606   -0.00000407    0.00001743
     atom  144 type  2   force =    -0.00035991   -0.00016494    0.00018243
     atom  145 type  3   force =    -0.00021436    0.00002642    0.00070738
     atom  146 type  4   force =    -0.00012575    0.00000934   -0.00029555

     Total force =     0.002876     Total SCF correction =     0.000240
     Energy error            =      1.8E-05 Ry
     Gradient error          =      7.7E-04 Ry/Bohr

     bfgs converged in  20 scf cycles and  19 bfgs steps
     (criteria: energy <  1.0E-04 Ry, force <  1.0E-03 Ry/Bohr)

     End of BFGS Geometry Optimization

     Final energy             =  -26031.8089109812 Ry

     File ./outdir/pwscf.bfgs deleted, as requested
Begin final coordinates

ATOMIC_POSITIONS (angstrom)
Mo               1.5657036617        2.7140631878        6.1256646216
Mo               1.5769197498        0.9104407117       -6.0872367793    0   0   0
Mo               0.0002740009        1.8209966512        0.0001977710
S                0.0000044503        0.0000077495       -7.6506323570    0   0   0
S                1.5765770638        0.9110986572       -1.5663087183
S                0.0134906314        1.8236345810        4.5434754999
S                0.0000053241        0.0000068460       -4.5222282367    0   0   0
S                1.5774528100        0.9100591533        1.5666131206
S               -0.0637127863        1.7766716178        7.7095169773
Mo              -0.0477742042        5.4888811139        6.0641288463
Mo               0.0000011799        3.6417399547       -6.0872367793    0   0   0
Mo              -1.5768491247        4.5520091058        0.0000184235
S               -1.5769141197        2.7313069925       -7.6506323570    0   0   0
S                0.0001388487        3.6417580622       -1.5652037238
S               -1.5918358884        4.5441313430        4.4954233565
S               -1.5769132459        2.7313060890       -4.5222282367    0   0   0
S                0.0006509914        3.6419149756        1.5680646591
S               -1.6051375211        4.5589166805        7.6385074811
Mo              -1.5802286591        8.1998687333        6.0679437414
Mo              -1.5769173901        6.3730391977       -6.0872367793    0   0   0
Mo              -3.1537902752        7.2834621469       -0.0018252905
S               -3.1538326896        5.4626062355       -7.6506323570    0   0   0
S               -1.5763555072        6.3724774896       -1.5662124963
S               -3.1605519111        7.2887375562        4.5025490554
S               -3.1538318159        5.4626053320       -4.5222282367    0   0   0
S               -1.5771783451        6.3735835334        1.5660996790
S               -3.1527707441        7.2821505579        7.6377065260
Mo               3.1600712063       -0.0139071045        6.0820685105
Mo              -3.1538359601        9.1043384407       -6.0872367793    0   0   0
Mo              -4.7309007666       10.0149280308       -0.0017108938
S               -4.7307512596        8.1939054785       -7.6506323570    0   0   0
S               -3.1539135884        9.1044133498       -1.5673658687
S               -4.7345914712       10.0155748780        4.5151235358
S               -4.7307503859        8.1939045750       -4.5222282367    0   0   0
S               -3.1539528641        9.1044947849        1.5647748914
S               -4.7267470215       10.0094807260        7.6496326256
Mo               4.7526286840        2.7139578730        6.0951704653
Mo               4.7307503218        0.9104407117       -6.0872367793    0   0   0
Mo               3.1535936120        1.8213021892       -0.0007852356
S                3.1538350223        0.0000077495       -7.6506323570    0   0   0
S                4.7308321502        0.9112765497       -1.5663575302
S                3.1448523667        1.8283691842        4.5486325229
S                3.1538358961        0.0000068460       -4.5222282367    0   0   0
S                4.7296949466        0.9104804438        1.5663688638
S                3.2280066740        1.7683974831        7.6850249137
Mo               3.1562029267        5.4724097169        6.1353827076
Mo               3.1538317519        3.6417399547       -6.0872367793    0   0   0
Mo               1.5771359405        4.5520714297        0.0002505918
S                1.5769164523        2.7313069925       -7.6506323570    0   0   0
S                3.1535325752        3.6420914603       -1.5660043432
S                1.5910271414        4.5506835485        4.5775235915
S                1.5769173261        2.7313060890       -4.5222282367    0   0   0
S                3.1540010509        3.6416587026        1.5676358232
S                1.4227573365        4.5927423150        7.6796241855
Mo               1.5708723917        8.2030345810        6.0924494181
Mo               1.5769131819        6.3730391977       -6.0872367793    0   0   0
Mo               0.0002863058        7.2834122307       -0.0005607261
S               -0.0000021176        5.4626062355       -7.6506323570    0   0   0
S                1.5770994458        6.3726095841       -1.5655776394
S                0.0007911343        7.2999107637        4.4996974771
S               -0.0000012439        5.4626053320       -4.5222282367    0   0   0
S                1.5770652357        6.3726225777        1.5679992293
S               -0.0199712095        7.2970079915        7.6426248418
Mo               6.3119142704       -0.0024104368        6.0716719248
Mo              -0.0000053881        9.1043384407       -6.0872367793    0   0   0
Mo              -1.5770448753       10.0151326155       -0.0018842517
S               -1.5769206876        8.1939054785       -7.6506323570    0   0   0
S                0.0004457913        9.1042168602       -1.5665911132
S               -1.5781337440       10.0196809113        4.5032892843
S               -1.5769198139        8.1939045750       -4.5222282367    0   0   0
S               -0.0004952915        9.1049801511        1.5651565299
S               -1.5688920569       10.0064652699        7.6448201540
Mo               7.8880679524        2.7289358932        6.0721067233
Mo               7.8845808939        0.9104407117       -6.0872367793    0   0   0
Mo               6.3074231957        1.8209887359       -0.0000682157
S                6.3076655943        0.0000077495       -7.6506323570    0   0   0
S                7.8846291299        0.9106544687       -1.5656113643
S                6.3088577248        1.8195631581        4.5055770785
S                6.3076664681        0.0000068460       -4.5222282367    0   0   0
S                7.8845078943        0.9100394546        1.5667597550
S                6.3354862584        1.8021999754        7.6496392353
Mo               6.3250077440        5.4665559794        6.0895749647
Mo               6.3076623239        3.6417399547       -6.0872367793    0   0   0
Mo               4.7302709606        4.5522658849       -0.0004880895
S                4.7307470244        2.7313069925       -7.6506323570    0   0   0
S                6.3072299799        3.6415108936       -1.5658517021
S                4.7129516380        4.5604504650        4.5641315191
S                4.7307478981        2.7313060890       -4.5222282367    0   0   0
S                6.3065736825        3.6423449789        1.5669806295
S                4.8477178708        4.4902901408        7.7159131324
Mo               4.7373515038        8.2027666653        6.0982482197
Mo               4.7307437539        6.3730391977       -6.0872367793    0   0   0
Mo               3.1538279084        7.2830127942       -0.0000646200
S                3.1538284544        5.4626062355       -7.6506323570    0   0   0
S                4.7302505724        6.3728885484       -1.5661979042
S                3.1571316309        7.2602271057        4.5624936327
S                3.1538293281        5.4626053320       -4.5222282367    0   0   0
S                4.7309774024        6.3729467964        1.5670837653
S                3.1569837714        7.3931409676        7.7388224560
Mo               9.4632044149       -0.0014353946        6.0807990133
Mo               3.1538251839        9.1043384407       -6.0872367793    0   0   0
Mo               1.5771448997       10.0146179776       -0.0006618532
S                1.5769098844        8.1939054785       -7.6506323570    0   0   0
S                3.1541237987        9.1039701702       -1.5656100294
S                1.5831593154       10.0086371228        4.5115137199
S                1.5769107581        8.1939045750       -4.5222282367    0   0   0
S                3.1538650107        9.1032761012        1.5673895085
S                1.5719269271       10.0271841841        7.6517475287
Mo              -1.5836852146        2.7295563169        6.0851719879
Mo              11.0384114659        0.9104407117       -6.0872367793    0   0   0
Mo               9.4616052147        1.8206604640       -0.0000890024
S                9.4614961663        0.0000077495       -7.6506323570    0   0   0
S               11.0386308312        0.9104609306       -1.5652508787
S                9.4675086373        1.8169552225        4.5106096655
S                9.4614970401        0.0000068460       -4.5222282367    0   0   0
S               11.0391339500        0.9103459548        1.5676226528
S                9.4543751552        1.8204024783        7.6480923526
Mo              -3.1621715450        5.4618898857        6.0638680150
Mo               9.4614928959        3.6417399547       -6.0872367793    0   0   0
Mo               7.8840842949        4.5520915231       -0.0008576527
S                7.8845775964        2.7313069925       -7.6506323570    0   0   0
S                9.4615980268        3.6414337775       -1.5656966015
S                7.8748471146        4.5510939023        4.5028275030
S                7.8845784701        2.7313060890       -4.5222282367    0   0   0
S                9.4606020457        3.6417302199        1.5660829953
S                7.9020592833        4.5479488246        7.6460809175
Mo              -4.7313653749        8.1937432333        6.0798483985
Mo               7.8845743259        6.3730391977       -6.0872367793    0   0   0
Mo               6.3073855809        7.2834723669       -0.0013293291
S                6.3076590264        5.4626062355       -7.6506323570    0   0   0
S                7.8843386143        6.3726997015       -1.5667847759
S                6.3021169629        7.2845534648        4.5191022712
S                6.3076599001        5.4626053320       -4.5222282367    0   0   0
S                7.8844781202        6.3735353475        1.5653932929
S                6.3166217246        7.2848601440        7.6561588696
Mo              -0.0052346298       -0.0064223030        6.0903538599
Mo               6.3076557559        9.1043384407       -6.0872367793    0   0   0
Mo               4.7308253057       10.0145658491        0.0000169231
S                4.7307404564        8.1939054785       -7.6506323570    0   0   0
S                6.3070002806        9.1045501336       -1.5666499498
S                4.7345979753       10.0089117249        4.5180225677
S                4.7307413301        8.1939045750       -4.5222282367    0   0   0
S                6.3083660092        9.1039565105        1.5657933831
S                4.7286072046       10.0221665404        7.6617699798
Pt               3.1186197658        5.3605344898        8.9469545725
Pd               1.6696914521        2.8233618428        9.0887851968
End final coordinates



     Writing all to output data dir ./outdir/pwscf.save/ :
     XML data file, charge density, pseudopotentials, collected wavefunctions
 
     init_run     :     95.90s CPU     98.04s WALL (       1 calls)
     electrons    :  85433.40s CPU  86727.50s WALL (      20 calls)
     update_pot   :     24.93s CPU     25.73s WALL (      19 calls)
     forces       :   1419.60s CPU   1451.12s WALL (      20 calls)
     force_dftd3  :      7.54s CPU      7.95s WALL (      20 calls)

     Called by init_run:
     wfcinit      :     77.93s CPU     78.88s WALL (       1 calls)
     potinit      :      1.10s CPU      1.20s WALL (       1 calls)
     hinit0       :      9.19s CPU      9.26s WALL (       1 calls)

     Called by electrons:
     c_bands      :  74044.18s CPU  74805.04s WALL (     266 calls)
     sum_band     :   9793.78s CPU  10066.84s WALL (     266 calls)
     v_of_rho     :     76.35s CPU     85.65s WALL (     269 calls)
     newd         :   1347.67s CPU   1603.12s WALL (     269 calls)
     PAW_pot      :    215.33s CPU    217.17s WALL (     288 calls)
     mix_rho      :     20.35s CPU     23.10s WALL (     266 calls)
     energy_dftd3 :      4.27s CPU      4.31s WALL (      20 calls)

     Called by c_bands:
     init_us_2    :    370.42s CPU    372.25s WALL (    2288 calls)
     init_us_2:cp :    370.40s CPU    372.24s WALL (    2288 calls)
     cegterg      :  72487.39s CPU  73241.12s WALL (    1081 calls)

     Called by *egterg:
     cdiaghg      :   3814.95s CPU   3980.67s WALL (   12837 calls)
     h_psi        :  37967.15s CPU  38207.37s WALL (   12990 calls)
     s_psi        :   8112.80s CPU   8146.31s WALL (   12990 calls)
     g_psi        :     82.73s CPU     83.09s WALL (   11905 calls)

     Called by h_psi:
     h_psi:calbec :   7799.39s CPU   7828.11s WALL (   12990 calls)
     vloc_psi     :  21841.56s CPU  21954.45s WALL (   12990 calls)
     add_vuspsi   :   8144.15s CPU   8180.52s WALL (   12990 calls)

     General routines
     calbec       :  11186.66s CPU  11226.53s WALL (   14450 calls)
     fft          :     53.32s CPU     61.61s WALL (    3713 calls)
     ffts         :      3.39s CPU      3.48s WALL (     535 calls)
     fftw         :  16505.31s CPU  16592.06s WALL ( 5738790 calls)
     interpolate  :      6.32s CPU      6.94s WALL (     269 calls)
 
     Parallel routines
 
     PWSCF        :   1d 0h17m CPU   1d 0h40m WALL

 
   This run was terminated on:   5: 5:48  10Mar2024            

=------------------------------------------------------------------------------=
   JOB DONE.
=------------------------------------------------------------------------------=
