
     Program PWSCF v.7.3 starts on 10Mar2024 at 19: 6:11 

     This program is part of the open-source Quantum ESPRESSO suite
     for quantum simulation of materials; please cite
         "P. Giannozzi et al., J. Phys.:Condens. Matter 21 395502 (2009);
         "P. Giannozzi et al., J. Phys.:Condens. Matter 29 465901 (2017);
         "P. Giannozzi et al., J. Chem. Phys. 152 154105 (2020);
          URL http://www.quantum-espresso.org", 
     in publications or presentations arising from this work. More details at
     http://www.quantum-espresso.org/quote

     Parallel version (MPI & OpenMP), running on      36 processor cores
     Number of MPI processes:                36
     Threads/MPI process:                     1

     MPI processes distributed on     1 nodes
     556394 MiB available memory on the printing compute node when the environment starts
 
     Waiting for input...
     Reading input from standard input
Warning: card &CELL ignored
Warning: card / ignored

     Current dimensions of program PWSCF are:
     Max number of different atomic species (ntypx) = 10
     Max number of k-points (npk) =  40000
     Max angular momentum in pseudopotentials (lmaxx) =  4
     file Mo.pbe-spn-kjpaw_psl.1.0.0.UPF: wavefunction(s)  4S 4D renormalized
     file S.pbe-n-kjpaw_psl.1.0.0.UPF: wavefunction(s)  3S 3P renormalized
     file Pd.pbe-spn-kjpaw_psl.1.0.0.UPF: wavefunction(s)  4S 5S 4D renormalized
     file Pt.pbe-spfn-kjpaw_psl.1.0.0.UPF: wavefunction(s)  5P 4F renormalized
 
     R & G space division:  proc/nbgrp/npool/nimage =      36
     Subspace diagonalization in iterative solution of the eigenvalue problem:
     one sub-group per band group will be used
     scalapack distributed-memory algorithm (size of sub-group:  6*  6 procs)

 
     Parallelization info
     --------------------
     sticks:   dense  smooth     PW     G-vecs:    dense   smooth      PW
     Min         586     335     89               165416    71459    9765
     Max         587     337     90               165425    71461    9778
     Sum       21109   12085   3205              5955087  2572543  351657
 
     Using Slab Decomposition
 


     bravais-lattice index     =            0
     lattice parameter (alat)  =      23.8395  a.u.
     unit-cell volume          =   28182.8498 (a.u.)^3
     number of atoms/cell      =          146
     number of atomic types    =            4
     number of electrons       =      1298.00
     number of Kohn-Sham states=          779
     kinetic-energy cutoff     =      77.0000  Ry
     charge density cutoff     =     539.0000  Ry
     scf convergence threshold =      1.0E-06
     mixing beta               =       0.2000
     number of iterations used =            8  plain     mixing
     energy convergence thresh.=      1.0E-04
     force convergence thresh. =      1.0E-03
     Exchange-correlation= SLA  PW   PBX  PBC
                           (   1   4   3   4   0   0   0)
     nstep                     =         1000


     Effective Screening Medium Method
     =================================
     Boundary Conditions: Vacuum-Slab-Vacuum
     total charge in unit cell        =   0.0000
     grid points for fit at edges     =        4 
 

     celldm(1)=  23.839504  celldm(2)=   0.000000  celldm(3)=   0.000000
     celldm(4)=   0.000000  celldm(5)=   0.000000  celldm(6)=   0.000000

     crystal axes: (cart. coord. in units of alat)
               a(1) = (   1.000000   0.000000   0.000000 )  
               a(2) = (  -0.500001   0.866026   0.000000 )  
               a(3) = (   0.000000   0.000000   2.401941 )  

     reciprocal axes: (cart. coord. in units 2 pi/alat)
               b(1) = (  1.000000  0.577351  0.000000 )  
               b(2) = (  0.000000  1.154700  0.000000 )  
               b(3) = (  0.000000  0.000000  0.416330 )  


     PseudoPot. # 1 for Mo read from file:
     ./pseudo/Mo.pbe-spn-kjpaw_psl.1.0.0.UPF
     MD5 check sum: 317bf72632116215fd98f72de1686f13
     Pseudo is Projector augmented-wave + core cor, Zval = 14.0
     Generated using 'atomic' code by A. Dal Corso  v.7.2
     Shape of augmentation charge: PSQ
     Using radial grid of 1229 points,  6 beta functions with: 
                l(1) =   0
                l(2) =   0
                l(3) =   1
                l(4) =   1
                l(5) =   2
                l(6) =   2
     Q(r) pseudized with 0 coefficients 


     PseudoPot. # 2 for S  read from file:
     ./pseudo/S.pbe-n-kjpaw_psl.1.0.0.UPF
     MD5 check sum: 8b7b5302570d38d5e87fed6a1065abda
     Pseudo is Projector augmented-wave + core cor, Zval =  6.0
     Generated using 'atomic' code by A. Dal Corso  v.7.2
     Shape of augmentation charge: PSQ
     Using radial grid of 1151 points,  6 beta functions with: 
                l(1) =   0
                l(2) =   0
                l(3) =   1
                l(4) =   1
                l(5) =   2
                l(6) =   2
     Q(r) pseudized with 0 coefficients 


     PseudoPot. # 3 for Pd read from file:
     ./pseudo/Pd.pbe-spn-kjpaw_psl.1.0.0.UPF
     MD5 check sum: a60571a671f2502b8a6a4569d20a6edb
     Pseudo is Projector augmented-wave + core cor, Zval = 18.0
     Generated using 'atomic' code by A. Dal Corso  v.7.2
     Shape of augmentation charge: PSQ
     Using radial grid of 1235 points,  6 beta functions with: 
                l(1) =   0
                l(2) =   0
                l(3) =   1
                l(4) =   1
                l(5) =   2
                l(6) =   2
     Q(r) pseudized with 0 coefficients 


     PseudoPot. # 4 for Pt read from file:
     ./pseudo/Pt.pbe-spfn-kjpaw_psl.1.0.0.UPF
     MD5 check sum: 620096ebf4e6ebacc94de60fd67efcb5
     Pseudo is Projector augmented-wave + core cor, Zval = 32.0
     Generated using 'atomic' code by A. Dal Corso  v.7.2
     Shape of augmentation charge: PSQ
     Using radial grid of 1277 points,  8 beta functions with: 
                l(1) =   0
                l(2) =   0
                l(3) =   1
                l(4) =   1
                l(5) =   2
                l(6) =   2
                l(7) =   3
                l(8) =   3
     Q(r) pseudized with 0 coefficients 


     atomic species   valence    mass     pseudopotential
     Mo               14.00    95.95000     Mo( 1.00)
     S                 6.00    32.06000     S ( 1.00)
     Pd               18.00   106.42000     Pd( 1.00)
     Pt               32.00   195.08400     Pt( 1.00)

     No symmetry found



   Cartesian axes

     site n.     atom                  positions (alat units)
         1        Mo     tau(   1) = (   0.1244805   0.2154429   0.4826124  )
         2        Mo     tau(   2) = (   0.1250004   0.0721694  -0.4825273  )
         3        Mo     tau(   3) = (   0.0000154   0.1443583  -0.0000534  )
         4        S      tau(   4) = (   0.0000004   0.0000006  -0.6064556  )
         5        S      tau(   5) = (   0.1249822   0.0722030  -0.1241916  )
         6        S      tau(   6) = (   0.0001873   0.1444894   0.3573292  )
         7        S      tau(   7) = (   0.0000004   0.0000005  -0.3584711  )
         8        S      tau(   8) = (   0.1250220   0.0721432   0.1241096  )
         9        S      tau(   9) = (  -0.0009222   0.1433430   0.6062350  )
        10        Mo     tau(  10) = (  -0.0011812   0.4330952   0.4826123  )
        11        Mo     tau(  11) = (   0.0000001   0.2886759  -0.4825273  )
        12        Mo     tau(  12) = (  -0.1249761   0.3608493  -0.0000533  )
        13        S      tau(  13) = (  -0.1249999   0.2165071  -0.6064556  )
        14        S      tau(  14) = (   0.0000232   0.2886904  -0.1241345  )
        15        S      tau(  15) = (  -0.1247753   0.3609305   0.3573291  )
        16        S      tau(  16) = (  -0.1249998   0.2165070  -0.3584711  )
        17        S      tau(  17) = (   0.0000901   0.2887289   0.1242236  )
        18        S      tau(  18) = (  -0.1263226   0.3605428   0.6062351  )
        19        Mo     tau(  19) = (  -0.1251400   0.6495983   0.4819363  )
        20        Mo     tau(  20) = (  -0.1250002   0.5051824  -0.4825273  )
        21        Mo     tau(  21) = (  -0.2500026   0.5773383  -0.0001491  )
        22        S      tau(  22) = (  -0.2500002   0.4330136  -0.6064556  )
        23        S      tau(  23) = (  -0.1249812   0.5051509  -0.1241919  )
        24        S      tau(  24) = (  -0.2500015   0.5775831   0.3575295  )
        25        S      tau(  25) = (  -0.2500001   0.4330135  -0.3584711  )
        26        S      tau(  26) = (  -0.1250129   0.5052153   0.1241101  )
        27        S      tau(  27) = (  -0.2500018   0.5771934   0.6060379  )
        28        Mo     tau(  28) = (   0.2499987  -0.0001601   0.4819365  )
        29        Mo     tau(  29) = (  -0.2500004   0.7216889  -0.4825273  )
        30        Mo     tau(  30) = (  -0.3750135   0.7938631  -0.0001491  )
        31        S      tau(  31) = (  -0.3750004   0.6495201  -0.6064556  )
        32        S      tau(  32) = (  -0.2500026   0.7216883  -0.1242347  )
        33        S      tau(  33) = (  -0.3747997   0.7937400   0.3575295  )
        34        S      tau(  34) = (  -0.3750004   0.6495200  -0.3584711  )
        35        S      tau(  35) = (  -0.2500029   0.7216883   0.1240299  )
        36        S      tau(  36) = (  -0.3751376   0.7939346   0.6060379  )
        37        Mo     tau(  37) = (   0.3755166   0.2154425   0.4826119  )
        38        Mo     tau(  38) = (   0.3750004   0.0721694  -0.4825273  )
        39        Mo     tau(  39) = (   0.2499990   0.1443474  -0.0000968  )
        40        S      tau(  40) = (   0.2500004   0.0000006  -0.6064556  )
        41        S      tau(  41) = (   0.3750152   0.0722028  -0.1241921  )
        42        S      tau(  42) = (   0.2499983   0.1443201   0.3580593  )
        43        S      tau(  43) = (   0.2500004   0.0000005  -0.3584711  )
        44        S      tau(  44) = (   0.3749754   0.0721432   0.1241106  )
        45        S      tau(  45) = (   0.2499987   0.1437775   0.6065499  )
        46        Mo     tau(  46) = (   0.2499984   0.4330123   0.4872880  )
        47        Mo     tau(  47) = (   0.2500001   0.2886759  -0.4825273  )
        48        Mo     tau(  48) = (   0.1250277   0.3608616  -0.0000572  )
        49        S      tau(  49) = (   0.1250001   0.2165071  -0.6064556  )
        50        S      tau(  50) = (   0.2499987   0.2886898  -0.1241693  )
        51        S      tau(  51) = (   0.1266397   0.3617911   0.3615924  )
        52        S      tau(  52) = (   0.1250002   0.2165070  -0.3584711  )
        53        S      tau(  53) = (   0.2499988   0.2886671   0.1241958  )
        54        S      tau(  54) = (   0.1173054   0.3564020   0.6108885  )
        55        Mo     tau(  55) = (   0.1243363   0.6504991   0.4826116  )
        56        Mo     tau(  56) = (   0.1249998   0.5051824  -0.4825273  )
        57        Mo     tau(  57) = (   0.0000060   0.5773464  -0.0000969  )
        58        S      tau(  58) = (  -0.0000002   0.4330136  -0.6064556  )
        59        S      tau(  59) = (   0.1250101   0.5051751  -0.1241696  )
        60        S      tau(  60) = (  -0.0000165   0.5773581   0.3580590  )
        61        S      tau(  61) = (  -0.0000001   0.4330135  -0.3584711  )
        62        S      tau(  62) = (   0.1249907   0.5051868   0.1241956  )
        63        S      tau(  63) = (  -0.0004863   0.5776299   0.6065497  )
        64        Mo     tau(  64) = (   0.5000682   0.0000393   0.4813064  )
        65        Mo     tau(  65) = (  -0.0000004   0.7216889  -0.4825273  )
        66        Mo     tau(  66) = (  -0.1249919   0.7938635  -0.0001489  )
        67        S      tau(  67) = (  -0.1250004   0.6495201  -0.6064556  )
        68        S      tau(  68) = (   0.0000350   0.7216859  -0.1241920  )
        69        S      tau(  69) = (  -0.1252051   0.7937392   0.3575294  )
        70        S      tau(  70) = (  -0.1250004   0.6495200  -0.3584711  )
        71        S      tau(  71) = (  -0.0000364   0.7216812   0.1241103  )
        72        S      tau(  72) = (  -0.1248667   0.7939344   0.6060378  )
        73        Mo     tau(  73) = (   0.6250985   0.2164481   0.4814760  )
        74        Mo     tau(  74) = (   0.6250004   0.0721694  -0.4825273  )
        75        Mo     tau(  75) = (   0.4999807   0.1443583  -0.0000532  )
        76        S      tau(  76) = (   0.5000004   0.0000006  -0.6064556  )
        77        S      tau(  77) = (   0.6249710   0.0721537  -0.1241599  )
        78        S      tau(  78) = (   0.4998101   0.1444887   0.3573287  )
        79        S      tau(  79) = (   0.5000004   0.0000005  -0.3584711  )
        80        S      tau(  80) = (   0.6250072   0.0721744   0.1241160  )
        81        S      tau(  81) = (   0.5009199   0.1433424   0.6062338  )
        82        Mo     tau(  82) = (   0.5011786   0.4330950   0.4826115  )
        83        Mo     tau(  83) = (   0.5000001   0.2886759  -0.4825273  )
        84        Mo     tau(  84) = (   0.3749686   0.3608615  -0.0000573  )
        85        S      tau(  85) = (   0.3750001   0.2165071  -0.6064556  )
        86        S      tau(  86) = (   0.4999725   0.2886900  -0.1241349  )
        87        S      tau(  87) = (   0.3733572   0.3617909   0.3615920  )
        88        S      tau(  88) = (   0.3750002   0.2165070  -0.3584711  )
        89        S      tau(  89) = (   0.4999057   0.2887288   0.1242238  )
        90        S      tau(  90) = (   0.3826919   0.3564018   0.6108876  )
        91        Mo     tau(  91) = (   0.3756598   0.6504996   0.4826113  )
        92        Mo     tau(  92) = (   0.3749998   0.5051824  -0.4825273  )
        93        Mo     tau(  93) = (   0.2499978   0.5773166  -0.0000576  )
        94        S      tau(  94) = (   0.2499998   0.4330136  -0.6064556  )
        95        S      tau(  95) = (   0.3749857   0.5051746  -0.1241697  )
        96        S      tau(  96) = (   0.2499981   0.5754545   0.3615919  )
        97        S      tau(  97) = (   0.2499999   0.4330135  -0.3584711  )
        98        S      tau(  98) = (   0.3750048   0.5051860   0.1241960  )
        99        S      tau(  99) = (   0.2499983   0.5862331   0.6108872  )
       100        Mo     tau( 100) = (   0.7499988   0.0001148   0.4814756  )
       101        Mo     tau( 101) = (   0.2499996   0.7216889  -0.4825273  )
       102        Mo     tau( 102) = (   0.1250062   0.7938321  -0.0000534  )
       103        S      tau( 103) = (   0.1249996   0.6495201  -0.6064556  )
       104        S      tau( 104) = (   0.2499971   0.7216593  -0.1241350  )
       105        S      tau( 105) = (   0.1250350   0.7936175   0.3573284  )
       106        S      tau( 106) = (   0.1249996   0.6495200  -0.3584711  )
       107        S      tau( 107) = (   0.2499972   0.7215818   0.1242234  )
       108        S      tau( 108) = (   0.1245975   0.7951515   0.6062336  )
       109        Mo     tau( 109) = (  -0.1251006   0.2164484   0.4814769  )
       110        Mo     tau( 110) = (   0.8750004   0.0721694  -0.4825273  )
       111        Mo     tau( 111) = (   0.7499976   0.1443379  -0.0001196  )
       112        S      tau( 112) = (   0.7500004   0.0000006  -0.6064556  )
       113        S      tau( 113) = (   0.8750246   0.0721533  -0.1241599  )
       114        S      tau( 114) = (   0.7499994   0.1443376   0.3572937  )
       115        S      tau( 115) = (   0.7500004   0.0000005  -0.3584711  )
       116        S      tau( 116) = (   0.8749884   0.0721739   0.1241157  )
       117        S      tau( 117) = (   0.7499987   0.1443370   0.6058240  )
       118        Mo     tau( 118) = (  -0.2500010   0.4329316   0.4813070  )
       119        Mo     tau( 119) = (   0.7500001   0.2886759  -0.4825273  )
       120        Mo     tau( 120) = (   0.6249710   0.3608493  -0.0000534  )
       121        S      tau( 121) = (   0.6250001   0.2165071  -0.6064556  )
       122        S      tau( 122) = (   0.7499973   0.2887067  -0.1241600  )
       123        S      tau( 123) = (   0.6247737   0.3609305   0.3573287  )
       124        S      tau( 124) = (   0.6250002   0.2165070  -0.3584711  )
       125        S      tau( 125) = (   0.7499971   0.2886649   0.1241160  )
       126        S      tau( 126) = (   0.6263203   0.3605423   0.6062340  )
       127        Mo     tau( 127) = (  -0.3748636   0.6495986   0.4819361  )
       128        Mo     tau( 128) = (   0.6249998   0.5051824  -0.4825273  )
       129        Mo     tau( 129) = (   0.4999891   0.5773453  -0.0000967  )
       130        S      tau( 130) = (   0.4999998   0.4330136  -0.6064556  )
       131        S      tau( 131) = (   0.6249761   0.5051506  -0.1241920  )
       132        S      tau( 132) = (   0.5000130   0.5773585   0.3580587  )
       133        S      tau( 133) = (   0.4999999   0.4330135  -0.3584711  )
       134        S      tau( 134) = (   0.6250081   0.5052147   0.1241104  )
       135        S      tau( 135) = (   0.5004826   0.5776298   0.6065487  )
       136        Mo     tau( 136) = (  -0.0000706   0.0000401   0.4813070  )
       137        Mo     tau( 137) = (   0.4999996   0.7216889  -0.4825273  )
       138        Mo     tau( 138) = (   0.3749881   0.7938314  -0.0000535  )
       139        S      tau( 139) = (   0.3749996   0.6495201  -0.6064556  )
       140        S      tau( 140) = (   0.4999594   0.7216844  -0.1241918  )
       141        S      tau( 141) = (   0.3749610   0.7936184   0.3573285  )
       142        S      tau( 142) = (   0.3749996   0.6495200  -0.3584711  )
       143        S      tau( 143) = (   0.5000310   0.7216802   0.1241101  )
       144        S      tau( 144) = (   0.3753979   0.7951517   0.6062337  )
       145        Pd     tau( 145) = (   0.2499985   0.4330123   0.7148096  )
       146        Pt     tau( 146) = (   0.1244518   0.2154523   0.7298268  )

     --------------------------------------------
     DFT-D3 Dispersion Correction (3-body terms):
     --------------------------------------------
       Reference C6 values for interpolation: 

         atom   Coordination number   C6
         S          0.000           268.01
         S          0.995           261.99
         S          1.990           251.62
         Mo         0.000          1691.79
         Mo         1.942          1004.01
         Mo        11.056           674.22
         Pd         0.000          1217.01
         Pd         1.863           573.90
         Pd         5.710           531.75
         Pt         0.000           782.29
         Pt         1.919           692.72
         Pt         6.667           673.75

       Values used:

         atom   Coordination number  R0_AB[au]  C6      C8
         Mo        10.709            3.547    674.22  77634.20
         Mo        10.189            3.547    674.22  77634.20
         Mo        10.201            3.547    674.22  77634.20
         S          3.753            3.128    251.62  12327.25
         S          3.858            3.128    251.62  12327.25
         S          3.849            3.128    251.62  12327.25
         S          3.859            3.128    251.62  12327.25
         S          3.860            3.128    251.62  12327.25
         S          4.752            3.128    251.62  12327.25
         Mo        10.182            3.547    674.22  77634.20
         Mo        10.189            3.547    674.22  77634.20
         Mo        10.201            3.547    674.22  77634.20
         S          3.753            3.128    251.62  12327.25
         S          3.859            3.128    251.62  12327.25
         S          3.848            3.128    251.62  12327.25
         S          3.858            3.128    251.62  12327.25
         S          3.855            3.128    251.62  12327.25
         S          3.809            3.128    251.62  12327.25
         Mo        10.209            3.547    674.22  77634.20
         Mo        10.189            3.547    674.22  77634.20
         Mo        10.200            3.547    674.22  77634.20
         S          3.753            3.128    251.62  12327.25
         S          3.858            3.128    251.62  12327.25
         S          3.862            3.128    251.62  12327.25
         S          3.859            3.128    251.62  12327.25
         S          3.860            3.128    251.62  12327.25
         S          3.759            3.128    251.62  12327.25
         Mo        10.218            3.547    674.22  77634.20
         Mo        10.189            3.547    674.22  77634.20
         Mo        10.200            3.547    674.22  77634.20
         S          3.753            3.128    251.62  12327.25
         S          3.858            3.128    251.62  12327.25
         S          3.862            3.128    251.62  12327.25
         S          3.859            3.128    251.62  12327.25
         S          3.862            3.128    251.62  12327.25
         S          3.771            3.128    251.62  12327.25
         Mo        10.182            3.547    674.22  77634.20
         Mo        10.189            3.547    674.22  77634.20
         Mo        10.202            3.547    674.22  77634.20
         S          3.753            3.128    251.62  12327.25
         S          3.858            3.128    251.62  12327.25
         S          3.858            3.128    251.62  12327.25
         S          3.859            3.128    251.62  12327.25
         S          3.860            3.128    251.62  12327.25
         S          4.705            3.128    251.62  12327.25
         Mo        10.820            3.547    674.22  77634.20
         Mo        10.189            3.547    674.22  77634.20
         Mo        10.202            3.547    674.22  77634.20
         S          3.753            3.128    251.62  12327.25
         S          3.859            3.128    251.62  12327.25
         S          3.867            3.128    251.62  12327.25
         S          3.859            3.128    251.62  12327.25
         S          3.853            3.128    251.62  12327.25
         S          5.619            3.128    251.62  12327.25
         Mo        10.173            3.547    674.22  77634.20
         Mo        10.189            3.547    674.22  77634.20
         Mo        10.202            3.547    674.22  77634.20
         S          3.753            3.128    251.62  12327.25
         S          3.859            3.128    251.62  12327.25
         S          3.857            3.128    251.62  12327.25
         S          3.859            3.128    251.62  12327.25
         S          3.853            3.128    251.62  12327.25
         S          3.752            3.128    251.62  12327.25
         Mo        10.223            3.547    674.22  77634.20
         Mo        10.189            3.547    674.22  77634.20
         Mo        10.200            3.547    674.22  77634.20
         S          3.753            3.128    251.62  12327.25
         S          3.858            3.128    251.62  12327.25
         S          3.862            3.128    251.62  12327.25
         S          3.859            3.128    251.62  12327.25
         S          3.860            3.128    251.62  12327.25
         S          3.760            3.128    251.62  12327.25
         Mo        10.213            3.547    674.22  77634.20
         Mo        10.189            3.547    674.22  77634.20
         Mo        10.201            3.547    674.22  77634.20
         S          3.753            3.128    251.62  12327.25
         S          3.858            3.128    251.62  12327.25
         S          3.848            3.128    251.62  12327.25
         S          3.859            3.128    251.62  12327.25
         S          3.860            3.128    251.62  12327.25
         S          3.799            3.128    251.62  12327.25
         Mo        10.173            3.547    674.22  77634.20
         Mo        10.189            3.547    674.22  77634.20
         Mo        10.202            3.547    674.22  77634.20
         S          3.753            3.128    251.62  12327.25
         S          3.859            3.128    251.62  12327.25
         S          3.866            3.128    251.62  12327.25
         S          3.859            3.128    251.62  12327.25
         S          3.855            3.128    251.62  12327.25
         S          4.655            3.128    251.62  12327.25
         Mo        10.173            3.547    674.22  77634.20
         Mo        10.189            3.547    674.22  77634.20
         Mo        10.202            3.547    674.22  77634.20
         S          3.753            3.128    251.62  12327.25
         S          3.859            3.128    251.62  12327.25
         S          3.866            3.128    251.62  12327.25
         S          3.859            3.128    251.62  12327.25
         S          3.853            3.128    251.62  12327.25
         S          4.646            3.128    251.62  12327.25
         Mo        10.213            3.547    674.22  77634.20
         Mo        10.189            3.547    674.22  77634.20
         Mo        10.201            3.547    674.22  77634.20
         S          3.753            3.128    251.62  12327.25
         S          3.859            3.128    251.62  12327.25
         S          3.848            3.128    251.62  12327.25
         S          3.859            3.128    251.62  12327.25
         S          3.855            3.128    251.62  12327.25
         S          3.798            3.128    251.62  12327.25
         Mo        10.222            3.547    674.22  77634.20
         Mo        10.189            3.547    674.22  77634.20
         Mo        10.199            3.547    674.22  77634.20
         S          3.753            3.128    251.62  12327.25
         S          3.858            3.128    251.62  12327.25
         S          3.855            3.128    251.62  12327.25
         S          3.858            3.128    251.62  12327.25
         S          3.860            3.128    251.62  12327.25
         S          3.778            3.128    251.62  12327.25
         Mo        10.223            3.547    674.22  77634.20
         Mo        10.189            3.547    674.22  77634.20
         Mo        10.201            3.547    674.22  77634.20
         S          3.753            3.128    251.62  12327.25
         S          3.858            3.128    251.62  12327.25
         S          3.848            3.128    251.62  12327.25
         S          3.858            3.128    251.62  12327.25
         S          3.860            3.128    251.62  12327.25
         S          3.798            3.128    251.62  12327.25
         Mo        10.209            3.547    674.21  77634.20
         Mo        10.189            3.547    674.22  77634.20
         Mo        10.202            3.547    674.22  77634.20
         S          3.753            3.128    251.62  12327.25
         S          3.859            3.128    251.62  12327.25
         S          3.857            3.128    251.62  12327.25
         S          3.859            3.128    251.62  12327.25
         S          3.860            3.128    251.62  12327.25
         S          3.751            3.128    251.62  12327.25
         Mo        10.232            3.547    674.22  77634.20
         Mo        10.189            3.547    674.22  77634.20
         Mo        10.201            3.547    674.22  77634.20
         S          3.753            3.128    251.62  12327.25
         S          3.858            3.128    251.62  12327.25
         S          3.848            3.128    251.62  12327.25
         S          3.859            3.128    251.62  12327.25
         S          3.860            3.128    251.62  12327.25
         S          3.799            3.128    251.62  12327.25
         Pd         4.000            3.168    531.80  48725.81
         Pt         3.754            3.168    692.72  72035.25

         Molecular C6 ( Ry / a.u.^6 ) =   7932928.76


     number of k points=     4  Gaussian smearing, width (Ry)=  0.0100
                       cart. coord. in units 2pi/alat
        k(    1) = (   0.0000000   0.0000000   0.0000000), wk =   0.5000000
        k(    2) = (   0.0000000  -0.5773499   0.0000000), wk =   0.5000000
        k(    3) = (  -0.5000000  -0.2886755   0.0000000), wk =   0.5000000
        k(    4) = (  -0.5000000  -0.8660254   0.0000000), wk =   0.5000000

     Dense  grid:  5955087 G-vectors     FFT dimensions: ( 180, 180, 432)

     Smooth grid:  2572543 G-vectors     FFT dimensions: ( 135, 135, 320)

     Estimated max dynamical RAM per process >       3.07 GB

     Estimated total dynamical RAM >     110.53 GB

     Initial potential from superposition of free atoms

     starting charge    1297.9541, renormalised to    1298.0000

     negative rho (up, down):  9.029E-04 0.000E+00
     Starting wfcs are  891 randomized atomic wfcs
     Checking if some PAW data can be deallocated... 

     total cpu time spent up to now is       97.9 secs

     Self-consistent Calculation

     iteration #  1     ecut=    77.00 Ry     beta= 0.20
     Davidson diagonalization with overlap
     ethr =  1.00E-02,  avg # of iterations =  2.0

     Threshold (ethr) on eigenvalues was too large:
     Diagonalizing with lowered threshold

     Davidson diagonalization with overlap
     ethr =  1.78E-04,  avg # of iterations = 13.8

     negative rho (up, down):  2.833E-04 0.000E+00

     total cpu time spent up to now is     1117.7 secs

     total energy              =  -26031.72246642 Ry
     estimated scf accuracy    <       4.99444622 Ry

     iteration #  2     ecut=    77.00 Ry     beta= 0.20
     Davidson diagonalization with overlap
     ethr =  3.85E-04,  avg # of iterations =  1.5

     negative rho (up, down):  4.269E-05 0.000E+00

     total cpu time spent up to now is     1324.3 secs

     total energy              =  -26030.73386066 Ry
     estimated scf accuracy    <       2.58852142 Ry

     iteration #  3     ecut=    77.00 Ry     beta= 0.20
     Davidson diagonalization with overlap
     ethr =  1.99E-04,  avg # of iterations = 13.8

     negative rho (up, down):  3.001E-05 0.000E+00

     total cpu time spent up to now is     1607.7 secs

     total energy              =  -26031.05465397 Ry
     estimated scf accuracy    <       0.68092092 Ry

     iteration #  4     ecut=    77.00 Ry     beta= 0.20
     Davidson diagonalization with overlap
     c_bands:  2 eigenvalues not converged
     c_bands:  2 eigenvalues not converged
     ethr =  5.25E-05,  avg # of iterations = 18.8

     negative rho (up, down):  3.578E-05 0.000E+00

     total cpu time spent up to now is     2216.9 secs

     total energy              =  -26031.62015899 Ry
     estimated scf accuracy    <       0.26143098 Ry

     iteration #  5     ecut=    77.00 Ry     beta= 0.20
     Davidson diagonalization with overlap
     c_bands:  3 eigenvalues not converged
     c_bands:  1 eigenvalues not converged
     ethr =  2.01E-05,  avg # of iterations = 33.2

     negative rho (up, down):  7.782E-05 0.000E+00

     total cpu time spent up to now is     2796.9 secs

     total energy              =  -26031.73321715 Ry
     estimated scf accuracy    <       0.14476513 Ry

     iteration #  6     ecut=    77.00 Ry     beta= 0.20
     Davidson diagonalization with overlap
     c_bands:  2 eigenvalues not converged
     ethr =  1.12E-05,  avg # of iterations =  9.0

     negative rho (up, down):  2.504E-04 0.000E+00

     total cpu time spent up to now is     3040.8 secs

     total energy              =  -26031.72262248 Ry
     estimated scf accuracy    <       0.09175623 Ry

     iteration #  7     ecut=    77.00 Ry     beta= 0.20
     Davidson diagonalization with overlap
     c_bands:  4 eigenvalues not converged
     ethr =  7.07E-06,  avg # of iterations = 19.8

     negative rho (up, down):  7.088E-04 0.000E+00

     total cpu time spent up to now is     3441.8 secs

     total energy              =  -26031.75993998 Ry
     estimated scf accuracy    <       0.03996425 Ry

     iteration #  8     ecut=    77.00 Ry     beta= 0.20
     Davidson diagonalization with overlap
     c_bands:  1 eigenvalues not converged
     c_bands:  4 eigenvalues not converged
     ethr =  3.08E-06,  avg # of iterations = 41.5

     negative rho (up, down):  5.593E-04 0.000E+00

     total cpu time spent up to now is     4181.5 secs

     total energy              =  -26031.77108294 Ry
     estimated scf accuracy    <       0.03221458 Ry

     iteration #  9     ecut=    77.00 Ry     beta= 0.20
     Davidson diagonalization with overlap
     c_bands:  2 eigenvalues not converged
     c_bands:  1 eigenvalues not converged
     ethr =  2.48E-06,  avg # of iterations = 12.5

     negative rho (up, down):  5.245E-04 0.000E+00

     total cpu time spent up to now is     4430.8 secs

     total energy              =  -26031.77328764 Ry
     estimated scf accuracy    <       0.00427452 Ry

     iteration # 10     ecut=    77.00 Ry     beta= 0.20
     Davidson diagonalization with overlap
     c_bands:  1 eigenvalues not converged
     c_bands:  4 eigenvalues not converged
     c_bands:  4 eigenvalues not converged
     ethr =  3.29E-07,  avg # of iterations = 37.8

     negative rho (up, down):  5.683E-04 0.000E+00

     total cpu time spent up to now is     5499.8 secs

     total energy              =  -26031.78447106 Ry
     estimated scf accuracy    <       0.00573046 Ry

     iteration # 11     ecut=    77.00 Ry     beta= 0.20
     Davidson diagonalization with overlap
     c_bands:  1 eigenvalues not converged
     ethr =  3.29E-07,  avg # of iterations =  8.8

     negative rho (up, down):  8.642E-04 0.000E+00

     total cpu time spent up to now is     5726.7 secs

     total energy              =  -26031.78210799 Ry
     estimated scf accuracy    <       0.00333329 Ry

     iteration # 12     ecut=    77.00 Ry     beta= 0.20
     Davidson diagonalization with overlap
     ethr =  2.57E-07,  avg # of iterations = 12.5

     negative rho (up, down):  9.007E-04 0.000E+00

     total cpu time spent up to now is     6199.6 secs

     total energy              =  -26031.78487534 Ry
     estimated scf accuracy    <       0.00359002 Ry

     iteration # 13     ecut=    77.00 Ry     beta= 0.20
     Davidson diagonalization with overlap
     ethr =  2.57E-07,  avg # of iterations =  1.0

     negative rho (up, down):  8.376E-04 0.000E+00

     total cpu time spent up to now is     6397.2 secs

     total energy              =  -26031.78378401 Ry
     estimated scf accuracy    <       0.00195046 Ry

     iteration # 14     ecut=    77.00 Ry     beta= 0.20
     Davidson diagonalization with overlap
     ethr =  1.50E-07,  avg # of iterations =  7.5

     negative rho (up, down):  8.492E-04 0.000E+00

     total cpu time spent up to now is     6641.5 secs

     total energy              =  -26031.78396405 Ry
     estimated scf accuracy    <       0.00018966 Ry

     iteration # 15     ecut=    77.00 Ry     beta= 0.20
     Davidson diagonalization with overlap
     c_bands:  4 eigenvalues not converged
     ethr =  1.46E-08,  avg # of iterations = 21.0

     negative rho (up, down):  8.646E-04 0.000E+00

     total cpu time spent up to now is     7852.0 secs

     total energy              =  -26031.78459084 Ry
     estimated scf accuracy    <       0.00038088 Ry

     iteration # 16     ecut=    77.00 Ry     beta= 0.20
     Davidson diagonalization with overlap
     ethr =  1.46E-08,  avg # of iterations =  6.5

     negative rho (up, down):  8.968E-04 0.000E+00

     total cpu time spent up to now is     8102.5 secs

     total energy              =  -26031.78453474 Ry
     estimated scf accuracy    <       0.00009851 Ry

     iteration # 17     ecut=    77.00 Ry     beta= 0.20
     Davidson diagonalization with overlap
     ethr =  7.59E-09,  avg # of iterations = 16.8

     negative rho (up, down):  9.183E-04 0.000E+00

     total cpu time spent up to now is     8693.3 secs

     total energy              =  -26031.78469299 Ry
     estimated scf accuracy    <       0.00022755 Ry

     iteration # 18     ecut=    77.00 Ry     beta= 0.20
     Davidson diagonalization with overlap
     ethr =  7.59E-09,  avg # of iterations =  1.0

     negative rho (up, down):  9.134E-04 0.000E+00

     total cpu time spent up to now is     8890.7 secs

     total energy              =  -26031.78465594 Ry
     estimated scf accuracy    <       0.00016796 Ry

     iteration # 19     ecut=    77.00 Ry     beta= 0.20
     Davidson diagonalization with overlap
     ethr =  7.59E-09,  avg # of iterations =  1.0

     negative rho (up, down):  9.108E-04 0.000E+00

     total cpu time spent up to now is     9088.2 secs

     total energy              =  -26031.78461403 Ry
     estimated scf accuracy    <       0.00010501 Ry

     iteration # 20     ecut=    77.00 Ry     beta= 0.20
     Davidson diagonalization with overlap
     ethr =  7.59E-09,  avg # of iterations =  8.2

     negative rho (up, down):  9.137E-04 0.000E+00

     total cpu time spent up to now is     9323.2 secs

     total energy              =  -26031.78461138 Ry
     estimated scf accuracy    <       0.00003462 Ry

     iteration # 21     ecut=    77.00 Ry     beta= 0.20
     Davidson diagonalization with overlap
     ethr =  2.67E-09,  avg # of iterations =  9.5

     negative rho (up, down):  9.129E-04 0.000E+00

     total cpu time spent up to now is     9644.5 secs

     total energy              =  -26031.78463337 Ry
     estimated scf accuracy    <       0.00000311 Ry

     iteration # 22     ecut=    77.00 Ry     beta= 0.20
     Davidson diagonalization with overlap
     c_bands:  1 eigenvalues not converged
     c_bands:  1 eigenvalues not converged
     ethr =  2.40E-10,  avg # of iterations = 20.5

     negative rho (up, down):  9.158E-04 0.000E+00

     total cpu time spent up to now is    10602.8 secs

     End of self-consistent calculation

          k = 0.0000 0.0000 0.0000 (321495 PWs)   bands (ev):

  -102.2000 -88.8379 -70.5394 -70.5379 -70.5136 -70.5084 -70.4960 -70.4847
   -70.4728 -66.7287 -66.7076 -66.7076 -66.7076 -66.7076 -66.7076 -66.7076
   -66.6864 -66.6864 -66.6864 -66.6864 -66.6864 -66.6864 -66.6864 -66.6864
   -66.6863 -66.6627 -66.6421 -66.6418 -66.6417 -66.6417 -66.6414 -66.6413
   -66.6211 -66.6208 -66.6207 -66.6205 -66.6205 -66.6204 -66.6202 -66.6201
   -66.6199 -66.5898 -66.5762 -66.5715 -66.5683 -66.5628 -66.5580 -66.5552
   -66.5502 -66.5434 -66.5402 -66.5372 -66.5357 -66.5331 -66.5248 -66.5083
   -66.4968 -56.4939 -56.4180 -56.3742 -54.6622 -54.6527 -54.5769 -41.0551
   -41.0551 -41.0551 -40.9881 -40.9879 -40.9879 -40.9803 -40.9803 -40.9803
   -40.9803 -40.9803 -40.9803 -40.9135 -40.9133 -40.9132 -40.9131 -40.9131
   -40.9130 -40.9084 -40.9065 -40.9000 -40.8888 -40.8547 -40.8547 -40.8547
   -40.8547 -40.8547 -40.8547 -40.8474 -40.8474 -40.8474 -40.8474 -40.8474
   -40.8474 -40.8372 -40.8336 -40.8288 -40.8234 -40.8228 -40.8199 -40.8199
   -40.8198 -40.8198 -40.8198 -40.8198 -40.8189 -40.8169 -40.8057 -40.8057
   -40.8057 -40.8057 -40.8057 -40.8057 -40.8056 -40.8056 -40.8056 -40.7880
   -40.7879 -40.7878 -40.7877 -40.7876 -40.7876 -40.7824 -40.7822 -40.7820
   -40.7820 -40.7817 -40.7816 -40.7588 -40.7532 -40.7531 -40.7530 -40.7530
   -40.7528 -40.7528 -40.7421 -40.7421 -40.7421 -40.7409 -40.7407 -40.7405
   -40.7404 -40.7403 -40.7402 -40.7401 -40.7400 -40.7397 -40.7373 -40.7174
   -40.7144 -40.7138 -40.7126 -40.7085 -40.7071 -40.7045 -40.7008 -40.6993
   -40.6955 -40.6953 -40.6952 -40.6952 -40.6952 -40.6952 -40.6952 -40.6871
   -40.6820 -40.6795 -40.6766 -40.6764 -40.6753 -40.6752 -40.6752 -40.6716
   -40.6691 -40.6675 -40.6672 -40.6653 -40.6611 -40.6586 -40.6565 -40.6558
   -40.6536 -40.6479 -40.6479 -40.6479 -40.6288 -40.6285 -40.6285 -40.6284
   -40.6284 -40.6283 -40.5933 -40.5895 -40.5870 -40.5812 -40.5812 -40.5476
   -40.5420 -40.5401 -40.5376 -40.5354 -40.5302 -40.4908 -40.4840 -20.1723
   -20.1022 -19.9640 -19.5076 -19.3084 -19.2995 -19.2943 -19.2938 -19.2930
   -19.2861 -19.2547 -19.2311 -19.1920 -19.1851 -19.1774 -19.1404 -19.1208
   -19.1127 -19.0816 -19.0687 -19.0483 -18.9145 -18.7690 -18.6821 -18.5658
   -18.5518 -18.5372 -18.5146 -18.4996 -18.4951 -18.4699 -18.4225 -18.4161
   -18.4028 -18.3754 -18.3400 -18.3117 -18.2980 -18.2581 -18.2519 -18.2424
   -18.2003 -18.1904 -18.1889 -18.1883 -18.1883 -18.1880 -18.1879 -18.1858
   -18.1826 -18.1479 -18.1479 -18.1479 -18.1177 -18.1126 -18.1092 -18.1065
   -18.1034 -18.1004 -18.0921 -18.0758 -18.0752 -18.0710 -18.0489 -18.0243
   -18.0174 -18.0103 -18.0064 -18.0042 -17.9931 -17.9888 -17.9873 -17.9764
   -17.9644 -17.9614 -17.9612 -17.9582 -17.9567 -17.9341 -17.9270 -17.9235
   -17.9076 -17.9023 -17.8929 -17.8919 -17.8868 -17.8842 -17.8635 -17.8580
   -17.8502 -17.8292 -17.8170 -17.8118 -17.8072 -17.8025 -17.7956 -12.1062
   -11.9706 -11.8860 -11.8171 -11.8026 -11.8004 -11.7852 -11.7239 -11.7156
   -11.7067 -11.6689 -11.4476 -11.3240 -11.2963 -11.2612 -11.2525 -11.2514
   -11.2461 -11.2304 -11.2140 -11.1899 -11.1786 -11.1767 -11.1760 -11.1698
   -11.1641 -11.1578 -11.0967 -11.0777 -11.0592 -11.0473 -11.0349 -11.0311
   -11.0212 -11.0123 -11.0014 -10.9826 -10.9697 -10.9636 -10.9614 -10.9545
   -10.9472 -10.9185 -10.9137 -10.9022 -10.8865 -10.8840 -10.8816 -10.8787
   -10.8781 -10.8764 -10.8715 -10.8619 -10.8572 -10.8502 -10.8499 -10.8455
   -10.8313 -10.8297 -10.8279 -10.8257 -10.8172 -10.8114 -10.7996 -10.7707
   -10.7686 -10.7564 -10.7296 -10.7241 -10.6877 -10.6786 -10.6732 -10.6492
   -10.6445 -10.6388 -10.4740 -10.2804 -10.2393 -10.0958 -10.0957 -10.0928
   -10.0407  -9.9440  -9.9376  -9.9271  -9.8882  -9.8328  -9.8300  -9.8252
    -9.8224  -9.8196  -9.7977  -9.7827  -9.7684  -9.7533  -9.7444  -9.7408
    -9.7297  -9.7281  -9.7115  -9.6912  -9.6765  -9.6740  -9.6681  -9.6639
    -9.6628  -9.6511  -9.6345  -9.6239  -9.6226  -9.6215  -9.6207  -9.6189
    -9.6180  -9.6029  -9.5848  -9.5774  -9.5671  -9.5554  -9.5528  -9.5137
    -9.5033  -9.4860  -9.4826  -9.4786  -9.4745  -9.4273  -9.4015  -9.3863
    -9.3825  -9.3792  -9.3736  -9.3595  -9.3503  -9.3238  -9.2996  -9.2885
    -9.2672  -9.2496  -9.2451  -9.2394  -9.2340  -9.2313  -9.2224  -9.1525
    -9.1423  -9.1081  -9.0744  -9.0715  -9.0674  -9.0668  -9.0666  -9.0617
    -9.0580  -9.0453  -9.0387  -8.9935  -8.9886  -8.9874  -8.9814  -8.9598
    -8.9266  -8.9122  -8.9022  -8.8909  -8.8616  -8.8546  -8.8498  -8.8460
    -8.8448  -8.8426  -8.8358  -8.8253  -8.7998  -8.7947  -8.7849  -8.7831
    -8.7769  -8.7671  -8.7636  -8.7565  -8.7377  -8.7321  -8.5976  -8.5078
    -8.4879  -8.4778  -8.4778  -8.4053  -8.4052  -8.3666  -8.3659  -8.3657
    -8.3657  -8.3656  -8.3656  -8.3541  -8.3491  -8.3216  -8.3148  -8.2958
    -8.2950  -8.2942  -8.2873  -8.2871  -8.2866  -8.2678  -8.2450  -8.2277
    -8.1679  -8.1079  -8.0739  -7.9893  -7.9757  -7.9719  -7.9313  -7.7468
    -7.7281  -7.7262  -7.6869  -7.6629  -7.6304  -7.6304  -7.6303  -7.6302
    -7.6301  -7.6295  -7.5890  -7.5844  -7.5840  -7.5838  -7.5836  -7.5835
    -7.5829  -7.5698  -7.5653  -7.5585  -7.5574  -7.5521  -7.5494  -7.5411
    -7.5348  -7.5327  -7.5198  -7.5179  -7.5121  -7.5108  -7.5097  -7.5078
    -7.4989  -7.4958  -7.4933  -7.4838  -7.4684  -7.4667  -7.4644  -7.4635
    -7.4603  -7.4518  -7.4211  -7.3977  -7.3490  -7.3490  -7.3288  -7.3111
    -7.2875  -7.2809  -7.2782  -7.2648  -7.2502  -7.2308  -7.2234  -7.1737
    -7.0904  -7.0583  -7.0359  -7.0184  -6.9727  -6.9618  -6.9283  -6.9182
    -6.8788  -6.8719  -6.8479  -6.8448  -6.8387  -6.8030  -6.7454  -6.7161
    -6.7129  -6.7114  -6.6910  -6.6761  -6.6639  -6.6611  -6.6580  -6.6468
    -6.6171  -6.5882  -6.5718  -6.5714  -6.5668  -6.5629  -6.5590  -6.5550
    -6.5465  -6.5274  -6.5225  -6.5112  -6.5035  -6.4950  -6.4820  -6.4688
    -6.4666  -6.4634  -6.4580  -6.4154  -6.4033  -6.3969  -6.3969  -6.3969
    -6.3969  -6.3969  -6.3968  -6.3687  -6.3533  -6.3236  -6.3207  -6.3202
    -6.3187  -6.3184  -6.3163  -6.2974  -6.2830  -6.2625  -6.2309  -6.2203
    -6.1399  -6.0045  -5.8424  -5.7703  -5.5468  -5.4546  -5.3391  -5.3120
    -5.1722  -4.3361  -3.9149  -3.8830  -3.8789  -3.8765  -3.8759  -3.8570
    -3.8514  -3.8480  -3.8475  -3.8446  -3.8431  -3.8264  -3.7389  -3.6535
    -3.6466  -3.6319  -3.6278  -3.6247  -3.6169  -3.6127  -3.6113  -3.6067
    -3.6031  -3.5374  -3.5374  -3.5373  -3.5212  -3.5203  -3.5193  -3.5184
    -3.5181  -3.5174  -3.4867  -3.4701  -3.4699  -3.4699  -3.4461  -3.4297
    -3.4270  -3.4207  -3.4197  -3.4146  -3.4108  -3.4091  -3.4063  -3.4041
    -3.4011  -3.3899  -3.3846  -3.3817  -3.3731  -3.3472  -3.3265  -3.3163
    -3.3077  -3.3027  -3.2889  -3.2762  -3.2696  -3.2624  -3.2539  -3.2164
    -3.0730  -3.0712  -3.0711  -3.0685  -3.0658  -3.0657  -3.0032  -2.9995
    -2.9984  -2.9981  -2.9980  -2.9978  -2.9976  -2.9974  -2.9963  -2.9777
    -2.9775  -2.9761  -2.9624  -2.9581  -2.9434  -2.9399  -2.9337  -2.9316
    -2.9299  -2.9268  -2.9244  -2.9241  -2.9149  -2.9123  -2.9029  -2.8971
    -2.8914  -2.8648  -2.8499  -2.8408  -2.8308  -2.8263  -2.8144  -2.8096
    -2.8066  -2.7886  -2.7833  -2.7822  -2.7796  -2.7740  -2.7662  -2.7475
    -2.7405  -2.7382  -2.7065  -2.6929  -2.6761  -2.6730  -2.6679  -2.6509
    -2.6395  -2.5891  -2.5753  -2.5716  -2.5597  -2.5438  -2.5224  -2.5106
    -2.4987  -2.4953  -2.4866

          k = 0.0000-0.5773 0.0000 (321564 PWs)   bands (ev):

  -102.2000 -88.8379 -70.5394 -70.5379 -70.5136 -70.5084 -70.4960 -70.4847
   -70.4727 -66.7225 -66.7225 -66.7120 -66.7120 -66.6970 -66.6970 -66.6970
   -66.6970 -66.6926 -66.6926 -66.6864 -66.6864 -66.6864 -66.6864 -66.6820
   -66.6820 -66.6568 -66.6564 -66.6461 -66.6460 -66.6312 -66.6311 -66.6311
   -66.6309 -66.6269 -66.6264 -66.6208 -66.6207 -66.6204 -66.6200 -66.6161
   -66.6160 -66.5876 -66.5816 -66.5701 -66.5656 -66.5626 -66.5593 -66.5558
   -66.5488 -66.5422 -66.5405 -66.5379 -66.5370 -66.5323 -66.5249 -66.5083
   -66.4968 -56.4939 -56.4180 -56.3742 -54.6622 -54.6527 -54.5769 -41.0237
   -41.0237 -41.0237 -41.0237 -40.9970 -40.9970 -40.9851 -40.9851 -40.9568
   -40.9568 -40.9564 -40.9562 -40.9347 -40.9347 -40.9347 -40.9347 -40.9301
   -40.9298 -40.9181 -40.9179 -40.8842 -40.8767 -40.8767 -40.8750 -40.8688
   -40.8677 -40.8677 -40.8676 -40.8676 -40.8667 -40.8667 -40.8664 -40.8560
   -40.8560 -40.8557 -40.8488 -40.8319 -40.8266 -40.8266 -40.8266 -40.8266
   -40.8179 -40.8179 -40.8137 -40.8115 -40.8111 -40.8057 -40.8057 -40.8057
   -40.8057 -40.8057 -40.8057 -40.7999 -40.7998 -40.7971 -40.7970 -40.7906
   -40.7905 -40.7866 -40.7779 -40.7750 -40.7750 -40.7750 -40.7749 -40.7742
   -40.7740 -40.7613 -40.7613 -40.7612 -40.7610 -40.7533 -40.7527 -40.7523
   -40.7406 -40.7406 -40.7405 -40.7405 -40.7404 -40.7404 -40.7402 -40.7399
   -40.7389 -40.7388 -40.7380 -40.7344 -40.7317 -40.7317 -40.7284 -40.7284
   -40.7192 -40.7147 -40.7099 -40.7092 -40.7092 -40.7084 -40.7083 -40.7081
   -40.7077 -40.6998 -40.6943 -40.6923 -40.6923 -40.6910 -40.6887 -40.6870
   -40.6751 -40.6742 -40.6737 -40.6737 -40.6736 -40.6736 -40.6702 -40.6640
   -40.6619 -40.6618 -40.6618 -40.6614 -40.6590 -40.6571 -40.6558 -40.6519
   -40.6467 -40.6427 -40.6422 -40.6288 -40.6276 -40.6256 -40.6255 -40.6219
   -40.6177 -40.5953 -40.5949 -40.5927 -40.5869 -40.5836 -40.5803 -40.5762
   -40.5643 -40.5602 -40.5504 -40.5322 -40.5227 -40.5128 -40.4963 -19.9898
   -19.9244 -19.9043 -19.8130 -19.7467 -19.6913 -19.4994 -19.4909 -19.4455
   -19.3957 -19.3154 -19.2822 -19.0097 -18.8564 -18.8017 -18.7848 -18.7817
   -18.7807 -18.7768 -18.7518 -18.7382 -18.7038 -18.6722 -18.6552 -18.6436
   -18.6416 -18.6190 -18.5897 -18.5854 -18.5777 -18.5345 -18.5327 -18.5063
   -18.4949 -18.4632 -18.4466 -18.4370 -18.4324 -18.4152 -18.3527 -18.3423
   -18.3249 -18.2901 -18.2720 -18.2633 -18.2561 -18.2232 -18.2120 -18.1845
   -18.1694 -18.1686 -18.1684 -18.1683 -18.1669 -18.1442 -18.1414 -18.1142
   -18.1069 -18.0961 -18.0925 -18.0907 -18.0858 -18.0782 -18.0665 -18.0408
   -18.0323 -18.0225 -18.0189 -18.0127 -18.0063 -17.9870 -17.9829 -17.9774
   -17.9700 -17.9622 -17.9515 -17.9230 -17.9199 -17.9065 -17.9051 -17.9050
   -17.8975 -17.8566 -17.8544 -17.8452 -17.8451 -17.8356 -17.8290 -17.8285
   -17.8131 -17.7985 -17.7873 -17.7835 -17.7722 -17.7253 -17.7152 -12.0153
   -11.7836 -11.7186 -11.6917 -11.5856 -11.5172 -11.5164 -11.5132 -11.5117
   -11.4981 -11.4861 -11.4742 -11.4515 -11.4319 -11.4214 -11.4158 -11.4085
   -11.3793 -11.3603 -11.3516 -11.3428 -11.3238 -11.3226 -11.2979 -11.2979
   -11.2963 -11.2755 -11.2520 -11.2518 -11.2321 -11.2004 -11.1987 -11.1932
   -11.1918 -11.1477 -11.0829 -11.0410 -11.0267 -11.0122 -11.0061 -10.9886
   -10.9588 -10.9542 -10.9493 -10.9407 -10.9373 -10.9096 -10.8975 -10.8864
   -10.8754 -10.8714 -10.8709 -10.8702 -10.8665 -10.8612 -10.8535 -10.8353
   -10.8199 -10.8184 -10.8098 -10.8011 -10.7976 -10.7841 -10.7713 -10.6402
   -10.6225 -10.6093 -10.5345 -10.5306 -10.4764 -10.4187 -10.3862 -10.3443
   -10.2925 -10.2405 -10.2047 -10.1703 -10.1567 -10.1560 -10.1479 -10.1000
   -10.0689 -10.0581 -10.0445 -10.0034  -9.9801  -9.9789  -9.9761  -9.9735
    -9.9640  -9.9566  -9.9417  -9.9355  -9.9326  -9.9208  -9.8935  -9.8454
    -9.8281  -9.8037  -9.7984  -9.7920  -9.7913  -9.7708  -9.7667  -9.7518
    -9.7498  -9.7391  -9.7339  -9.7060  -9.6968  -9.6870  -9.6738  -9.6614
    -9.6530  -9.6500  -9.6386  -9.5938  -9.5821  -9.5719  -9.5696  -9.5578
    -9.5529  -9.5111  -9.5100  -9.4987  -9.4695  -9.4011  -9.3632  -9.3479
    -9.3199  -9.2984  -9.2487  -9.2322  -9.2149  -9.2056  -9.2002  -9.1832
    -9.1749  -9.1691  -9.1645  -9.1474  -9.1208  -9.1109  -9.0946  -9.0843
    -9.0677  -9.0590  -9.0525  -9.0400  -9.0262  -9.0133  -9.0091  -8.9980
    -8.9941  -8.9866  -8.9823  -8.9725  -8.9723  -8.9654  -8.9550  -8.9359
    -8.9265  -8.9087  -8.8983  -8.8958  -8.8938  -8.8825  -8.8805  -8.8790
    -8.8767  -8.8675  -8.8565  -8.8508  -8.8415  -8.8289  -8.8216  -8.8061
    -8.8029  -8.7905  -8.7805  -8.7581  -8.7425  -8.6543  -8.5633  -8.5535
    -8.5507  -8.5272  -8.4708  -8.4702  -8.4614  -8.3951  -8.3734  -8.2833
    -8.2342  -8.2342  -8.2233  -8.2051  -8.1624  -8.1619  -8.1456  -8.0991
    -8.0872  -8.0552  -7.9824  -7.9738  -7.9688  -7.9250  -7.9067  -7.9035
    -7.8960  -7.8924  -7.8875  -7.8875  -7.8870  -7.8818  -7.8784  -7.8587
    -7.8452  -7.8415  -7.8410  -7.8389  -7.8306  -7.8184  -7.8167  -7.8058
    -7.7993  -7.7926  -7.7867  -7.7795  -7.7741  -7.7681  -7.7662  -7.7595
    -7.7570  -7.7417  -7.7330  -7.7256  -7.7222  -7.7059  -7.7023  -7.7022
    -7.6916  -7.6896  -7.6744  -7.6648  -7.6556  -7.6462  -7.6369  -7.6322
    -7.6173  -7.6153  -7.5902  -7.5814  -7.5577  -7.5500  -7.5254  -7.5014
    -7.4809  -7.4108  -7.3427  -7.3062  -7.2917  -7.2818  -7.2655  -7.2553
    -7.2384  -7.1910  -7.1710  -7.1542  -7.1515  -7.0999  -7.0855  -7.0705
    -7.0564  -7.0496  -7.0476  -7.0313  -6.9916  -6.9861  -6.9783  -6.9587
    -6.9427  -6.9249  -6.9088  -6.9049  -6.8740  -6.8667  -6.8569  -6.8113
    -6.7620  -6.7510  -6.7423  -6.7085  -6.6993  -6.6992  -6.6991  -6.6991
    -6.6860  -6.6593  -6.6412  -6.6323  -6.6303  -6.6295  -6.6283  -6.6105
    -6.5940  -6.5798  -6.5330  -6.5234  -6.4903  -6.4725  -6.4520  -6.4411
    -6.3756  -6.3677  -6.3675  -6.3668  -6.3634  -6.3084  -6.3032  -6.2896
    -6.2886  -6.2842  -6.2817  -6.2744  -6.2513  -6.2434  -6.2372  -6.1961
    -6.1751  -6.0611  -6.0191  -6.0190  -5.9531  -5.9440  -5.9306  -5.9266
    -5.8528  -5.7861  -5.6938  -5.6828  -5.6146  -5.5754  -5.4185  -5.3419
    -5.2876  -4.3513  -4.0659  -4.0579  -4.0545  -4.0332  -3.9346  -3.9344
    -3.9174  -3.8976  -3.8698  -3.8696  -3.8475  -3.8143  -3.8074  -3.8013
    -3.7923  -3.7623  -3.7197  -3.6619  -3.6425  -3.6370  -3.6344  -3.6322
    -3.6197  -3.6196  -3.6124  -3.5862  -3.5820  -3.5508  -3.5409  -3.5401
    -3.5292  -3.5182  -3.5154  -3.5105  -3.5049  -3.5017  -3.4983  -3.4506
    -3.4405  -3.4313  -3.4151  -3.3967  -3.3905  -3.3874  -3.3870  -3.3761
    -3.3591  -3.3552  -3.3468  -3.3435  -3.3376  -3.3124  -3.3109  -3.3106
    -3.3101  -3.3089  -3.2819  -3.2759  -3.2712  -3.2668  -3.2562  -3.2433
    -3.2424  -3.2327  -3.2272  -3.2207  -3.2180  -3.1921  -3.1717  -3.1541
    -3.1481  -3.1413  -3.1142  -3.1076  -3.1064  -3.0748  -3.0683  -3.0659
    -3.0646  -3.0477  -3.0474  -3.0471  -3.0467  -3.0126  -3.0041  -2.9986
    -2.9978  -2.9843  -2.9706  -2.9607  -2.9569  -2.9531  -2.9514  -2.9367
    -2.9303  -2.9256  -2.9179  -2.9122  -2.9018  -2.8919  -2.8754  -2.8630
    -2.8585  -2.8455  -2.8376  -2.8357  -2.8323  -2.7671  -2.7650  -2.7392
    -2.7339  -2.7018  -2.6912  -2.6848  -2.6831  -2.6670  -2.6653  -2.6044
    -2.6006  -2.5883  -2.5503  -2.5333  -2.5273  -2.5252  -2.5070  -2.4741
    -2.4027  -2.3638  -2.3316

          k =-0.5000-0.2887 0.0000 (321564 PWs)   bands (ev):

  -102.2000 -88.8379 -70.5394 -70.5379 -70.5136 -70.5084 -70.4960 -70.4847
   -70.4728 -66.7225 -66.7225 -66.7120 -66.7120 -66.6970 -66.6970 -66.6970
   -66.6970 -66.6926 -66.6926 -66.6864 -66.6864 -66.6864 -66.6864 -66.6820
   -66.6820 -66.6566 -66.6565 -66.6461 -66.6460 -66.6312 -66.6312 -66.6311
   -66.6309 -66.6267 -66.6266 -66.6206 -66.6206 -66.6205 -66.6203 -66.6161
   -66.6160 -66.5875 -66.5818 -66.5704 -66.5658 -66.5613 -66.5591 -66.5569
   -66.5487 -66.5431 -66.5404 -66.5377 -66.5350 -66.5338 -66.5248 -66.5083
   -66.4968 -56.4939 -56.4180 -56.3742 -54.6622 -54.6527 -54.5769 -41.0237
   -41.0237 -41.0237 -41.0236 -40.9970 -40.9970 -40.9851 -40.9851 -40.9567
   -40.9566 -40.9566 -40.9564 -40.9347 -40.9347 -40.9347 -40.9347 -40.9300
   -40.9299 -40.9181 -40.9179 -40.8818 -40.8787 -40.8767 -40.8767 -40.8727
   -40.8677 -40.8677 -40.8676 -40.8676 -40.8667 -40.8667 -40.8613 -40.8560
   -40.8560 -40.8548 -40.8497 -40.8304 -40.8266 -40.8266 -40.8266 -40.8266
   -40.8179 -40.8179 -40.8149 -40.8114 -40.8112 -40.8057 -40.8057 -40.8057
   -40.8057 -40.8057 -40.8056 -40.7999 -40.7998 -40.7970 -40.7970 -40.7906
   -40.7905 -40.7834 -40.7787 -40.7772 -40.7750 -40.7750 -40.7750 -40.7749
   -40.7743 -40.7613 -40.7613 -40.7611 -40.7610 -40.7526 -40.7525 -40.7514
   -40.7444 -40.7405 -40.7405 -40.7405 -40.7404 -40.7404 -40.7404 -40.7404
   -40.7401 -40.7389 -40.7388 -40.7317 -40.7317 -40.7295 -40.7284 -40.7284
   -40.7157 -40.7147 -40.7104 -40.7092 -40.7092 -40.7083 -40.7081 -40.7081
   -40.7080 -40.7060 -40.6948 -40.6923 -40.6923 -40.6913 -40.6880 -40.6827
   -40.6786 -40.6737 -40.6737 -40.6736 -40.6736 -40.6709 -40.6682 -40.6660
   -40.6619 -40.6618 -40.6617 -40.6615 -40.6610 -40.6576 -40.6554 -40.6506
   -40.6465 -40.6425 -40.6423 -40.6277 -40.6268 -40.6256 -40.6255 -40.6216
   -40.6195 -40.5952 -40.5951 -40.5921 -40.5893 -40.5850 -40.5783 -40.5744
   -40.5634 -40.5592 -40.5534 -40.5358 -40.5192 -40.5105 -40.4981 -19.9891
   -19.9244 -19.9043 -19.8147 -19.7467 -19.6938 -19.4946 -19.4922 -19.4304
   -19.4055 -19.3113 -19.2907 -19.0193 -18.8365 -18.8136 -18.7847 -18.7816
   -18.7808 -18.7769 -18.7577 -18.7316 -18.7031 -18.6707 -18.6515 -18.6503
   -18.6390 -18.6183 -18.5897 -18.5859 -18.5789 -18.5335 -18.5331 -18.4982
   -18.4932 -18.4707 -18.4519 -18.4383 -18.4279 -18.4154 -18.3583 -18.3494
   -18.3125 -18.2913 -18.2767 -18.2624 -18.2577 -18.2254 -18.2002 -18.1945
   -18.1686 -18.1685 -18.1684 -18.1684 -18.1606 -18.1438 -18.1407 -18.1096
   -18.1085 -18.0962 -18.0917 -18.0908 -18.0852 -18.0759 -18.0701 -18.0417
   -18.0327 -18.0292 -18.0148 -18.0123 -18.0075 -17.9870 -17.9818 -17.9761
   -17.9708 -17.9629 -17.9529 -17.9218 -17.9172 -17.9084 -17.9050 -17.9050
   -17.8983 -17.8571 -17.8513 -17.8454 -17.8451 -17.8380 -17.8293 -17.8285
   -17.8169 -17.7975 -17.7873 -17.7838 -17.7702 -17.7247 -17.7151 -12.0192
   -11.7687 -11.7148 -11.6813 -11.5966 -11.5250 -11.5165 -11.5158 -11.5112
   -11.4963 -11.4909 -11.4834 -11.4725 -11.4374 -11.4173 -11.4124 -11.4066
   -11.3829 -11.3644 -11.3578 -11.3414 -11.3234 -11.3215 -11.2979 -11.2979
   -11.2834 -11.2613 -11.2521 -11.2516 -11.2205 -11.2005 -11.1954 -11.1943
   -11.1921 -11.1420 -11.0823 -11.0467 -11.0283 -11.0150 -11.0052 -10.9866
   -10.9628 -10.9537 -10.9516 -10.9416 -10.9217 -10.9154 -10.8937 -10.8856
   -10.8782 -10.8715 -10.8709 -10.8701 -10.8685 -10.8625 -10.8525 -10.8367
   -10.8327 -10.8177 -10.8071 -10.8015 -10.7996 -10.7885 -10.7569 -10.6562
   -10.6200 -10.5797 -10.5366 -10.5277 -10.4591 -10.4225 -10.3911 -10.3670
   -10.3102 -10.2576 -10.2065 -10.1722 -10.1618 -10.1558 -10.1431 -10.0939
   -10.0730 -10.0528 -10.0412  -9.9922  -9.9793  -9.9766  -9.9764  -9.9729
    -9.9681  -9.9434  -9.9401  -9.9348  -9.9332  -9.9194  -9.8916  -9.8414
    -9.8347  -9.8037  -9.8007  -9.7925  -9.7892  -9.7719  -9.7606  -9.7521
    -9.7499  -9.7410  -9.7324  -9.7092  -9.6946  -9.6871  -9.6765  -9.6591
    -9.6513  -9.6459  -9.6446  -9.5920  -9.5816  -9.5712  -9.5705  -9.5606
    -9.5464  -9.5123  -9.5100  -9.4988  -9.4763  -9.4141  -9.3625  -9.3564
    -9.3172  -9.2960  -9.2474  -9.2332  -9.2201  -9.1987  -9.1929  -9.1908
    -9.1756  -9.1675  -9.1642  -9.1474  -9.1214  -9.1074  -9.0897  -9.0826
    -9.0592  -9.0567  -9.0469  -9.0350  -9.0303  -9.0180  -9.0106  -8.9976
    -8.9926  -8.9857  -8.9760  -8.9732  -8.9717  -8.9654  -8.9581  -8.9337
    -8.9330  -8.9093  -8.8984  -8.8962  -8.8897  -8.8842  -8.8805  -8.8785
    -8.8760  -8.8700  -8.8595  -8.8532  -8.8432  -8.8337  -8.8230  -8.8063
    -8.8024  -8.7911  -8.7813  -8.7589  -8.7381  -8.6380  -8.5777  -8.5536
    -8.5521  -8.5382  -8.4725  -8.4663  -8.4607  -8.4129  -8.3672  -8.2755
    -8.2342  -8.2342  -8.2176  -8.1908  -8.1629  -8.1616  -8.1485  -8.1107
    -8.0986  -8.0134  -7.9982  -7.9736  -7.9705  -7.9159  -7.9068  -7.9061
    -7.8964  -7.8909  -7.8875  -7.8875  -7.8866  -7.8851  -7.8786  -7.8494
    -7.8470  -7.8416  -7.8410  -7.8356  -7.8289  -7.8217  -7.8167  -7.8120
    -7.7989  -7.7937  -7.7885  -7.7808  -7.7732  -7.7692  -7.7662  -7.7609
    -7.7560  -7.7444  -7.7312  -7.7277  -7.7218  -7.7081  -7.7023  -7.7022
    -7.6886  -7.6859  -7.6763  -7.6669  -7.6601  -7.6409  -7.6369  -7.6325
    -7.6253  -7.6180  -7.5894  -7.5792  -7.5650  -7.5476  -7.5347  -7.4985
    -7.4834  -7.4113  -7.3573  -7.3092  -7.2941  -7.2792  -7.2705  -7.2572
    -7.2306  -7.1796  -7.1699  -7.1494  -7.1433  -7.0994  -7.0924  -7.0669
    -7.0514  -7.0495  -7.0353  -7.0237  -6.9909  -6.9886  -6.9818  -6.9452
    -6.9429  -6.9303  -6.9197  -6.9035  -6.8776  -6.8700  -6.8470  -6.8168
    -6.7700  -6.7412  -6.7274  -6.7153  -6.7006  -6.6992  -6.6992  -6.6989
    -6.6981  -6.6720  -6.6353  -6.6332  -6.6310  -6.6284  -6.6260  -6.6006
    -6.5947  -6.5764  -6.5501  -6.5093  -6.5024  -6.4821  -6.4732  -6.4519
    -6.3688  -6.3678  -6.3674  -6.3671  -6.3463  -6.3032  -6.3002  -6.2909
    -6.2857  -6.2831  -6.2814  -6.2660  -6.2460  -6.2421  -6.2213  -6.2095
    -6.1810  -6.0260  -6.0191  -6.0190  -5.9739  -5.9473  -5.9389  -5.9300
    -5.8666  -5.7884  -5.6877  -5.6857  -5.6201  -5.5599  -5.4241  -5.3368
    -5.2902  -4.3328  -4.0650  -4.0583  -4.0549  -4.0292  -3.9344  -3.9344
    -3.9202  -3.8996  -3.8698  -3.8696  -3.8480  -3.8157  -3.8087  -3.8022
    -3.7925  -3.7594  -3.7217  -3.6666  -3.6408  -3.6366  -3.6350  -3.6341
    -3.6202  -3.6200  -3.6168  -3.5865  -3.5797  -3.5448  -3.5427  -3.5418
    -3.5368  -3.5179  -3.5138  -3.5084  -3.5064  -3.5030  -3.5012  -3.4577
    -3.4530  -3.4236  -3.4116  -3.3958  -3.3924  -3.3890  -3.3872  -3.3840
    -3.3588  -3.3550  -3.3520  -3.3473  -3.3284  -3.3134  -3.3110  -3.3106
    -3.3102  -3.3081  -3.2859  -3.2766  -3.2706  -3.2669  -3.2494  -3.2389
    -3.2378  -3.2348  -3.2325  -3.2228  -3.2179  -3.1871  -3.1638  -3.1531
    -3.1487  -3.1366  -3.1246  -3.1078  -3.1057  -3.0717  -3.0692  -3.0661
    -3.0653  -3.0477  -3.0476  -3.0473  -3.0471  -3.0126  -3.0032  -2.9990
    -2.9980  -2.9838  -2.9731  -2.9657  -2.9596  -2.9529  -2.9519  -2.9459
    -2.9343  -2.9209  -2.9171  -2.9101  -2.8999  -2.8936  -2.8747  -2.8622
    -2.8538  -2.8450  -2.8391  -2.8340  -2.8297  -2.7698  -2.7656  -2.7434
    -2.7300  -2.7043  -2.6876  -2.6843  -2.6819  -2.6678  -2.6629  -2.6041
    -2.6002  -2.5852  -2.5450  -2.5315  -2.5242  -2.5193  -2.5005  -2.4614
    -2.4049  -2.3551  -2.3130

          k =-0.5000-0.8660 0.0000 (321564 PWs)   bands (ev):

  -102.2000 -88.8379 -70.5394 -70.5379 -70.5136 -70.5084 -70.4960 -70.4847
   -70.4728 -66.7225 -66.7225 -66.7120 -66.7120 -66.6970 -66.6970 -66.6970
   -66.6970 -66.6926 -66.6926 -66.6864 -66.6864 -66.6864 -66.6864 -66.6820
   -66.6820 -66.6567 -66.6564 -66.6461 -66.6460 -66.6312 -66.6312 -66.6310
   -66.6309 -66.6268 -66.6265 -66.6209 -66.6205 -66.6203 -66.6202 -66.6161
   -66.6160 -66.5886 -66.5775 -66.5737 -66.5679 -66.5620 -66.5565 -66.5552
   -66.5496 -66.5432 -66.5399 -66.5381 -66.5353 -66.5343 -66.5245 -66.5083
   -66.4968 -56.4939 -56.4180 -56.3742 -54.6622 -54.6527 -54.5769 -41.0237
   -41.0237 -41.0237 -41.0236 -40.9970 -40.9970 -40.9851 -40.9851 -40.9569
   -40.9565 -40.9564 -40.9564 -40.9347 -40.9347 -40.9347 -40.9347 -40.9301
   -40.9298 -40.9181 -40.9180 -40.8920 -40.8767 -40.8767 -40.8759 -40.8677
   -40.8676 -40.8676 -40.8676 -40.8667 -40.8667 -40.8644 -40.8581 -40.8560
   -40.8560 -40.8506 -40.8453 -40.8334 -40.8266 -40.8266 -40.8266 -40.8266
   -40.8241 -40.8179 -40.8179 -40.8114 -40.8111 -40.8057 -40.8057 -40.8057
   -40.8057 -40.8057 -40.8056 -40.7999 -40.7998 -40.7971 -40.7970 -40.7906
   -40.7906 -40.7858 -40.7825 -40.7790 -40.7750 -40.7750 -40.7750 -40.7749
   -40.7730 -40.7613 -40.7613 -40.7611 -40.7610 -40.7527 -40.7524 -40.7512
   -40.7452 -40.7408 -40.7405 -40.7405 -40.7405 -40.7404 -40.7403 -40.7401
   -40.7401 -40.7389 -40.7388 -40.7317 -40.7317 -40.7284 -40.7284 -40.7261
   -40.7181 -40.7122 -40.7092 -40.7092 -40.7090 -40.7083 -40.7083 -40.7080
   -40.7079 -40.7066 -40.6937 -40.6923 -40.6923 -40.6913 -40.6850 -40.6826
   -40.6772 -40.6738 -40.6737 -40.6736 -40.6736 -40.6730 -40.6705 -40.6672
   -40.6619 -40.6618 -40.6618 -40.6614 -40.6607 -40.6556 -40.6537 -40.6487
   -40.6467 -40.6426 -40.6423 -40.6348 -40.6266 -40.6256 -40.6255 -40.6199
   -40.6114 -40.5953 -40.5949 -40.5920 -40.5857 -40.5851 -40.5818 -40.5799
   -40.5618 -40.5579 -40.5538 -40.5355 -40.5286 -40.5131 -40.4899 -19.9939
   -19.9239 -19.9048 -19.8081 -19.7463 -19.6832 -19.4994 -19.4921 -19.4447
   -19.4060 -19.3151 -19.2909 -19.0125 -18.8348 -18.7927 -18.7906 -18.7828
   -18.7805 -18.7765 -18.7555 -18.7329 -18.7062 -18.6749 -18.6533 -18.6459
   -18.6373 -18.6284 -18.5888 -18.5798 -18.5774 -18.5346 -18.5328 -18.5064
   -18.4890 -18.4599 -18.4521 -18.4401 -18.4330 -18.4040 -18.3725 -18.3414
   -18.3138 -18.3072 -18.2736 -18.2594 -18.2565 -18.2341 -18.2113 -18.1840
   -18.1686 -18.1685 -18.1684 -18.1683 -18.1612 -18.1492 -18.1398 -18.1264
   -18.1046 -18.0931 -18.0921 -18.0887 -18.0869 -18.0824 -18.0527 -18.0480
   -18.0311 -18.0265 -18.0162 -18.0089 -18.0078 -17.9889 -17.9808 -17.9739
   -17.9648 -17.9630 -17.9476 -17.9288 -17.9158 -17.9051 -17.9050 -17.9001
   -17.8976 -17.8617 -17.8502 -17.8453 -17.8451 -17.8294 -17.8288 -17.8199
   -17.8170 -17.8025 -17.7915 -17.7843 -17.7787 -17.7216 -17.7196 -12.0351
   -11.7907 -11.7179 -11.6815 -11.5796 -11.5159 -11.5157 -11.5135 -11.5116
   -11.4948 -11.4904 -11.4608 -11.4352 -11.4326 -11.4168 -11.4142 -11.3992
   -11.3734 -11.3511 -11.3418 -11.3353 -11.3319 -11.3225 -11.3059 -11.2979
   -11.2978 -11.2683 -11.2524 -11.2521 -11.2386 -11.2103 -11.1965 -11.1919
   -11.1913 -11.1531 -11.0955 -11.0338 -11.0252 -11.0129 -11.0028 -10.9918
   -10.9657 -10.9554 -10.9526 -10.9393 -10.9258 -10.9216 -10.8941 -10.8846
   -10.8789 -10.8721 -10.8717 -10.8698 -10.8691 -10.8669 -10.8660 -10.8369
   -10.8308 -10.8112 -10.8066 -10.8023 -10.7948 -10.7827 -10.7301 -10.6764
   -10.6275 -10.6074 -10.5498 -10.5312 -10.5043 -10.4164 -10.3920 -10.3758
   -10.2735 -10.2105 -10.1702 -10.1681 -10.1629 -10.1517 -10.1151 -10.0978
   -10.0810 -10.0735 -10.0160 -10.0052 -10.0025  -9.9788  -9.9764  -9.9692
    -9.9664  -9.9604  -9.9490  -9.9384  -9.9324  -9.9240  -9.9150  -9.8530
    -9.8319  -9.8209  -9.8169  -9.7922  -9.7875  -9.7757  -9.7598  -9.7540
    -9.7515  -9.7427  -9.7378  -9.7044  -9.6998  -9.6819  -9.6783  -9.6747
    -9.6532  -9.6496  -9.6377  -9.6238  -9.5793  -9.5720  -9.5690  -9.5568
    -9.5411  -9.5108  -9.5096  -9.4868  -9.4707  -9.3771  -9.3708  -9.3199
    -9.3056  -9.2621  -9.2391  -9.2363  -9.2282  -9.1999  -9.1827  -9.1763
    -9.1684  -9.1673  -9.1652  -9.1325  -9.1215  -9.1175  -9.0967  -9.0790
    -9.0734  -9.0564  -9.0544  -9.0370  -9.0287  -9.0243  -9.0002  -8.9970
    -8.9920  -8.9842  -8.9788  -8.9746  -8.9722  -8.9638  -8.9515  -8.9427
    -8.9315  -8.9165  -8.9095  -8.8984  -8.8936  -8.8931  -8.8856  -8.8805
    -8.8798  -8.8695  -8.8580  -8.8456  -8.8413  -8.8279  -8.8137  -8.8083
    -8.8031  -8.7849  -8.7780  -8.7593  -8.7423  -8.6074  -8.5809  -8.5646
    -8.5517  -8.5515  -8.4717  -8.4674  -8.4439  -8.4016  -8.3348  -8.2748
    -8.2680  -8.2342  -8.2342  -8.1941  -8.1624  -8.1620  -8.1474  -8.1166
    -8.0932  -8.0257  -7.9787  -7.9755  -7.9724  -7.9578  -7.9065  -7.8996
    -7.8977  -7.8948  -7.8876  -7.8875  -7.8859  -7.8857  -7.8802  -7.8661
    -7.8445  -7.8419  -7.8412  -7.8410  -7.8255  -7.8198  -7.8170  -7.8111
    -7.7993  -7.7970  -7.7930  -7.7840  -7.7710  -7.7698  -7.7629  -7.7593
    -7.7492  -7.7429  -7.7329  -7.7286  -7.7178  -7.7081  -7.7025  -7.7023
    -7.6966  -7.6945  -7.6820  -7.6702  -7.6639  -7.6448  -7.6328  -7.6279
    -7.6224  -7.6094  -7.5940  -7.5766  -7.5668  -7.5646  -7.5027  -7.4930
    -7.4791  -7.4063  -7.3786  -7.3050  -7.2968  -7.2785  -7.2725  -7.2570
    -7.2199  -7.2051  -7.1739  -7.1583  -7.1444  -7.1033  -7.0855  -7.0554
    -7.0492  -7.0455  -7.0295  -7.0094  -6.9932  -6.9847  -6.9818  -6.9749
    -6.9427  -6.9199  -6.8827  -6.8793  -6.8691  -6.8607  -6.8364  -6.8211
    -6.7842  -6.7631  -6.7335  -6.7009  -6.6992  -6.6992  -6.6992  -6.6957
    -6.6828  -6.6623  -6.6399  -6.6319  -6.6312  -6.6286  -6.6264  -6.6021
    -6.5885  -6.5811  -6.5640  -6.5437  -6.5111  -6.4887  -6.4728  -6.3701
    -6.3681  -6.3675  -6.3674  -6.3622  -6.3311  -6.3083  -6.3030  -6.2959
    -6.2884  -6.2862  -6.2845  -6.2804  -6.2636  -6.2303  -6.2287  -6.2101
    -6.1815  -6.1490  -6.0271  -6.0190  -6.0188  -5.9423  -5.9411  -5.8856
    -5.8098  -5.7942  -5.6965  -5.6870  -5.5811  -5.5657  -5.4253  -5.3222
    -5.2830  -4.3203  -4.0654  -4.0554  -4.0534  -4.0283  -3.9344  -3.9344
    -3.9273  -3.9028  -3.8699  -3.8693  -3.8522  -3.8089  -3.8015  -3.7983
    -3.7933  -3.7559  -3.7271  -3.6735  -3.6405  -3.6377  -3.6344  -3.6337
    -3.6202  -3.6200  -3.6111  -3.5854  -3.5739  -3.5474  -3.5420  -3.5400
    -3.5327  -3.5210  -3.5165  -3.5123  -3.5097  -3.5002  -3.4996  -3.4648
    -3.4565  -3.4352  -3.4118  -3.4089  -3.3895  -3.3884  -3.3867  -3.3864
    -3.3580  -3.3562  -3.3519  -3.3460  -3.3221  -3.3116  -3.3106  -3.3103
    -3.3100  -3.2994  -3.2918  -3.2795  -3.2706  -3.2629  -3.2477  -3.2420
    -3.2411  -3.2366  -3.2285  -3.2258  -3.2165  -3.1942  -3.1725  -3.1572
    -3.1480  -3.1414  -3.1250  -3.1079  -3.1056  -3.0717  -3.0669  -3.0665
    -3.0592  -3.0483  -3.0474  -3.0471  -3.0468  -3.0149  -3.0036  -2.9988
    -2.9974  -2.9833  -2.9767  -2.9711  -2.9598  -2.9504  -2.9498  -2.9452
    -2.9336  -2.9217  -2.9194  -2.9130  -2.9005  -2.8935  -2.8777  -2.8636
    -2.8478  -2.8380  -2.8342  -2.8330  -2.8276  -2.7701  -2.7641  -2.7435
    -2.7313  -2.7011  -2.6858  -2.6845  -2.6739  -2.6718  -2.6635  -2.6031
    -2.5999  -2.5796  -2.5448  -2.5370  -2.5230  -2.5190  -2.4963  -2.4747
    -2.3997  -2.3618  -2.3167

     the Fermi energy is    -4.7697 ev

!    total energy              =  -26031.78464208 Ry
     total all-electron energy =   -512284.354270 Ry
     estimated scf accuracy    <       0.00000052 Ry
     smearing contrib. (-TS)   =      -0.00000046 Ry
     internal energy E=F+TS    =  -26031.78464162 Ry

     The total energy is F=E-TS. E is the sum of the following terms:
     one-electron contribution =  492260.75420673 Ry
     hartree contribution      = -246273.71350990 Ry
     xc contribution           =   -1534.61143329 Ry
     ewald contribution        = -254291.42624845 Ry
     DFT-D3 Dispersion         =      -4.02026660 Ry
     one-center paw contrib.   =  -16188.76739011 Ry

     convergence has been achieved in  22 iterations

     negative rho (up, down):  9.158E-04 0.000E+00

     Forces acting on atoms (cartesian axes, Ry/au):

     atom    1 type  1   force =    -0.00088524   -0.00000418   -0.03267659
     atom    2 type  1   force =    -0.00000359    0.00000962    0.00188938
     atom    3 type  1   force =     0.00001432   -0.00001336   -0.00000556
     atom    4 type  2   force =    -0.00000545    0.00000010   -0.00314965
     atom    5 type  2   force =     0.00000288   -0.00000350    0.00007970
     atom    6 type  2   force =     0.00071999    0.00021762    0.00375801
     atom    7 type  2   force =    -0.00000294   -0.00000253    0.00138744
     atom    8 type  2   force =     0.00000746   -0.00003501   -0.00001993
     atom    9 type  2   force =    -0.01518628   -0.01164777    0.02292894
     atom   10 type  1   force =    -0.00140978    0.00560150    0.00299526
     atom   11 type  1   force =     0.00000168   -0.00001501    0.00188522
     atom   12 type  1   force =    -0.00004974   -0.00000941    0.00000974
     atom   13 type  2   force =     0.00000123   -0.00000758   -0.00315138
     atom   14 type  2   force =    -0.00002686   -0.00001993    0.00008271
     atom   15 type  2   force =    -0.00121577    0.00037033   -0.00159305
     atom   16 type  2   force =     0.00000098   -0.00000675    0.00139856
     atom   17 type  2   force =    -0.00005586   -0.00003819   -0.00007628
     atom   18 type  2   force =     0.00008436   -0.00039644   -0.00254494
     atom   19 type  1   force =     0.00041684   -0.00011620    0.00076702
     atom   20 type  1   force =     0.00000481    0.00001136    0.00188284
     atom   21 type  1   force =     0.00002812    0.00007792   -0.00006618
     atom   22 type  2   force =     0.00000029    0.00000053   -0.00315232
     atom   23 type  2   force =     0.00000765    0.00000565    0.00006056
     atom   24 type  2   force =     0.00007639   -0.00004861   -0.00029454
     atom   25 type  2   force =    -0.00000088   -0.00000127    0.00137713
     atom   26 type  2   force =    -0.00002683    0.00003398   -0.00006880
     atom   27 type  2   force =     0.00029752    0.00049523   -0.00011520
     atom   28 type  1   force =     0.00181497   -0.00289061   -0.00281886
     atom   29 type  1   force =    -0.00000117   -0.00000170    0.00189121
     atom   30 type  1   force =     0.00000041   -0.00003918    0.00000460
     atom   31 type  2   force =    -0.00000116   -0.00000056   -0.00314330
     atom   32 type  2   force =    -0.00000089    0.00000372    0.00004367
     atom   33 type  2   force =    -0.00012813   -0.00099772   -0.00133513
     atom   34 type  2   force =    -0.00000617    0.00000285    0.00138066
     atom   35 type  2   force =    -0.00000239   -0.00000966   -0.00006908
     atom   36 type  2   force =     0.00018762    0.00114341   -0.00139786
     atom   37 type  1   force =     0.00511510   -0.00100029   -0.00101345
     atom   38 type  1   force =     0.00000183   -0.00001984    0.00187948
     atom   39 type  1   force =    -0.00003898   -0.00000221   -0.00001500
     atom   40 type  2   force =     0.00000160   -0.00000244   -0.00314734
     atom   41 type  2   force =    -0.00001588   -0.00000302    0.00007982
     atom   42 type  2   force =     0.00027562    0.00058993    0.00396417
     atom   43 type  2   force =    -0.00000259    0.00000054    0.00138860
     atom   44 type  2   force =    -0.00001459   -0.00002115   -0.00001738
     atom   45 type  2   force =     0.01310253   -0.01046120    0.02327563
     atom   46 type  1   force =     0.00135949    0.00213652    0.00190590
     atom   47 type  1   force =    -0.00001666   -0.00001636    0.00188280
     atom   48 type  1   force =    -0.00001106   -0.00004043   -0.00001246
     atom   49 type  2   force =    -0.00000582   -0.00000621   -0.00314454
     atom   50 type  2   force =    -0.00000647    0.00000239    0.00008770
     atom   51 type  2   force =     0.00025065   -0.00076325    0.00342530
     atom   52 type  2   force =    -0.00000660   -0.00000009    0.00138291
     atom   53 type  2   force =     0.00000515    0.00001349   -0.00003371
     atom   54 type  2   force =     0.00519004    0.02302258    0.01138928
     atom   55 type  1   force =    -0.00017431   -0.00184055    0.00063812
     atom   56 type  1   force =    -0.00000988    0.00001300    0.00189273
     atom   57 type  1   force =    -0.00002287    0.00004104   -0.00000893
     atom   58 type  2   force =    -0.00000336   -0.00000170   -0.00315013
     atom   59 type  2   force =     0.00000193   -0.00000438    0.00008973
     atom   60 type  2   force =     0.00015572   -0.00102627   -0.00012923
     atom   61 type  2   force =     0.00000289   -0.00000350    0.00138680
     atom   62 type  2   force =     0.00002243   -0.00000430   -0.00004765
     atom   63 type  2   force =     0.00024232    0.00009893    0.00014846
     atom   64 type  1   force =    -0.00078640    0.00006198    0.00039361
     atom   65 type  1   force =    -0.00000441    0.00000140    0.00188742
     atom   66 type  1   force =    -0.00003967   -0.00004076   -0.00003196
     atom   67 type  2   force =    -0.00000085    0.00000002   -0.00314579
     atom   68 type  2   force =    -0.00000685   -0.00001052    0.00005897
     atom   69 type  2   force =     0.00001530   -0.00004150   -0.00000701
     atom   70 type  2   force =     0.00000443    0.00000118    0.00138102
     atom   71 type  2   force =    -0.00001573    0.00000228   -0.00008341
     atom   72 type  2   force =     0.00022376   -0.00011763    0.00061572
     atom   73 type  1   force =     0.00022274   -0.00021785    0.00053471
     atom   74 type  1   force =    -0.00000753   -0.00000664    0.00188812
     atom   75 type  1   force =     0.00004439   -0.00000589    0.00000096
     atom   76 type  2   force =    -0.00000251   -0.00000229   -0.00314556
     atom   77 type  2   force =     0.00005122    0.00002153    0.00010620
     atom   78 type  2   force =    -0.00034586    0.00040616   -0.00004685
     atom   79 type  2   force =    -0.00000311   -0.00000406    0.00137977
     atom   80 type  2   force =    -0.00003465   -0.00003130   -0.00002273
     atom   81 type  2   force =     0.00068168   -0.00006613    0.00004853
     atom   82 type  1   force =    -0.00018372    0.00093888    0.00036360
     atom   83 type  1   force =     0.00000870   -0.00001498    0.00188834
     atom   84 type  1   force =     0.00003078   -0.00000203    0.00002300
     atom   85 type  2   force =     0.00000048   -0.00000736   -0.00315340
     atom   86 type  2   force =     0.00001923   -0.00001971    0.00006856
     atom   87 type  2   force =     0.00140121    0.00035428   -0.00103061
     atom   88 type  2   force =     0.00000031   -0.00000121    0.00139156
     atom   89 type  2   force =     0.00005895   -0.00003093   -0.00008326
     atom   90 type  2   force =    -0.00112217    0.00278324   -0.00581895
     atom   91 type  1   force =    -0.00029655   -0.00046834    0.00048508
     atom   92 type  1   force =    -0.00000420    0.00000496    0.00188599
     atom   93 type  1   force =     0.00002549    0.00005367   -0.00000341
     atom   94 type  2   force =    -0.00000264   -0.00000128   -0.00315653
     atom   95 type  2   force =    -0.00001136    0.00000119    0.00006816
     atom   96 type  2   force =     0.00032135   -0.00030456    0.00014995
     atom   97 type  2   force =    -0.00000506    0.00000215    0.00139076
     atom   98 type  2   force =    -0.00000009    0.00000860   -0.00007189
     atom   99 type  2   force =     0.00142714    0.00035438    0.00242594
     atom  100 type  1   force =     0.00077983    0.00010863   -0.00003723
     atom  101 type  1   force =    -0.00000378    0.00000567    0.00188681
     atom  102 type  1   force =    -0.00000843    0.00001675   -0.00001571
     atom  103 type  2   force =    -0.00000050    0.00000145   -0.00314649
     atom  104 type  2   force =     0.00000201    0.00002415    0.00007338
     atom  105 type  2   force =    -0.00005277   -0.00000536   -0.00001573
     atom  106 type  2   force =     0.00000303   -0.00000125    0.00138479
     atom  107 type  2   force =    -0.00000040    0.00004614   -0.00008355
     atom  108 type  2   force =     0.00005132    0.00010656    0.00014351
     atom  109 type  1   force =    -0.00377770   -0.00076760   -0.00087639
     atom  110 type  1   force =     0.00000473   -0.00000455    0.00188312
     atom  111 type  1   force =    -0.00003741    0.00001009    0.00012930
     atom  112 type  2   force =     0.00000150   -0.00000312   -0.00314992
     atom  113 type  2   force =    -0.00004193    0.00002434    0.00011436
     atom  114 type  2   force =     0.00010524    0.00044096   -0.00040463
     atom  115 type  2   force =     0.00000044   -0.00000405    0.00140145
     atom  116 type  2   force =     0.00004313   -0.00002614    0.00005226
     atom  117 type  2   force =    -0.00049465   -0.00012500    0.00051505
     atom  118 type  1   force =     0.00011576    0.00020475    0.00058238
     atom  119 type  1   force =     0.00000020   -0.00000679    0.00189445
     atom  120 type  1   force =     0.00000624   -0.00006194   -0.00005273
     atom  121 type  2   force =     0.00000013   -0.00000652   -0.00315004
     atom  122 type  2   force =     0.00000557   -0.00006013    0.00009652
     atom  123 type  2   force =     0.00005072   -0.00019415    0.00012694
     atom  124 type  2   force =    -0.00000111   -0.00000556    0.00139379
     atom  125 type  2   force =    -0.00001587    0.00003786    0.00000809
     atom  126 type  2   force =    -0.00023485   -0.00084601   -0.00008008
     atom  127 type  1   force =    -0.00010661   -0.00055385    0.00060377
     atom  128 type  1   force =     0.00000919    0.00001343    0.00188437
     atom  129 type  1   force =    -0.00006109    0.00006644   -0.00004053
     atom  130 type  2   force =     0.00000053   -0.00000028   -0.00315575
     atom  131 type  2   force =    -0.00000378    0.00000855    0.00006549
     atom  132 type  2   force =    -0.00064276   -0.00035605   -0.00008412
     atom  133 type  2   force =    -0.00000410   -0.00000330    0.00138731
     atom  134 type  2   force =     0.00000141    0.00002110   -0.00006912
     atom  135 type  2   force =    -0.00071923   -0.00002201    0.00005330
     atom  136 type  1   force =    -0.00220333   -0.00338674   -0.00289506
     atom  137 type  1   force =     0.00000803    0.00000188    0.00188507
     atom  138 type  1   force =     0.00002913   -0.00003433   -0.00000020
     atom  139 type  2   force =    -0.00000285    0.00000448   -0.00315156
     atom  140 type  2   force =     0.00000126    0.00000139    0.00006011
     atom  141 type  2   force =     0.00040365   -0.00013194    0.00007746
     atom  142 type  2   force =    -0.00000955    0.00000223    0.00139042
     atom  143 type  2   force =     0.00001311   -0.00001254   -0.00009764
     atom  144 type  2   force =    -0.00049438   -0.00014330    0.00101362
     atom  145 type  3   force =    -0.01390466   -0.01730764    0.00025645
     atom  146 type  4   force =     0.00946512    0.01695245   -0.02972519

     Total force =     0.074128     Total SCF correction =     0.002584

     BFGS Geometry Optimization
     Energy error            =      0.0E+00 Ry
     Gradient error          =      3.3E-02 Ry/Bohr

     number of scf cycles    =   1
     number of bfgs steps    =   0

     energy             new  =  -26031.7846420839 Ry

     new trust radius        =       0.0355043757 bohr
     new conv_thr            =       0.0000010000 Ry


ATOMIC_POSITIONS (angstrom)
Mo               1.5698929394        2.7178795247        6.0710191420
[...]
     atom   70 type  2   force =    -0.00000043   -0.00000413    0.00148975
     atom   71 type  2   force =    -0.00000324   -0.00001388    0.00009849
     atom   72 type  2   force =     0.00012986   -0.00014718   -0.00034880
     atom   73 type  1   force =     0.00002389    0.00008781   -0.00003887
     atom   74 type  1   force =    -0.00000178    0.00000260    0.00190060
     atom   75 type  1   force =     0.00001688    0.00000256   -0.00003474
     atom   76 type  2   force =    -0.00000030    0.00000106   -0.00327905
     atom   77 type  2   force =     0.00001269   -0.00002857   -0.00000783
     atom   78 type  2   force =     0.00000361    0.00000542   -0.00003496
     atom   79 type  2   force =     0.00000096    0.00000396    0.00149916
     atom   80 type  2   force =    -0.00000088    0.00002263   -0.00001837
     atom   81 type  2   force =     0.00006476   -0.00024388   -0.00005752
     atom   82 type  1   force =    -0.00003170   -0.00000179   -0.00029531
     atom   83 type  1   force =    -0.00000140    0.00000058    0.00189626
     atom   84 type  1   force =    -0.00001510   -0.00000101   -0.00001240
     atom   85 type  2   force =    -0.00000006    0.00000088   -0.00327860
     atom   86 type  2   force =    -0.00002456    0.00001442   -0.00003147
     atom   87 type  2   force =    -0.00029742   -0.00035866    0.00036581
     atom   88 type  2   force =    -0.00000477    0.00000734    0.00148916
     atom   89 type  2   force =    -0.00001461   -0.00000152   -0.00002554
     atom   90 type  2   force =    -0.00021893    0.00006180    0.00009363
     atom   91 type  1   force =    -0.00006685   -0.00002815    0.00001407
     atom   92 type  1   force =    -0.00000192    0.00000072    0.00189537
     atom   93 type  1   force =     0.00001328    0.00002199    0.00000154
     atom   94 type  2   force =    -0.00000010    0.00000111   -0.00327888
     atom   95 type  2   force =    -0.00000826    0.00000197   -0.00000646
     atom   96 type  2   force =     0.00013996   -0.00004610   -0.00020336
     atom   97 type  2   force =    -0.00000250    0.00000063    0.00148810
     atom   98 type  2   force =     0.00001293    0.00000097   -0.00000255
     atom   99 type  2   force =    -0.00029471   -0.00014168    0.00022324
     atom  100 type  1   force =    -0.00000856   -0.00001913    0.00004212
     atom  101 type  1   force =     0.00000075   -0.00000081    0.00189745
     atom  102 type  1   force =    -0.00000440   -0.00000951    0.00004523
     atom  103 type  2   force =    -0.00000020    0.00000122   -0.00327893
     atom  104 type  2   force =    -0.00000128    0.00001674    0.00002034
     atom  105 type  2   force =     0.00017895    0.00010431   -0.00039242
     atom  106 type  2   force =     0.00000675   -0.00000313    0.00149901
     atom  107 type  2   force =     0.00001256   -0.00000783    0.00005261
     atom  108 type  2   force =    -0.00013146   -0.00006542   -0.00022332
     atom  109 type  1   force =     0.00020765    0.00003702    0.00026887
     atom  110 type  1   force =     0.00000035    0.00000192    0.00189866
     atom  111 type  1   force =    -0.00000992    0.00001705   -0.00000113
     atom  112 type  2   force =    -0.00000017    0.00000116   -0.00327865
     atom  113 type  2   force =     0.00000300   -0.00001731   -0.00001314
     atom  114 type  2   force =     0.00015810    0.00001626    0.00017875
     atom  115 type  2   force =     0.00000007    0.00000203    0.00151338
     atom  116 type  2   force =    -0.00002732   -0.00001109   -0.00003992
     atom  117 type  2   force =    -0.00014234   -0.00003271    0.00011170
     atom  118 type  1   force =     0.00007426    0.00001618   -0.00026296
     atom  119 type  1   force =    -0.00000069    0.00000089    0.00190054
     atom  120 type  1   force =     0.00000445   -0.00000545   -0.00002641
     atom  121 type  2   force =    -0.00000011    0.00000120   -0.00327929
     atom  122 type  2   force =     0.00000603    0.00000151   -0.00000524
     atom  123 type  2   force =     0.00036861   -0.00018947   -0.00053854
     atom  124 type  2   force =    -0.00000122    0.00000463    0.00149836
     atom  125 type  2   force =     0.00000540    0.00001248    0.00004030
     atom  126 type  2   force =     0.00009536    0.00025889   -0.00038668
     atom  127 type  1   force =    -0.00014949    0.00012426    0.00002328
     atom  128 type  1   force =    -0.00000077    0.00000063    0.00189964
     atom  129 type  1   force =     0.00000367   -0.00000313   -0.00001974
     atom  130 type  2   force =     0.00000000    0.00000105   -0.00327804
     atom  131 type  2   force =    -0.00000010   -0.00000231   -0.00002544
     atom  132 type  2   force =    -0.00013099    0.00040538   -0.00035943
     atom  133 type  2   force =    -0.00000626   -0.00000350    0.00149777
     atom  134 type  2   force =    -0.00001762   -0.00002086   -0.00002425
     atom  135 type  2   force =    -0.00006876   -0.00010604   -0.00018473
     atom  136 type  1   force =    -0.00009910    0.00018851    0.00026464
     atom  137 type  1   force =    -0.00000148    0.00000108    0.00189910
     atom  138 type  1   force =    -0.00000368   -0.00001733    0.00001021
     atom  139 type  2   force =     0.00000014    0.00000119   -0.00327909
     atom  140 type  2   force =     0.00000659    0.00001622    0.00000399
     atom  141 type  2   force =     0.00002568    0.00014208    0.00020698
     atom  142 type  2   force =    -0.00000306   -0.00000364    0.00148704
     atom  143 type  2   force =     0.00000590   -0.00001053    0.00001337
     atom  144 type  2   force =    -0.00003708   -0.00007977    0.00013727
     atom  145 type  3   force =     0.00026935   -0.00066567   -0.00040643
     atom  146 type  4   force =     0.00015255    0.00065153    0.00006294

     Total force =     0.003025     Total SCF correction =     0.000600
     SCF correction compared to forces is large: reduce conv_thr to get better values
     Energy error            =      2.9E-05 Ry
     Gradient error          =      7.3E-04 Ry/Bohr

     bfgs converged in  17 scf cycles and  16 bfgs steps
     (criteria: energy <  1.0E-04 Ry, force <  1.0E-03 Ry/Bohr)

     End of BFGS Geometry Optimization

     Final energy             =  -26031.8088925312 Ry

     File ./outdir/pwscf.bfgs deleted, as requested
Begin final coordinates

ATOMIC_POSITIONS (angstrom)
Mo               1.5701924993        2.7237328459        6.1297576261
Mo               1.5769197498        0.9104407117       -6.0872367793    0   0   0
Mo               0.0003459261        1.8210387725       -0.0001271220
S                0.0000044503        0.0000077495       -7.6506323570    0   0   0
S                1.5765894490        0.9109951761       -1.5665390849
S                0.0220497270        1.8293167765        4.5545684588
S                0.0000053241        0.0000068460       -4.5222282367    0   0   0
S                1.5773434701        0.9101289520        1.5666340370
S               -0.0941514004        1.7618629825        7.7298772201
Mo              -0.0460627374        5.4883979898        6.0644436146
Mo               0.0000011799        3.6417399547       -6.0872367793    0   0   0
Mo              -1.5767687459        4.5519961754       -0.0004124229
S               -1.5769141197        2.7313069925       -7.6506323570    0   0   0
S                0.0001586429        3.6416771962       -1.5656468645
S               -1.5931480005        4.5456174982        4.4957478221
S               -1.5769132459        2.7313060890       -4.5222282367    0   0   0
S                0.0006348230        3.6418720946        1.5678867058
S               -1.5993204454        4.5587665308        7.6384432833
Mo              -1.5801487675        8.2003662084        6.0641703851
Mo              -1.5769173901        6.3730391977       -6.0872367793    0   0   0
Mo              -3.1537684109        7.2834417729       -0.0020705227
S               -3.1538326896        5.4626062355       -7.6506323570    0   0   0
S               -1.5764470100        6.3724920126       -1.5665717563
S               -3.1606286238        7.2862414175        4.5021961165
S               -3.1538318159        5.4626053320       -4.5222282367    0   0   0
S               -1.5771421620        6.3734571443        1.5657671502
S               -3.1526690698        7.2829787461        7.6371573624
Mo               3.1587894052       -0.0187825346        6.0834024988
Mo              -3.1538359601        9.1043384407       -6.0872367793    0   0   0
Mo              -4.7309172290       10.0149102621       -0.0017955208
S               -4.7307512596        8.1939054785       -7.6506323570    0   0   0
S               -3.1539308167        9.1044288820       -1.5674590390
S               -4.7346453122       10.0143770311        4.5125782914
S               -4.7307503859        8.1939045750       -4.5222282367    0   0   0
S               -3.1540393694        9.1043275925        1.5647208781
S               -4.7284974515       10.0075071577        7.6498317995
Mo               4.7567104480        2.7206205398        6.0933454678
Mo               4.7307503218        0.9104407117       -6.0872367793    0   0   0
Mo               3.1534996347        1.8212306722       -0.0009936860
S                3.1538350223        0.0000077495       -7.6506323570    0   0   0
S                4.7307204559        0.9111821816       -1.5664895090
S                3.1400580627        1.8314422526        4.5590140960
S                3.1538358961        0.0000068460       -4.5222282367    0   0   0
S                4.7294228150        0.9106644343        1.5663417028
S                3.2656332106        1.7466833713        7.7110241793
Mo               3.1627212782        5.4808773345        6.1285451529
Mo               3.1538317519        3.6417399547       -6.0872367793    0   0   0
Mo               1.5771096373        4.5519468429       -0.0001921002
S                1.5769164523        2.7313069925       -7.6506323570    0   0   0
S                3.1535579734        3.6419328255       -1.5663249173
S                1.5864451475        4.5445897139        4.5775449216
S                1.5769173261        2.7313060890       -4.5222282367    0   0   0
S                3.1538604054        3.6415382237        1.5673874502
S                1.4646669073        4.6613467962        7.6830409565
Mo               1.5738085100        8.2008976907        6.0890781097
Mo               1.5769131819        6.3730391977       -6.0872367793    0   0   0
Mo               0.0002244080        7.2833272584       -0.0009647380
S               -0.0000021176        5.4626062355       -7.6506323570    0   0   0
S                1.5770516268        6.3725535405       -1.5659741409
S                0.0007293333        7.2998961166        4.4972881564
S               -0.0000012439        5.4626053320       -4.5222282367    0   0   0
S                1.5769597504        6.3723391458        1.5674181751
S               -0.0218584741        7.3006332009        7.6402732989
Mo               6.3108656199       -0.0019776820        6.0719415853
Mo              -0.0000053881        9.1043384407       -6.0872367793    0   0   0
Mo              -1.5771724775       10.0151724192       -0.0019394182
S               -1.5769206876        8.1939054785       -7.6506323570    0   0   0
S                0.0002028578        9.1042006084       -1.5669197830
S               -1.5782867603       10.0209098824        4.5005034875
S               -1.5769198139        8.1939045750       -4.5222282367    0   0   0
S               -0.0004341039        9.1049842847        1.5646578666
S               -1.5672649952       10.0022660524        7.6443791865
Mo               7.8885747641        2.7284917895        6.0683736631
Mo               7.8845808939        0.9104407117       -6.0872367793    0   0   0
Mo               6.3073174235        1.8209297671       -0.0002759827
S                6.3076655943        0.0000077495       -7.6506323570    0   0   0
S                7.8845624647        0.9107571763       -1.5659341106
S                6.3090139835        1.8190344534        4.5034031449
S                6.3076664681        0.0000068460       -4.5222282367    0   0   0
S                7.8844589022        0.9099289182        1.5663904282
S                6.3382100849        1.8069928247        7.6479109227
Mo               6.3224692895        5.4639345426        6.0848880506
Mo               6.3076623239        3.6417399547       -6.0872367793    0   0   0
Mo               4.7302728690        4.5521475410       -0.0007581017
S                4.7307470244        2.7313069925       -7.6506323570    0   0   0
S                6.3072311576        3.6414133635       -1.5661258961
S                4.7194635061        4.5588028220        4.5503300957
S                4.7307478981        2.7313060890       -4.5222282367    0   0   0
S                6.3068297457        3.6423057609        1.5666482987
S                4.8120983445        4.5127974365        7.6871134148
Mo               4.7339957204        8.2021123630        6.0907440534
Mo               4.7307437539        6.3730391977       -6.0872367793    0   0   0
Mo               3.1537305825        7.2830123075       -0.0004622217
S                3.1538284544        5.4626062355       -7.6506323570    0   0   0
S                4.7302219844        6.3728182990       -1.5664951193
S                3.1562373145        7.2697792222        4.5476632169
S                3.1538293281        5.4626053320       -4.5222282367    0   0   0
S                4.7309138434        6.3729022395        1.5664992173
S                3.1612615723        7.3637863017        7.7120553845
Mo               9.4628146168       -0.0009237282        6.0774547978
Mo               3.1538251839        9.1043384407       -6.0872367793    0   0   0
Mo               1.5770422502       10.0146699668       -0.0012508679
S                1.5769098844        8.1939054785       -7.6506323570    0   0   0
S                3.1541251678        9.1040027640       -1.5660160935
S                1.5811057211       10.0091579613        4.5113289065
S                1.5769107581        8.1939045750       -4.5222282367    0   0   0
S                3.1537425990        9.1035936514        1.5667593544
S                1.5738802655       10.0243819548        7.6494454493
Mo              -1.5885720387        2.7312019740        6.0844100187
Mo              11.0384114659        0.9104407117       -6.0872367793    0   0   0
Mo               9.4616629167        1.8206020700       -0.0003495238
S                9.4614961663        0.0000077495       -7.6506323570    0   0   0
S               11.0386630669        0.9105467199       -1.5655433609
S                9.4674951798        1.8171162666        4.5056521108
S                9.4614970401        0.0000068460       -4.5222282367    0   0   0
S               11.0394843696        0.9105868786        1.5674340765
S                9.4502419894        1.8196502466        7.6461328839
Mo              -3.1614439224        5.4622768470        6.0667610672
Mo               9.4614928959        3.6417399547       -6.0872367793    0   0   0
Mo               7.8841296617        4.5520749410       -0.0013142105
S                7.8845775964        2.7313069925       -7.6506323570    0   0   0
S                9.4616367501        3.6413456222       -1.5660883107
S                7.8772876225        4.5525361609        4.5028836826
S                7.8845784701        2.7313060890       -4.5222282367    0   0   0
S                9.4606925879        3.6417673640        1.5654828985
S                7.8971626863        4.5468754761        7.6449743333
Mo              -4.7311668795        8.1933492143        6.0780915864
Mo               7.8845743259        6.3730391977       -6.0872367793    0   0   0
Mo               6.3073415659        7.2834693333       -0.0016758343
S                6.3076590264        5.4626062355       -7.6506323570    0   0   0
S                7.8843296689        6.3727622259       -1.5670974627
S                6.3040545461        7.2838366174        4.5158392923
S                6.3076599001        5.4626053320       -4.5222282367    0   0   0
S                7.8844715437        6.3734510569        1.5649744636
S                6.3149482575        7.2839636356        7.6512141727
Mo              -0.0048237873       -0.0111017919        6.0902284064
Mo               6.3076557559        9.1043384407       -6.0872367793    0   0   0
Mo               4.7308542626       10.0147217211       -0.0003345503
S                4.7307404564        8.1939054785       -7.6506323570    0   0   0
S                6.3070429545        9.1045485647       -1.5668738506
S                4.7350311176       10.0114991236        4.5135046800
S                4.7307413301        8.1939045750       -4.5222282367    0   0   0
S                6.3082412857        9.1039595129        1.5654697810
S                4.7244728522       10.0166381005        7.6580277064
Pd               3.1175047062        5.3440248777        9.0883591228
Pt               1.6467419521        2.8056486900        8.9458478059
End final coordinates



     Writing all to output data dir ./outdir/pwscf.save/ :
     XML data file, charge density, pseudopotentials, collected wavefunctions
 
     init_run     :     95.15s CPU     97.42s WALL (       1 calls)
     electrons    :  79159.78s CPU  80324.52s WALL (      17 calls)
     update_pot   :     21.02s CPU     21.66s WALL (      16 calls)
     forces       :   1220.16s CPU   1246.68s WALL (      17 calls)
     force_dftd3  :      6.50s CPU      6.78s WALL (      17 calls)

     Called by init_run:
     wfcinit      :     76.83s CPU     77.87s WALL (       1 calls)
     potinit      :      1.08s CPU      1.17s WALL (       1 calls)
     hinit0       :      9.52s CPU      9.58s WALL (       1 calls)

     Called by electrons:
     c_bands      :  68761.60s CPU  69446.20s WALL (     242 calls)
     sum_band     :   8897.70s CPU   9140.60s WALL (     242 calls)
     v_of_rho     :     71.42s CPU     79.55s WALL (     250 calls)
     newd         :   1262.37s CPU   1495.11s WALL (     250 calls)
     PAW_pot      :    201.54s CPU    203.05s WALL (     266 calls)
     mix_rho      :     19.86s CPU     22.28s WALL (     242 calls)
     energy_dftd3 :      3.67s CPU      3.68s WALL (      17 calls)

     Called by c_bands:
     init_us_2    :    335.81s CPU    337.35s WALL (    2072 calls)
     init_us_2:cp :    335.79s CPU    337.34s WALL (    2072 calls)
     cegterg      :  67373.49s CPU  68052.17s WALL (     992 calls)

     Called by *egterg:
     cdiaghg      :   3380.97s CPU   3527.58s WALL (   11584 calls)
     h_psi        :  35168.84s CPU  35386.46s WALL (   11696 calls)
     s_psi        :   7339.34s CPU   7369.01s WALL (   11696 calls)
     g_psi        :     77.16s CPU     77.47s WALL (   10700 calls)

     Called by h_psi:
     h_psi:calbec :   7259.44s CPU   7282.26s WALL (   11696 calls)
     vloc_psi     :  20378.25s CPU  20483.58s WALL (   11696 calls)
     add_vuspsi   :   7362.57s CPU   7394.30s WALL (   11696 calls)

     General routines
     calbec       :  10325.75s CPU  10358.91s WALL (   13000 calls)
     fft          :     62.42s CPU     70.24s WALL (    3428 calls)
     ffts         :      3.18s CPU      3.26s WALL (     492 calls)
     fftw         :  15394.41s CPU  15470.91s WALL ( 5313940 calls)
     interpolate  :      6.00s CPU      6.58s WALL (     250 calls)
 
     Parallel routines
 
     PWSCF        :     22h28m CPU     22h49m WALL

 
   This run was terminated on:  17:55:38  11Mar2024            

=------------------------------------------------------------------------------=
   JOB DONE.
=------------------------------------------------------------------------------=
