
     Program PWSCF v.7.2 starts on 12Aug2023 at 12:22:31 

     This program is part of the open-source Quantum ESPRESSO suite
     for quantum simulation of materials; please cite
         "P. Giannozzi et al., J. Phys.:Condens. Matter 21 395502 (2009);
         "P. Giannozzi et al., J. Phys.:Condens. Matter 29 465901 (2017);
         "P. Giannozzi et al., J. Chem. Phys. 152 154105 (2020);
          URL http://www.quantum-espresso.org", 
     in publications or presentations arising from this work. More details at
     http://www.quantum-espresso.org/quote

     Parallel version (MPI), running on    36 processors

     MPI processes distributed on     1 nodes
     770558 MiB available memory on the printing compute node when the environment starts
 
     Waiting for input...
     Reading input from standard input
Warning: card &CELL ignored
Warning: card / ignored

     Current dimensions of program PWSCF are:
     Max number of different atomic species (ntypx) = 10
     Max number of k-points (npk) =  40000
     Max angular momentum in pseudopotentials (lmaxx) =  4
     file Mo.pbe-spn-kjpaw_psl.1.0.0.UPF: wavefunction(s)  4S 4D renormalized
     file S.pbe-n-kjpaw_psl.1.0.0.UPF: wavefunction(s)  3S 3P renormalized
     file Pd.pbe-spn-kjpaw_psl.1.0.0.UPF: wavefunction(s)  4S 5S 4D renormalized
 
     R & G space division:  proc/nbgrp/npool/nimage =      36
     Subspace diagonalization in iterative solution of the eigenvalue problem:
     one sub-group per band group will be used
     custom distributed-memory algorithm (size of sub-group:  6*  6 procs)

 
     Parallelization info
     --------------------
     sticks:   dense  smooth     PW     G-vecs:    dense   smooth      PW
     Min         586     335     89               165416    71459    9765
     Max         587     337     90               165425    71461    9778
     Sum       21109   12085   3205              5955087  2572543  351657
 
     Using Slab Decomposition
 


     bravais-lattice index     =            0
     lattice parameter (alat)  =      23.8395  a.u.
     unit-cell volume          =   28182.8498 (a.u.)^3
     number of atoms/cell      =          145
     number of atomic types    =            3
     number of electrons       =      1266.00
     number of Kohn-Sham states=          760
     kinetic-energy cutoff     =      77.0000  Ry
     charge density cutoff     =     539.0000  Ry
     scf convergence threshold =      1.0E-06
     mixing beta               =       0.2000
     number of iterations used =            8  plain     mixing
     Exchange-correlation= SLA  PW   PBX  PBC
                           (   1   4   3   4   0   0   0)

     Effective Screening Medium Method
     =================================
     Boundary Conditions: Vacuum-Slab-Vacuum
     total charge in unit cell        =   0.0000
     grid points for fit at edges     =        4 
 

     celldm(1)=  23.839504  celldm(2)=   0.000000  celldm(3)=   0.000000
     celldm(4)=   0.000000  celldm(5)=   0.000000  celldm(6)=   0.000000

     crystal axes: (cart. coord. in units of alat)
               a(1) = (   1.000000   0.000000   0.000000 )  
               a(2) = (  -0.500001   0.866026   0.000000 )  
               a(3) = (   0.000000   0.000000   2.401941 )  

     reciprocal axes: (cart. coord. in units 2 pi/alat)
               b(1) = (  1.000000  0.577351  0.000000 )  
               b(2) = (  0.000000  1.154700  0.000000 )  
               b(3) = (  0.000000  0.000000  0.416330 )  


     PseudoPot. # 1 for Mo read from file:
     ./pseudo/Mo.pbe-spn-kjpaw_psl.1.0.0.UPF
     MD5 check sum: 317bf72632116215fd98f72de1686f13
     Pseudo is Projector augmented-wave + core cor, Zval = 14.0
     Generated using 'atomic' code by A. Dal Corso  v.7.2
     Shape of augmentation charge: PSQ
     Using radial grid of 1229 points,  6 beta functions with: 
                l(1) =   0
                l(2) =   0
                l(3) =   1
                l(4) =   1
                l(5) =   2
                l(6) =   2
     Q(r) pseudized with 0 coefficients 


     PseudoPot. # 2 for S  read from file:
     ./pseudo/S.pbe-n-kjpaw_psl.1.0.0.UPF
     MD5 check sum: 8b7b5302570d38d5e87fed6a1065abda
     Pseudo is Projector augmented-wave + core cor, Zval =  6.0
     Generated using 'atomic' code by A. Dal Corso  v.7.2
     Shape of augmentation charge: PSQ
     Using radial grid of 1151 points,  6 beta functions with: 
                l(1) =   0
                l(2) =   0
                l(3) =   1
                l(4) =   1
                l(5) =   2
                l(6) =   2
     Q(r) pseudized with 0 coefficients 


     PseudoPot. # 3 for Pd read from file:
     ./pseudo/Pd.pbe-spn-kjpaw_psl.1.0.0.UPF
     MD5 check sum: a60571a671f2502b8a6a4569d20a6edb
     Pseudo is Projector augmented-wave + core cor, Zval = 18.0
     Generated using 'atomic' code by A. Dal Corso  v.7.2
     Shape of augmentation charge: PSQ
     Using radial grid of 1235 points,  6 beta functions with: 
                l(1) =   0
                l(2) =   0
                l(3) =   1
                l(4) =   1
                l(5) =   2
                l(6) =   2
     Q(r) pseudized with 0 coefficients 


     atomic species   valence    mass     pseudopotential
        Mo            14.00    95.95000     Mo( 1.00)
        S              6.00    32.06000     S ( 1.00)
        Pd            18.00   106.42000     Pd( 1.00)

     No symmetry found



   Cartesian axes

     site n.     atom                  positions (alat units)
         1           Mo  tau(   1) = (   0.1244805   0.2154429   0.4826124  )
         2           Mo  tau(   2) = (   0.1250004   0.0721694  -0.4825273  )
         3           Mo  tau(   3) = (   0.0000154   0.1443583  -0.0000534  )
         4           S   tau(   4) = (   0.0000004   0.0000006  -0.6064556  )
         5           S   tau(   5) = (   0.1249822   0.0722030  -0.1241916  )
         6           S   tau(   6) = (   0.0001873   0.1444894   0.3573292  )
         7           S   tau(   7) = (   0.0000004   0.0000005  -0.3584711  )
         8           S   tau(   8) = (   0.1250220   0.0721432   0.1241096  )
         9           S   tau(   9) = (  -0.0009222   0.1433430   0.6062350  )
        10           Mo  tau(  10) = (  -0.0011812   0.4330952   0.4826123  )
        11           Mo  tau(  11) = (   0.0000001   0.2886759  -0.4825273  )
        12           Mo  tau(  12) = (  -0.1249761   0.3608493  -0.0000533  )
        13           S   tau(  13) = (  -0.1249999   0.2165071  -0.6064556  )
        14           S   tau(  14) = (   0.0000232   0.2886904  -0.1241345  )
        15           S   tau(  15) = (  -0.1247753   0.3609305   0.3573291  )
        16           S   tau(  16) = (  -0.1249998   0.2165070  -0.3584711  )
        17           S   tau(  17) = (   0.0000901   0.2887289   0.1242236  )
        18           S   tau(  18) = (  -0.1263226   0.3605428   0.6062351  )
        19           Mo  tau(  19) = (  -0.1251400   0.6495983   0.4819363  )
        20           Mo  tau(  20) = (  -0.1250002   0.5051824  -0.4825273  )
        21           Mo  tau(  21) = (  -0.2500026   0.5773383  -0.0001491  )
        22           S   tau(  22) = (  -0.2500002   0.4330136  -0.6064556  )
        23           S   tau(  23) = (  -0.1249812   0.5051509  -0.1241919  )
        24           S   tau(  24) = (  -0.2500015   0.5775831   0.3575295  )
        25           S   tau(  25) = (  -0.2500001   0.4330135  -0.3584711  )
        26           S   tau(  26) = (  -0.1250129   0.5052153   0.1241101  )
        27           S   tau(  27) = (  -0.2500018   0.5771934   0.6060379  )
        28           Mo  tau(  28) = (   0.2499987  -0.0001601   0.4819365  )
        29           Mo  tau(  29) = (  -0.2500004   0.7216889  -0.4825273  )
        30           Mo  tau(  30) = (  -0.3750135   0.7938631  -0.0001491  )
        31           S   tau(  31) = (  -0.3750004   0.6495201  -0.6064556  )
        32           S   tau(  32) = (  -0.2500026   0.7216883  -0.1242347  )
        33           S   tau(  33) = (  -0.3747997   0.7937400   0.3575295  )
        34           S   tau(  34) = (  -0.3750004   0.6495200  -0.3584711  )
        35           S   tau(  35) = (  -0.2500029   0.7216883   0.1240299  )
        36           S   tau(  36) = (  -0.3751376   0.7939346   0.6060379  )
        37           Mo  tau(  37) = (   0.3755166   0.2154425   0.4826119  )
        38           Mo  tau(  38) = (   0.3750004   0.0721694  -0.4825273  )
        39           Mo  tau(  39) = (   0.2499990   0.1443474  -0.0000968  )
        40           S   tau(  40) = (   0.2500004   0.0000006  -0.6064556  )
        41           S   tau(  41) = (   0.3750152   0.0722028  -0.1241921  )
        42           S   tau(  42) = (   0.2499983   0.1443201   0.3580593  )
        43           S   tau(  43) = (   0.2500004   0.0000005  -0.3584711  )
        44           S   tau(  44) = (   0.3749754   0.0721432   0.1241106  )
        45           S   tau(  45) = (   0.2499987   0.1437775   0.6065499  )
        46           Mo  tau(  46) = (   0.2499984   0.4330123   0.4872880  )
        47           Mo  tau(  47) = (   0.2500001   0.2886759  -0.4825273  )
        48           Mo  tau(  48) = (   0.1250277   0.3608616  -0.0000572  )
        49           S   tau(  49) = (   0.1250001   0.2165071  -0.6064556  )
        50           S   tau(  50) = (   0.2499987   0.2886898  -0.1241693  )
        51           S   tau(  51) = (   0.1266397   0.3617911   0.3615924  )
        52           S   tau(  52) = (   0.1250002   0.2165070  -0.3584711  )
        53           S   tau(  53) = (   0.2499988   0.2886671   0.1241958  )
        54           S   tau(  54) = (   0.1173054   0.3564020   0.6108885  )
        55           Mo  tau(  55) = (   0.1243363   0.6504991   0.4826116  )
        56           Mo  tau(  56) = (   0.1249998   0.5051824  -0.4825273  )
        57           Mo  tau(  57) = (   0.0000060   0.5773464  -0.0000969  )
        58           S   tau(  58) = (  -0.0000002   0.4330136  -0.6064556  )
        59           S   tau(  59) = (   0.1250101   0.5051751  -0.1241696  )
        60           S   tau(  60) = (  -0.0000165   0.5773581   0.3580590  )
        61           S   tau(  61) = (  -0.0000001   0.4330135  -0.3584711  )
        62           S   tau(  62) = (   0.1249907   0.5051868   0.1241956  )
        63           S   tau(  63) = (  -0.0004863   0.5776299   0.6065497  )
        64           Mo  tau(  64) = (   0.5000682   0.0000393   0.4813064  )
        65           Mo  tau(  65) = (  -0.0000004   0.7216889  -0.4825273  )
        66           Mo  tau(  66) = (  -0.1249919   0.7938635  -0.0001489  )
        67           S   tau(  67) = (  -0.1250004   0.6495201  -0.6064556  )
        68           S   tau(  68) = (   0.0000350   0.7216859  -0.1241920  )
        69           S   tau(  69) = (  -0.1252051   0.7937392   0.3575294  )
        70           S   tau(  70) = (  -0.1250004   0.6495200  -0.3584711  )
        71           S   tau(  71) = (  -0.0000364   0.7216812   0.1241103  )
        72           S   tau(  72) = (  -0.1248667   0.7939344   0.6060378  )
        73           Mo  tau(  73) = (   0.6250985   0.2164481   0.4814760  )
        74           Mo  tau(  74) = (   0.6250004   0.0721694  -0.4825273  )
        75           Mo  tau(  75) = (   0.4999807   0.1443583  -0.0000532  )
        76           S   tau(  76) = (   0.5000004   0.0000006  -0.6064556  )
        77           S   tau(  77) = (   0.6249710   0.0721537  -0.1241599  )
        78           S   tau(  78) = (   0.4998101   0.1444887   0.3573287  )
        79           S   tau(  79) = (   0.5000004   0.0000005  -0.3584711  )
        80           S   tau(  80) = (   0.6250072   0.0721744   0.1241160  )
        81           S   tau(  81) = (   0.5009199   0.1433424   0.6062338  )
        82           Mo  tau(  82) = (   0.5011786   0.4330950   0.4826115  )
        83           Mo  tau(  83) = (   0.5000001   0.2886759  -0.4825273  )
        84           Mo  tau(  84) = (   0.3749686   0.3608615  -0.0000573  )
        85           S   tau(  85) = (   0.3750001   0.2165071  -0.6064556  )
        86           S   tau(  86) = (   0.4999725   0.2886900  -0.1241349  )
        87           S   tau(  87) = (   0.3733572   0.3617909   0.3615920  )
        88           S   tau(  88) = (   0.3750002   0.2165070  -0.3584711  )
        89           S   tau(  89) = (   0.4999057   0.2887288   0.1242238  )
        90           S   tau(  90) = (   0.3826919   0.3564018   0.6108876  )
        91           Mo  tau(  91) = (   0.3756598   0.6504996   0.4826113  )
        92           Mo  tau(  92) = (   0.3749998   0.5051824  -0.4825273  )
        93           Mo  tau(  93) = (   0.2499978   0.5773166  -0.0000576  )
        94           S   tau(  94) = (   0.2499998   0.4330136  -0.6064556  )
        95           S   tau(  95) = (   0.3749857   0.5051746  -0.1241697  )
        96           S   tau(  96) = (   0.2499981   0.5754545   0.3615919  )
        97           S   tau(  97) = (   0.2499999   0.4330135  -0.3584711  )
        98           S   tau(  98) = (   0.3750048   0.5051860   0.1241960  )
        99           S   tau(  99) = (   0.2499983   0.5862331   0.6108872  )
       100           Mo  tau( 100) = (   0.7499988   0.0001148   0.4814756  )
       101           Mo  tau( 101) = (   0.2499996   0.7216889  -0.4825273  )
       102           Mo  tau( 102) = (   0.1250062   0.7938321  -0.0000534  )
       103           S   tau( 103) = (   0.1249996   0.6495201  -0.6064556  )
       104           S   tau( 104) = (   0.2499971   0.7216593  -0.1241350  )
       105           S   tau( 105) = (   0.1250350   0.7936175   0.3573284  )
       106           S   tau( 106) = (   0.1249996   0.6495200  -0.3584711  )
       107           S   tau( 107) = (   0.2499972   0.7215818   0.1242234  )
       108           S   tau( 108) = (   0.1245975   0.7951515   0.6062336  )
       109           Mo  tau( 109) = (  -0.1251006   0.2164484   0.4814769  )
       110           Mo  tau( 110) = (   0.8750004   0.0721694  -0.4825273  )
       111           Mo  tau( 111) = (   0.7499976   0.1443379  -0.0001196  )
       112           S   tau( 112) = (   0.7500004   0.0000006  -0.6064556  )
       113           S   tau( 113) = (   0.8750246   0.0721533  -0.1241599  )
       114           S   tau( 114) = (   0.7499994   0.1443376   0.3572937  )
       115           S   tau( 115) = (   0.7500004   0.0000005  -0.3584711  )
       116           S   tau( 116) = (   0.8749884   0.0721739   0.1241157  )
       117           S   tau( 117) = (   0.7499987   0.1443370   0.6058240  )
       118           Mo  tau( 118) = (  -0.2500010   0.4329316   0.4813070  )
       119           Mo  tau( 119) = (   0.7500001   0.2886759  -0.4825273  )
       120           Mo  tau( 120) = (   0.6249710   0.3608493  -0.0000534  )
       121           S   tau( 121) = (   0.6250001   0.2165071  -0.6064556  )
       122           S   tau( 122) = (   0.7499973   0.2887067  -0.1241600  )
       123           S   tau( 123) = (   0.6247737   0.3609305   0.3573287  )
       124           S   tau( 124) = (   0.6250002   0.2165070  -0.3584711  )
       125           S   tau( 125) = (   0.7499971   0.2886649   0.1241160  )
       126           S   tau( 126) = (   0.6263203   0.3605423   0.6062340  )
       127           Mo  tau( 127) = (  -0.3748636   0.6495986   0.4819361  )
       128           Mo  tau( 128) = (   0.6249998   0.5051824  -0.4825273  )
       129           Mo  tau( 129) = (   0.4999891   0.5773453  -0.0000967  )
       130           S   tau( 130) = (   0.4999998   0.4330136  -0.6064556  )
       131           S   tau( 131) = (   0.6249761   0.5051506  -0.1241920  )
       132           S   tau( 132) = (   0.5000130   0.5773585   0.3580587  )
       133           S   tau( 133) = (   0.4999999   0.4330135  -0.3584711  )
       134           S   tau( 134) = (   0.6250081   0.5052147   0.1241104  )
       135           S   tau( 135) = (   0.5004826   0.5776298   0.6065487  )
       136           Mo  tau( 136) = (  -0.0000706   0.0000401   0.4813070  )
       137           Mo  tau( 137) = (   0.4999996   0.7216889  -0.4825273  )
       138           Mo  tau( 138) = (   0.3749881   0.7938314  -0.0000535  )
       139           S   tau( 139) = (   0.3749996   0.6495201  -0.6064556  )
       140           S   tau( 140) = (   0.4999594   0.7216844  -0.1241918  )
       141           S   tau( 141) = (   0.3749610   0.7936184   0.3573285  )
       142           S   tau( 142) = (   0.3749996   0.6495200  -0.3584711  )
       143           S   tau( 143) = (   0.5000310   0.7216802   0.1241101  )
       144           S   tau( 144) = (   0.3753979   0.7951517   0.6062337  )
       145           Pd  tau( 145) = (   0.2499985   0.4330123   0.7148096  )

     --------------------------------------------
     DFT-D3 Dispersion Correction (3-body terms):
     --------------------------------------------
       Reference C6 values for interpolation: 

         atom   Coordination number   C6
         S          0.000           268.01
         S          0.995           261.99
         S          1.990           251.62
         Mo         0.000          1691.79
         Mo         1.942          1004.01
         Mo        11.056           674.22
         Pd         0.000          1217.01
         Pd         1.863           573.90
         Pd         5.710           531.75

       Values used:

         atom   Coordination number  R0_AB[au]  C6      C8
         Mo        10.173            3.547    674.22  77634.20
         Mo        10.189            3.547    674.22  77634.20
         Mo        10.200            3.547    674.22  77634.20
         S          3.753            3.128    251.62  12327.25
         S          3.858            3.128    251.62  12327.25
         S          3.848            3.128    251.62  12327.25
         S          3.859            3.128    251.62  12327.25
         S          3.860            3.128    251.62  12327.25
         S          3.798            3.128    251.62  12327.25
         Mo        10.173            3.547    674.22  77634.20
         Mo        10.189            3.547    674.22  77634.20
         Mo        10.201            3.547    674.22  77634.20
         S          3.753            3.128    251.62  12327.25
         S          3.859            3.128    251.62  12327.25
         S          3.848            3.128    251.62  12327.25
         S          3.858            3.128    251.62  12327.25
         S          3.855            3.128    251.62  12327.25
         S          3.798            3.128    251.62  12327.25
         Mo        10.208            3.547    674.22  77634.20
         Mo        10.189            3.547    674.22  77634.20
         Mo        10.200            3.547    674.22  77634.20
         S          3.753            3.128    251.62  12327.25
         S          3.858            3.128    251.62  12327.25
         S          3.862            3.128    251.62  12327.25
         S          3.859            3.128    251.62  12327.25
         S          3.860            3.128    251.62  12327.25
         S          3.759            3.128    251.62  12327.25
         Mo        10.208            3.547    674.21  77634.20
         Mo        10.189            3.547    674.22  77634.20
         Mo        10.200            3.547    674.22  77634.20
         S          3.753            3.128    251.62  12327.25
         S          3.858            3.128    251.62  12327.25
         S          3.862            3.128    251.62  12327.25
         S          3.859            3.128    251.62  12327.25
         S          3.862            3.128    251.62  12327.25
         S          3.759            3.128    251.62  12327.25
         Mo        10.173            3.547    674.22  77634.20
         Mo        10.189            3.547    674.22  77634.20
         Mo        10.202            3.547    674.22  77634.20
         S          3.753            3.128    251.62  12327.25
         S          3.858            3.128    251.62  12327.25
         S          3.857            3.128    251.62  12327.25
         S          3.859            3.128    251.62  12327.25
         S          3.860            3.128    251.62  12327.25
         S          3.751            3.128    251.62  12327.25
         Mo        10.810            3.547    674.22  77634.20
         Mo        10.189            3.547    674.22  77634.20
         Mo        10.202            3.547    674.22  77634.20
         S          3.753            3.128    251.62  12327.25
         S          3.859            3.128    251.62  12327.25
         S          3.866            3.128    251.62  12327.25
         S          3.859            3.128    251.62  12327.25
         S          3.853            3.128    251.62  12327.25
         S          4.645            3.128    251.62  12327.25
         Mo        10.173            3.547    674.22  77634.20
         Mo        10.189            3.547    674.22  77634.20
         Mo        10.202            3.547    674.22  77634.20
         S          3.753            3.128    251.62  12327.25
         S          3.859            3.128    251.62  12327.25
         S          3.857            3.128    251.62  12327.25
         S          3.859            3.128    251.62  12327.25
         S          3.853            3.128    251.62  12327.25
         S          3.751            3.128    251.62  12327.25
         Mo        10.222            3.547    674.22  77634.20
         Mo        10.189            3.547    674.22  77634.20
         Mo        10.200            3.547    674.22  77634.20
         S          3.753            3.128    251.62  12327.25
         S          3.858            3.128    251.62  12327.25
         S          3.862            3.128    251.62  12327.25
         S          3.859            3.128    251.62  12327.25
         S          3.860            3.128    251.62  12327.25
         S          3.759            3.128    251.62  12327.25
         Mo        10.213            3.547    674.22  77634.20
         Mo        10.189            3.547    674.22  77634.20
         Mo        10.201            3.547    674.22  77634.20
         S          3.753            3.128    251.62  12327.25
         S          3.858            3.128    251.62  12327.25
         S          3.848            3.128    251.62  12327.25
         S          3.859            3.128    251.62  12327.25
         S          3.860            3.128    251.62  12327.25
         S          3.798            3.128    251.62  12327.25
         Mo        10.173            3.547    674.22  77634.20
         Mo        10.189            3.547    674.22  77634.20
         Mo        10.202            3.547    674.22  77634.20
         S          3.753            3.128    251.62  12327.25
         S          3.859            3.128    251.62  12327.25
         S          3.866            3.128    251.62  12327.25
         S          3.859            3.128    251.62  12327.25
         S          3.855            3.128    251.62  12327.25
         S          4.645            3.128    251.62  12327.25
         Mo        10.173            3.547    674.22  77634.20
         Mo        10.189            3.547    674.22  77634.20
         Mo        10.202            3.547    674.22  77634.20
         S          3.753            3.128    251.62  12327.25
         S          3.859            3.128    251.62  12327.25
         S          3.866            3.128    251.62  12327.25
         S          3.859            3.128    251.62  12327.25
         S          3.853            3.128    251.62  12327.25
         S          4.645            3.128    251.62  12327.25
         Mo        10.213            3.547    674.22  77634.20
         Mo        10.189            3.547    674.22  77634.20
         Mo        10.201            3.547    674.22  77634.20
         S          3.753            3.128    251.62  12327.25
         S          3.859            3.128    251.62  12327.25
         S          3.848            3.128    251.62  12327.25
         S          3.859            3.128    251.62  12327.25
         S          3.855            3.128    251.62  12327.25
         S          3.798            3.128    251.62  12327.25
         Mo        10.213            3.547    674.22  77634.20
         Mo        10.189            3.547    674.22  77634.20
         Mo        10.199            3.547    674.22  77634.20
         S          3.753            3.128    251.62  12327.25
         S          3.858            3.128    251.62  12327.25
         S          3.855            3.128    251.62  12327.25
         S          3.858            3.128    251.62  12327.25
         S          3.860            3.128    251.62  12327.25
         S          3.777            3.128    251.62  12327.25
         Mo        10.222            3.547    674.22  77634.20
         Mo        10.189            3.547    674.22  77634.20
         Mo        10.201            3.547    674.22  77634.20
         S          3.753            3.128    251.62  12327.25
         S          3.858            3.128    251.62  12327.25
         S          3.848            3.128    251.62  12327.25
         S          3.858            3.128    251.62  12327.25
         S          3.860            3.128    251.62  12327.25
         S          3.798            3.128    251.62  12327.25
         Mo        10.208            3.547    674.22  77634.20
         Mo        10.189            3.547    674.22  77634.20
         Mo        10.202            3.547    674.22  77634.20
         S          3.753            3.128    251.62  12327.25
         S          3.858            3.128    251.62  12327.25
         S          3.857            3.128    251.62  12327.25
         S          3.859            3.128    251.62  12327.25
         S          3.860            3.128    251.62  12327.25
         S          3.751            3.128    251.62  12327.25
         Mo        10.222            3.547    674.22  77634.20
         Mo        10.189            3.547    674.22  77634.20
         Mo        10.201            3.547    674.22  77634.20
         S          3.753            3.128    251.62  12327.25
         S          3.858            3.128    251.62  12327.25
         S          3.848            3.128    251.62  12327.25
         S          3.859            3.128    251.62  12327.25
         S          3.860            3.128    251.62  12327.25
         S          3.798            3.128    251.62  12327.25
         Pd         3.772            3.168    557.09  51042.24

         Molecular C6 ( Ry / a.u.^6 ) =   7788430.66


     number of k points=     4  Gaussian smearing, width (Ry)=  0.0100
                       cart. coord. in units 2pi/alat
        k(    1) = (   0.0000000   0.0000000   0.0000000), wk =   0.5000000
        k(    2) = (   0.0000000  -0.5773499   0.0000000), wk =   0.5000000
        k(    3) = (  -0.5000000  -0.2886755   0.0000000), wk =   0.5000000
        k(    4) = (  -0.5000000  -0.8660254   0.0000000), wk =   0.5000000

     Dense  grid:  5955087 G-vectors     FFT dimensions: ( 180, 180, 432)

     Smooth grid:  2572543 G-vectors     FFT dimensions: ( 135, 135, 320)

     Estimated max dynamical RAM per process >       2.13 GB

     Estimated total dynamical RAM >      76.54 GB

     Initial potential from superposition of free atoms

     starting charge    1265.9542, renormalised to    1266.0000

     negative rho (up, down):  9.322E-04 0.000E+00
     Starting wfcs are  874 randomized atomic wfcs
     Checking if some PAW data can be deallocated... 

     total cpu time spent up to now is      104.2 secs

     Self-consistent Calculation

     iteration #  1     ecut=    77.00 Ry     beta= 0.20
     Davidson diagonalization with overlap
     ethr =  1.00E-02,  avg # of iterations =  2.0

     Threshold (ethr) on eigenvalues was too large:
     Diagonalizing with lowered threshold

     Davidson diagonalization with overlap
     ethr =  1.65E-04,  avg # of iterations = 16.8

     negative rho (up, down):  2.871E-04 0.000E+00

     total cpu time spent up to now is     1221.7 secs

     total energy              =  -24357.15664579 Ry
     estimated scf accuracy    <       5.04129218 Ry

     iteration #  2     ecut=    77.00 Ry     beta= 0.20
     Davidson diagonalization with overlap
     ethr =  3.98E-04,  avg # of iterations =  2.0

     negative rho (up, down):  4.136E-05 0.000E+00

     total cpu time spent up to now is     1443.9 secs

     total energy              =  -24356.13730242 Ry
     estimated scf accuracy    <       2.61762768 Ry

     iteration #  3     ecut=    77.00 Ry     beta= 0.20
     Davidson diagonalization with overlap
     ethr =  2.07E-04,  avg # of iterations = 11.0

     negative rho (up, down):  2.884E-05 0.000E+00

     total cpu time spent up to now is     1731.8 secs

     total energy              =  -24356.40178274 Ry
     estimated scf accuracy    <       0.64519027 Ry

     iteration #  4     ecut=    77.00 Ry     beta= 0.20
     Davidson diagonalization with overlap
     ethr =  5.10E-05,  avg # of iterations = 17.0

     negative rho (up, down):  3.198E-05 0.000E+00

     total cpu time spent up to now is     2424.9 secs

     total energy              =  -24357.06978095 Ry
     estimated scf accuracy    <       0.35032699 Ry

     iteration #  5     ecut=    77.00 Ry     beta= 0.20
     Davidson diagonalization with overlap
     c_bands:  4 eigenvalues not converged
     ethr =  2.77E-05,  avg # of iterations = 18.8

     negative rho (up, down):  6.312E-05 0.000E+00

     total cpu time spent up to now is     2804.8 secs

     total energy              =  -24357.09928962 Ry
     estimated scf accuracy    <       0.19715705 Ry

     iteration #  6     ecut=    77.00 Ry     beta= 0.20
     Davidson diagonalization with overlap
     c_bands:  4 eigenvalues not converged
     c_bands:  5 eigenvalues not converged
     ethr =  1.56E-05,  avg # of iterations = 17.2

     negative rho (up, down):  2.184E-04 0.000E+00

     total cpu time spent up to now is     3116.0 secs

     total energy              =  -24357.08680336 Ry
     estimated scf accuracy    <       0.11062854 Ry

     iteration #  7     ecut=    77.00 Ry     beta= 0.20
     Davidson diagonalization with overlap
     c_bands:  4 eigenvalues not converged
     c_bands:  4 eigenvalues not converged
     c_bands:  5 eigenvalues not converged
     ethr =  8.74E-06,  avg # of iterations = 21.8

     negative rho (up, down):  6.026E-04 0.000E+00

     total cpu time spent up to now is     3592.3 secs

     total energy              =  -24357.15849201 Ry
     estimated scf accuracy    <       0.05542867 Ry

     iteration #  8     ecut=    77.00 Ry     beta= 0.20
     Davidson diagonalization with overlap
     c_bands:  5 eigenvalues not converged
     c_bands:  4 eigenvalues not converged
     c_bands:  5 eigenvalues not converged
     c_bands:  4 eigenvalues not converged
     ethr =  4.38E-06,  avg # of iterations = 20.0

     negative rho (up, down):  4.896E-04 0.000E+00

     total cpu time spent up to now is     3991.9 secs

     total energy              =  -24357.15565062 Ry
     estimated scf accuracy    <       0.04768743 Ry

     iteration #  9     ecut=    77.00 Ry     beta= 0.20
     Davidson diagonalization with overlap
     c_bands:  4 eigenvalues not converged
     c_bands:  4 eigenvalues not converged
     c_bands:  5 eigenvalues not converged
     ethr =  3.77E-06,  avg # of iterations = 21.0

     negative rho (up, down):  4.489E-04 0.000E+00

     total cpu time spent up to now is     4324.7 secs

     total energy              =  -24357.15483421 Ry
     estimated scf accuracy    <       0.00951918 Ry

     iteration # 10     ecut=    77.00 Ry     beta= 0.20
     Davidson diagonalization with overlap
     c_bands:  4 eigenvalues not converged
     c_bands:  1 eigenvalues not converged
     c_bands:  4 eigenvalues not converged
     c_bands:  4 eigenvalues not converged
     ethr =  7.52E-07,  avg # of iterations = 35.0

     negative rho (up, down):  4.465E-04 0.000E+00

     total cpu time spent up to now is     5283.4 secs

     total energy              =  -24357.17345468 Ry
     estimated scf accuracy    <       0.00441008 Ry

     iteration # 11     ecut=    77.00 Ry     beta= 0.20
     Davidson diagonalization with overlap
     c_bands:  2 eigenvalues not converged
     c_bands:  4 eigenvalues not converged
     c_bands:  2 eigenvalues not converged
     ethr =  3.48E-07,  avg # of iterations = 21.8

     negative rho (up, down):  4.307E-04 0.000E+00

     total cpu time spent up to now is     5717.9 secs

     total energy              =  -24357.17599679 Ry
     estimated scf accuracy    <       0.00748178 Ry

     iteration # 12     ecut=    77.00 Ry     beta= 0.20
     Davidson diagonalization with overlap
     c_bands:  5 eigenvalues not converged
     ethr =  3.48E-07,  avg # of iterations =  6.2

     negative rho (up, down):  6.463E-04 0.000E+00

     total cpu time spent up to now is     5950.4 secs

     total energy              =  -24357.16999987 Ry
     estimated scf accuracy    <       0.00840504 Ry

     iteration # 13     ecut=    77.00 Ry     beta= 0.20
     Davidson diagonalization with overlap
     c_bands:  2 eigenvalues not converged
     ethr =  3.48E-07,  avg # of iterations = 10.0

     negative rho (up, down):  8.060E-04 0.000E+00

     total cpu time spent up to now is     6352.6 secs

     total energy              =  -24357.17303653 Ry
     estimated scf accuracy    <       0.00109196 Ry

     iteration # 14     ecut=    77.00 Ry     beta= 0.20
     Davidson diagonalization with overlap
     c_bands:  5 eigenvalues not converged
     ethr =  8.63E-08,  avg # of iterations = 17.0

     negative rho (up, down):  8.487E-04 0.000E+00

     total cpu time spent up to now is     6990.8 secs

     total energy              =  -24357.17184926 Ry
     estimated scf accuracy    <       0.00583853 Ry

     iteration # 15     ecut=    77.00 Ry     beta= 0.20
     Davidson diagonalization with overlap
     c_bands:  5 eigenvalues not converged
     ethr =  8.63E-08,  avg # of iterations = 13.5

     negative rho (up, down):  8.381E-04 0.000E+00

     total cpu time spent up to now is     7416.7 secs

     total energy              =  -24357.17238731 Ry
     estimated scf accuracy    <       0.00042039 Ry

     iteration # 16     ecut=    77.00 Ry     beta= 0.20
     Davidson diagonalization with overlap
     c_bands:  1 eigenvalues not converged
     ethr =  3.32E-08,  avg # of iterations = 12.2

     negative rho (up, down):  8.597E-04 0.000E+00

     total cpu time spent up to now is     8013.2 secs

     total energy              =  -24357.17276129 Ry
     estimated scf accuracy    <       0.00045617 Ry

     iteration # 17     ecut=    77.00 Ry     beta= 0.20
     Davidson diagonalization with overlap
     ethr =  3.32E-08,  avg # of iterations =  4.8

     negative rho (up, down):  9.099E-04 0.000E+00

     total cpu time spent up to now is     8264.9 secs

     total energy              =  -24357.17277993 Ry
     estimated scf accuracy    <       0.00004774 Ry

     iteration # 18     ecut=    77.00 Ry     beta= 0.20
     Davidson diagonalization with overlap
     c_bands:  4 eigenvalues not converged
     c_bands:  4 eigenvalues not converged
     ethr =  3.77E-09,  avg # of iterations = 19.0

     negative rho (up, down):  9.112E-04 0.000E+00

     total cpu time spent up to now is     9071.7 secs

     total energy              =  -24357.17284997 Ry
     estimated scf accuracy    <       0.00022658 Ry

     iteration # 19     ecut=    77.00 Ry     beta= 0.20
     Davidson diagonalization with overlap
     c_bands:  5 eigenvalues not converged
     ethr =  3.77E-09,  avg # of iterations = 11.0

     negative rho (up, down):  9.206E-04 0.000E+00

     total cpu time spent up to now is     9496.3 secs

     total energy              =  -24357.17287668 Ry
     estimated scf accuracy    <       0.00001337 Ry

     iteration # 20     ecut=    77.00 Ry     beta= 0.20
     Davidson diagonalization with overlap
     c_bands:  2 eigenvalues not converged
     c_bands:  1 eigenvalues not converged
     ethr =  1.06E-09,  avg # of iterations = 19.8

     negative rho (up, down):  9.302E-04 0.000E+00

     total cpu time spent up to now is    10612.3 secs

     total energy              =  -24357.17288991 Ry
     estimated scf accuracy    <       0.00014087 Ry

     iteration # 21     ecut=    77.00 Ry     beta= 0.20
     Davidson diagonalization with overlap
     ethr =  1.06E-09,  avg # of iterations = 15.0

     negative rho (up, down):  9.410E-04 0.000E+00

     total cpu time spent up to now is    11091.8 secs

     total energy              =  -24357.17286543 Ry
     estimated scf accuracy    <       0.00004479 Ry

     iteration # 22     ecut=    77.00 Ry     beta= 0.20
     Davidson diagonalization with overlap
     ethr =  1.06E-09,  avg # of iterations = 14.8

     negative rho (up, down):  9.403E-04 0.000E+00

     total cpu time spent up to now is    11649.2 secs

     total energy              =  -24357.17288859 Ry
     estimated scf accuracy    <       0.00000603 Ry

     iteration # 23     ecut=    77.00 Ry     beta= 0.20
     Davidson diagonalization with overlap
     ethr =  4.76E-10,  avg # of iterations =  6.5

     negative rho (up, down):  9.394E-04 0.000E+00

     total cpu time spent up to now is    11895.1 secs

     total energy              =  -24357.17288751 Ry
     estimated scf accuracy    <       0.00000417 Ry

     iteration # 24     ecut=    77.00 Ry     beta= 0.20
     Davidson diagonalization with overlap
     ethr =  3.30E-10,  avg # of iterations =  4.8

     negative rho (up, down):  9.397E-04 0.000E+00

     total cpu time spent up to now is    12123.9 secs

     total energy              =  -24357.17288716 Ry
     estimated scf accuracy    <       0.00000134 Ry

     iteration # 25     ecut=    77.00 Ry     beta= 0.20
     Davidson diagonalization with overlap
     ethr =  1.06E-10,  avg # of iterations = 11.0

     negative rho (up, down):  9.401E-04 0.000E+00

     total cpu time spent up to now is    12480.5 secs

     total energy              =  -24357.17288747 Ry
     estimated scf accuracy    <       0.00000101 Ry

     iteration # 26     ecut=    77.00 Ry     beta= 0.20
     Davidson diagonalization with overlap
     ethr =  7.99E-11,  avg # of iterations =  6.2

     negative rho (up, down):  9.418E-04 0.000E+00

     total cpu time spent up to now is    12724.2 secs

     End of self-consistent calculation

          k = 0.0000 0.0000 0.0000 (321495 PWs)   bands (ev):

   -88.6593 -66.7101 -66.6890 -66.6890 -66.6890 -66.6890 -66.6890 -66.6890
   -66.6679 -66.6678 -66.6678 -66.6678 -66.6678 -66.6678 -66.6678 -66.6678
   -66.6678 -66.6441 -66.6233 -66.6233 -66.6230 -66.6229 -66.6229 -66.6228
   -66.6023 -66.6021 -66.6021 -66.6020 -66.6018 -66.6018 -66.6015 -66.6015
   -66.6015 -66.5741 -66.5627 -66.5586 -66.5542 -66.5542 -66.5470 -66.5470
   -66.5364 -66.5364 -66.5357 -66.5236 -66.5223 -66.5223 -66.5142 -66.5142
   -66.5117 -54.4795 -54.4531 -54.4531 -41.0365 -41.0365 -41.0365 -40.9695
   -40.9693 -40.9693 -40.9617 -40.9617 -40.9617 -40.9617 -40.9617 -40.9617
   -40.8948 -40.8948 -40.8946 -40.8945 -40.8945 -40.8945 -40.8944 -40.8944
   -40.8932 -40.8702 -40.8362 -40.8362 -40.8362 -40.8362 -40.8361 -40.8361
   -40.8288 -40.8288 -40.8288 -40.8288 -40.8288 -40.8288 -40.8237 -40.8213
   -40.8165 -40.8165 -40.8125 -40.8125 -40.8047 -40.8013 -40.8013 -40.8013
   -40.8013 -40.8013 -40.8013 -40.7871 -40.7871 -40.7871 -40.7871 -40.7871
   -40.7871 -40.7870 -40.7870 -40.7870 -40.7694 -40.7692 -40.7692 -40.7691
   -40.7691 -40.7690 -40.7635 -40.7635 -40.7633 -40.7632 -40.7631 -40.7631
   -40.7510 -40.7345 -40.7345 -40.7343 -40.7343 -40.7343 -40.7343 -40.7273
   -40.7235 -40.7235 -40.7235 -40.7220 -40.7218 -40.7218 -40.7218 -40.7217
   -40.7217 -40.7214 -40.7214 -40.7213 -40.6995 -40.6983 -40.6975 -40.6975
   -40.6954 -40.6954 -40.6920 -40.6920 -40.6877 -40.6876 -40.6770 -40.6767
   -40.6767 -40.6767 -40.6767 -40.6767 -40.6767 -40.6680 -40.6620 -40.6592
   -40.6582 -40.6582 -40.6573 -40.6573 -40.6567 -40.6566 -40.6566 -40.6551
   -40.6508 -40.6507 -40.6469 -40.6469 -40.6428 -40.6428 -40.6406 -40.6294
   -40.6294 -40.6102 -40.6099 -40.6099 -40.6098 -40.6098 -40.6097 -40.5816
   -40.5816 -40.5801 -40.5626 -40.5626 -40.5342 -40.5342 -40.5326 -40.5315
   -40.5315 -40.5267 -40.4834 -40.4834 -20.1419 -20.0253 -19.8999 -19.2779
   -19.2764 -19.2764 -19.2748 -19.2746 -19.2746 -19.1946 -19.1831 -19.1831
   -19.1604 -19.1589 -19.1589 -19.0818 -19.0752 -19.0752 -19.0305 -19.0300
   -19.0300 -18.8872 -18.7066 -18.5398 -18.5041 -18.5041 -18.4836 -18.4764
   -18.4764 -18.4762 -18.3818 -18.3818 -18.3674 -18.3220 -18.3208 -18.3208
   -18.2391 -18.2391 -18.2244 -18.1837 -18.1811 -18.1811 -18.1698 -18.1698
   -18.1697 -18.1696 -18.1693 -18.1693 -18.1294 -18.1294 -18.1293 -18.1174
   -18.1174 -18.0933 -18.0903 -18.0883 -18.0883 -18.0759 -18.0759 -18.0567
   -18.0559 -18.0559 -18.0090 -17.9989 -17.9981 -17.9981 -17.9866 -17.9866
   -17.9834 -17.9677 -17.9677 -17.9540 -17.9455 -17.9455 -17.9395 -17.9375
   -17.9373 -17.9373 -17.9067 -17.9067 -17.8962 -17.8812 -17.8812 -17.8663
   -17.8653 -17.8645 -17.8645 -17.8389 -17.8389 -17.8173 -17.7992 -17.7992
   -17.7873 -17.7824 -17.7771 -17.7771 -11.9573 -11.7914 -11.7864 -11.7864
   -11.7546 -11.7165 -11.7165 -11.6865 -11.6441 -11.6441 -11.5816 -11.2532
   -11.2353 -11.2353 -11.2327 -11.2316 -11.2316 -11.1805 -11.1593 -11.1593
   -11.1580 -11.1569 -11.1569 -11.1534 -11.0977 -11.0663 -11.0663 -11.0359
   -11.0299 -11.0299 -10.9952 -10.9943 -10.9943 -10.9491 -10.9452 -10.9452
   -10.9373 -10.9349 -10.9349 -10.9307 -10.9172 -10.9172 -10.8750 -10.8750
   -10.8639 -10.8616 -10.8610 -10.8610 -10.8564 -10.8564 -10.8394 -10.8332
   -10.8332 -10.8278 -10.8148 -10.8108 -10.8108 -10.8085 -10.8085 -10.7941
   -10.7715 -10.7715 -10.7501 -10.7490 -10.7489 -10.7489 -10.6823 -10.6585
   -10.6585 -10.6486 -10.6319 -10.6318 -10.6184 -10.6184 -10.6170 -10.1677
   -10.1677 -10.0791 -10.0739 -10.0739  -9.9400  -9.9125  -9.9125  -9.8149
    -9.8041  -9.8041  -9.8003  -9.7987  -9.7987  -9.7928  -9.7298  -9.7298
    -9.7265  -9.7112  -9.7112  -9.7037  -9.6951  -9.6951  -9.6823  -9.6516
    -9.6502  -9.6502  -9.6430  -9.6407  -9.6407  -9.6043  -9.6038  -9.6038
    -9.6033  -9.6001  -9.6001  -9.5725  -9.5686  -9.5582  -9.5582  -9.5401
    -9.5401  -9.5275  -9.5209  -9.5209  -9.4732  -9.4732  -9.4590  -9.4556
    -9.4550  -9.4550  -9.3649  -9.3588  -9.3588  -9.3373  -9.3373  -9.3283
    -9.3062  -9.3062  -9.2509  -9.2312  -9.2181  -9.2181  -9.2109  -9.2109
    -9.2094  -9.2038  -9.2038  -9.1872  -9.0671  -9.0609  -9.0484  -9.0484
    -9.0481  -9.0414  -9.0414  -9.0340  -9.0339  -9.0026  -9.0026  -8.9751
    -8.9634  -8.9634  -8.9326  -8.9230  -8.8914  -8.8914  -8.8752  -8.8695
    -8.8695  -8.8268  -8.8268  -8.8267  -8.8262  -8.8262  -8.8217  -8.7922
    -8.7922  -8.7584  -8.7584  -8.7532  -8.7440  -8.7430  -8.7430  -8.7356
    -8.7062  -8.6933  -8.6933  -8.4656  -8.4593  -8.4592  -8.3870  -8.3870
    -8.3682  -8.3682  -8.3471  -8.3471  -8.3471  -8.3470  -8.3468  -8.3468
    -8.2931  -8.2931  -8.2773  -8.2755  -8.2755  -8.2745  -8.2662  -8.2662
    -8.2204  -8.2086  -8.2086  -8.1905  -8.1240  -8.0314  -8.0314  -7.9835
    -7.9279  -7.9279  -7.7484  -7.7156  -7.7155  -7.6672  -7.6117  -7.6117
    -7.6117  -7.6115  -7.6115  -7.6115  -7.5659  -7.5654  -7.5654  -7.5648
    -7.5648  -7.5647  -7.5435  -7.5435  -7.5400  -7.5383  -7.5383  -7.5366
    -7.5232  -7.5232  -7.5156  -7.4980  -7.4980  -7.4946  -7.4931  -7.4930
    -7.4896  -7.4855  -7.4854  -7.4764  -7.4509  -7.4509  -7.4451  -7.4451
    -7.4444  -7.4396  -7.4396  -7.4395  -7.4393  -7.4252  -7.3954  -7.3954
    -7.3304  -7.3304  -7.3277  -7.2632  -7.2632  -7.2458  -7.2458  -7.2129
    -7.2129  -7.1849  -7.1849  -7.1814  -7.0934  -6.9640  -6.9640  -6.9303
    -6.9303  -6.8671  -6.8647  -6.8647  -6.8541  -6.8331  -6.8219  -6.8219
    -6.7321  -6.7286  -6.7015  -6.7014  -6.6613  -6.6613  -6.6394  -6.6394
    -6.6372  -6.6318  -6.6078  -6.6017  -6.6017  -6.5495  -6.5452  -6.5452
    -6.5347  -6.5347  -6.5277  -6.5277  -6.5254  -6.5063  -6.4719  -6.4719
    -6.4581  -6.4480  -6.4480  -6.4455  -6.4455  -6.4416  -6.3843  -6.3783
    -6.3783  -6.3783  -6.3783  -6.3783  -6.3783  -6.3445  -6.3445  -6.3031
    -6.3031  -6.3017  -6.3011  -6.2998  -6.2998  -6.2670  -6.2670  -6.2310
    -6.2303  -6.1880  -6.1411  -6.1411  -5.8187  -5.6542  -5.6542  -5.4756
    -5.1631  -3.9050  -3.8629  -3.8629  -3.8592  -3.8578  -3.8578  -3.8306
    -3.8277  -3.8276  -3.8272  -3.8253  -3.8252  -3.7316  -3.6247  -3.6247
    -3.6108  -3.6067  -3.6052  -3.6052  -3.5945  -3.5943  -3.5921  -3.5907
    -3.5907  -3.5190  -3.5189  -3.5189  -3.5035  -3.5012  -3.5007  -3.5007
    -3.4991  -3.4991  -3.4518  -3.4516  -3.4516  -3.4202  -3.4177  -3.4020
    -3.4019  -3.4018  -3.3939  -3.3938  -3.3920  -3.3920  -3.3853  -3.3853
    -3.3832  -3.3711  -3.3625  -3.3624  -3.3480  -3.3152  -3.2897  -3.2894
    -3.2891  -3.2785  -3.2785  -3.2626  -3.2576  -3.2575  -3.2403  -3.2403
    -3.0530  -3.0526  -3.0525  -3.0474  -3.0474  -2.9859  -2.9807  -2.9806
    -2.9803  -2.9801  -2.9799  -2.9798  -2.9795  -2.9793  -2.9581  -2.9562
    -2.9560  -2.9422  -2.9421  -2.9209  -2.9207  -2.9201  -2.9157  -2.9155
    -2.9110  -2.9091  -2.9058  -2.9057  -2.8941  -2.8940  -2.8799  -2.8628
    -2.8626  -2.8163  -2.8156  -2.8122  -2.8093  -2.8066  -2.7951  -2.7916
    -2.7902  -2.7634  -2.7631  -2.7579  -2.7574  -2.7568  -2.7554  -2.7206
    -2.7203  -2.6966  -2.6730  -2.6728  -2.6537  -2.6536  -2.6510  -2.6354
    -2.6335  -2.5575  -2.5258  -2.4963  -2.4916  -2.4801  -2.4765  -2.4720

          k = 0.0000-0.5773 0.0000 (321564 PWs)   bands (ev):

   -88.6593 -66.7040 -66.7040 -66.6934 -66.6934 -66.6784 -66.6784 -66.6784
   -66.6784 -66.6740 -66.6740 -66.6678 -66.6678 -66.6678 -66.6678 -66.6634
   -66.6634 -66.6380 -66.6378 -66.6274 -66.6273 -66.6126 -66.6126 -66.6124
   -66.6122 -66.6082 -66.6079 -66.6020 -66.6019 -66.6019 -66.6015 -66.5975
   -66.5974 -66.5698 -66.5676 -66.5629 -66.5555 -66.5496 -66.5449 -66.5439
   -66.5381 -66.5380 -66.5360 -66.5230 -66.5223 -66.5223 -66.5156 -66.5147
   -66.5104 -54.4795 -54.4531 -54.4531 -41.0051 -41.0051 -41.0051 -41.0051
   -40.9785 -40.9785 -40.9665 -40.9665 -40.9381 -40.9380 -40.9380 -40.9378
   -40.9161 -40.9161 -40.9161 -40.9161 -40.9114 -40.9113 -40.8995 -40.8993
   -40.8724 -40.8647 -40.8597 -40.8581 -40.8581 -40.8510 -40.8491 -40.8491
   -40.8490 -40.8490 -40.8482 -40.8482 -40.8412 -40.8385 -40.8374 -40.8374
   -40.8229 -40.8123 -40.8080 -40.8080 -40.8080 -40.8080 -40.7993 -40.7993
   -40.7927 -40.7925 -40.7872 -40.7872 -40.7871 -40.7871 -40.7871 -40.7871
   -40.7813 -40.7812 -40.7784 -40.7784 -40.7730 -40.7721 -40.7719 -40.7719
   -40.7705 -40.7685 -40.7564 -40.7564 -40.7564 -40.7564 -40.7483 -40.7426
   -40.7426 -40.7424 -40.7423 -40.7339 -40.7338 -40.7253 -40.7219 -40.7219
   -40.7219 -40.7219 -40.7218 -40.7217 -40.7217 -40.7214 -40.7203 -40.7202
   -40.7158 -40.7131 -40.7130 -40.7098 -40.7098 -40.7065 -40.7009 -40.6996
   -40.6907 -40.6907 -40.6897 -40.6897 -40.6895 -40.6893 -40.6891 -40.6740
   -40.6738 -40.6738 -40.6732 -40.6691 -40.6674 -40.6593 -40.6570 -40.6552
   -40.6551 -40.6550 -40.6550 -40.6514 -40.6504 -40.6473 -40.6454 -40.6433
   -40.6433 -40.6431 -40.6429 -40.6426 -40.6404 -40.6360 -40.6240 -40.6237
   -40.6165 -40.6134 -40.6127 -40.6111 -40.6070 -40.6069 -40.5794 -40.5782
   -40.5766 -40.5764 -40.5763 -40.5751 -40.5716 -40.5581 -40.5483 -40.5445
   -40.5272 -40.5269 -40.5029 -40.4929 -19.9059 -19.9048 -19.7986 -19.7846
   -19.6790 -19.6546 -19.4706 -19.4706 -19.3619 -19.3610 -19.2440 -19.2439
   -18.7905 -18.7804 -18.7639 -18.7622 -18.7621 -18.7615 -18.6965 -18.6929
   -18.6712 -18.6570 -18.6346 -18.6190 -18.6091 -18.5707 -18.5689 -18.5616
   -18.5538 -18.5379 -18.5146 -18.5141 -18.4586 -18.4434 -18.4221 -18.4184
   -18.4156 -18.4033 -18.3641 -18.3123 -18.2919 -18.2747 -18.2447 -18.2410
   -18.2362 -18.2346 -18.1663 -18.1597 -18.1500 -18.1498 -18.1498 -18.1494
   -18.1291 -18.1247 -18.1213 -18.1105 -18.0807 -18.0757 -18.0751 -18.0734
   -18.0618 -18.0570 -18.0280 -18.0211 -18.0146 -18.0008 -17.9939 -17.9933
   -17.9903 -17.9893 -17.9591 -17.9552 -17.9465 -17.9445 -17.9443 -17.9266
   -17.8984 -17.8868 -17.8864 -17.8864 -17.8798 -17.8787 -17.8331 -17.8270
   -17.8265 -17.8153 -17.8107 -17.8100 -17.7989 -17.7988 -17.7703 -17.7679
   -17.7492 -17.7373 -17.7020 -17.6928 -11.7025 -11.6945 -11.5419 -11.4985
   -11.4973 -11.4969 -11.4914 -11.4756 -11.4721 -11.4301 -11.4177 -11.4131
   -11.4105 -11.3859 -11.3673 -11.3604 -11.3437 -11.3241 -11.3165 -11.3144
   -11.3023 -11.3021 -11.2881 -11.2793 -11.2792 -11.2436 -11.2336 -11.2333
   -11.2137 -11.1798 -11.1760 -11.1729 -11.1727 -11.1720 -11.0344 -11.0046
   -10.9942 -10.9937 -10.9799 -10.9673 -10.9385 -10.9366 -10.9160 -10.9024
   -10.8876 -10.8833 -10.8605 -10.8551 -10.8540 -10.8527 -10.8505 -10.8432
   -10.8347 -10.8212 -10.8199 -10.8030 -10.8023 -10.7908 -10.7893 -10.7859
   -10.7641 -10.7328 -10.7325 -10.6901 -10.5865 -10.5762 -10.5175 -10.5124
   -10.4276 -10.3935 -10.3385 -10.2867 -10.2480 -10.1675 -10.1475 -10.1440
   -10.1335 -10.1311 -10.0598 -10.0467 -10.0414 -10.0252  -9.9605  -9.9578
    -9.9563  -9.9551  -9.9516  -9.9509  -9.9272  -9.9219  -9.9151  -9.9130
    -9.8983  -9.8956  -9.8203  -9.8098  -9.8075  -9.7739  -9.7728  -9.7695
    -9.7658  -9.7433  -9.7380  -9.7307  -9.7290  -9.7185  -9.6778  -9.6634
    -9.6628  -9.6522  -9.6494  -9.6314  -9.6310  -9.6286  -9.6260  -9.6107
    -9.5597  -9.5505  -9.5476  -9.5171  -9.5086  -9.4905  -9.4900  -9.4852
    -9.4348  -9.4344  -9.3369  -9.3226  -9.2740  -9.2669  -9.2130  -9.1851
    -9.1685  -9.1638  -9.1622  -9.1518  -9.1488  -9.1457  -9.1437  -9.1354
    -9.0918  -9.0558  -9.0509  -9.0488  -9.0257  -9.0238  -9.0161  -8.9993
    -8.9931  -8.9826  -8.9750  -8.9714  -8.9620  -8.9550  -8.9532  -8.9497
    -8.9496  -8.9372  -8.9274  -8.9158  -8.9037  -8.8957  -8.8825  -8.8768
    -8.8703  -8.8620  -8.8618  -8.8490  -8.8435  -8.8413  -8.8297  -8.8181
    -8.8097  -8.8083  -8.7929  -8.7892  -8.7828  -8.7611  -8.7505  -8.7489
    -8.7191  -8.7106  -8.5438  -8.5351  -8.5308  -8.4771  -8.4650  -8.4475
    -8.4179  -8.4142  -8.2512  -8.2229  -8.2157  -8.2156  -8.1650  -8.1440
    -8.1433  -8.0940  -8.0715  -8.0427  -8.0021  -7.9553  -7.9549  -7.9069
    -7.8964  -7.8848  -7.8839  -7.8720  -7.8694  -7.8689  -7.8689  -7.8648
    -7.8589  -7.8455  -7.8317  -7.8228  -7.8228  -7.8221  -7.8186  -7.7992
    -7.7991  -7.7858  -7.7799  -7.7792  -7.7757  -7.7532  -7.7527  -7.7502
    -7.7482  -7.7318  -7.7267  -7.7138  -7.7126  -7.7094  -7.7055  -7.7034
    -7.6915  -7.6837  -7.6836  -7.6727  -7.6664  -7.6632  -7.6511  -7.6355
    -7.6284  -7.6139  -7.6134  -7.6108  -7.5969  -7.5905  -7.5730  -7.5452
    -7.5412  -7.5163  -7.4808  -7.4727  -7.4585  -7.3783  -7.3154  -7.2746
    -7.2663  -7.2616  -7.2512  -7.2119  -7.1886  -7.1415  -7.1396  -7.1360
    -7.0872  -7.0795  -7.0444  -7.0367  -7.0324  -7.0057  -6.9777  -6.9738
    -6.9626  -6.9591  -6.9502  -6.9475  -6.9176  -6.8844  -6.8755  -6.8527
    -6.8473  -6.8214  -6.7795  -6.7704  -6.7359  -6.7069  -6.6807  -6.6806
    -6.6805  -6.6804  -6.6579  -6.6490  -6.6193  -6.6136  -6.6132  -6.6129
    -6.6079  -6.5917  -6.5816  -6.5394  -6.5383  -6.5255  -6.5111  -6.4700
    -6.4359  -6.4316  -6.3500  -6.3492  -6.3490  -6.3488  -6.3327  -6.2839
    -6.2836  -6.2709  -6.2691  -6.2675  -6.2671  -6.2462  -6.2235  -6.2101
    -6.1901  -6.1826  -6.1738  -6.1712  -6.0005  -6.0005  -5.9275  -5.9269
    -5.9051  -5.8913  -5.8569  -5.7667  -5.6679  -5.6377  -5.6201  -5.5480
    -5.4832  -4.0417  -4.0404  -4.0387  -4.0328  -3.9159  -3.9159  -3.9070
    -3.8956  -3.8511  -3.8508  -3.8237  -3.7922  -3.7913  -3.7828  -3.7770
    -3.7700  -3.7162  -3.6952  -3.6213  -3.6184  -3.6161  -3.6156  -3.6013
    -3.6012  -3.5954  -3.5634  -3.5621  -3.5557  -3.5253  -3.5218  -3.5205
    -3.5093  -3.4995  -3.4951  -3.4906  -3.4881  -3.4829  -3.4827  -3.4402
    -3.4255  -3.4057  -3.3827  -3.3743  -3.3738  -3.3688  -3.3686  -3.3486
    -3.3393  -3.3331  -3.3291  -3.3209  -3.2951  -3.2926  -3.2924  -3.2922
    -3.2906  -3.2787  -3.2632  -3.2572  -3.2551  -3.2420  -3.2276  -3.2240
    -3.2237  -3.2185  -3.2085  -3.2050  -3.2028  -3.1614  -3.1373  -3.1327
    -3.1271  -3.1206  -3.1119  -3.0893  -3.0876  -3.0505  -3.0484  -3.0432
    -3.0384  -3.0292  -3.0289  -3.0287  -3.0285  -2.9963  -2.9857  -2.9807
    -2.9796  -2.9635  -2.9544  -2.9400  -2.9384  -2.9339  -2.9328  -2.9150
    -2.8998  -2.8994  -2.8959  -2.8848  -2.8792  -2.8747  -2.8525  -2.8386
    -2.8382  -2.8196  -2.8188  -2.8176  -2.8121  -2.7407  -2.7331  -2.7110
    -2.6660  -2.6659  -2.6625  -2.6512  -2.6426  -2.6422  -2.5841  -2.5811
    -2.5227  -2.5210  -2.5050  -2.5005  -2.4966  -2.4794  -2.3700  -2.3463

          k =-0.5000-0.2887 0.0000 (321564 PWs)   bands (ev):

   -88.6593 -66.7040 -66.7039 -66.6934 -66.6934 -66.6784 -66.6784 -66.6784
   -66.6784 -66.6741 -66.6740 -66.6679 -66.6678 -66.6678 -66.6678 -66.6634
   -66.6634 -66.6380 -66.6378 -66.6275 -66.6273 -66.6126 -66.6126 -66.6124
   -66.6122 -66.6082 -66.6079 -66.6020 -66.6019 -66.6019 -66.6015 -66.5975
   -66.5974 -66.5698 -66.5676 -66.5629 -66.5555 -66.5496 -66.5449 -66.5439
   -66.5381 -66.5380 -66.5360 -66.5230 -66.5223 -66.5223 -66.5156 -66.5147
   -66.5104 -54.4795 -54.4531 -54.4531 -41.0051 -41.0051 -41.0051 -41.0051
   -40.9785 -40.9785 -40.9665 -40.9665 -40.9381 -40.9381 -40.9380 -40.9378
   -40.9161 -40.9161 -40.9161 -40.9161 -40.9114 -40.9113 -40.8995 -40.8993
   -40.8724 -40.8647 -40.8597 -40.8581 -40.8581 -40.8510 -40.8491 -40.8491
   -40.8490 -40.8490 -40.8482 -40.8482 -40.8412 -40.8385 -40.8374 -40.8374
   -40.8229 -40.8123 -40.8080 -40.8080 -40.8080 -40.8080 -40.7993 -40.7993
   -40.7927 -40.7925 -40.7872 -40.7872 -40.7871 -40.7871 -40.7871 -40.7870
   -40.7813 -40.7812 -40.7784 -40.7784 -40.7730 -40.7721 -40.7719 -40.7719
   -40.7705 -40.7685 -40.7564 -40.7564 -40.7564 -40.7564 -40.7483 -40.7426
   -40.7426 -40.7424 -40.7423 -40.7339 -40.7338 -40.7253 -40.7219 -40.7219
   -40.7219 -40.7219 -40.7218 -40.7217 -40.7217 -40.7214 -40.7203 -40.7202
   -40.7158 -40.7131 -40.7130 -40.7099 -40.7098 -40.7065 -40.7009 -40.6996
   -40.6907 -40.6906 -40.6897 -40.6897 -40.6895 -40.6893 -40.6891 -40.6740
   -40.6738 -40.6738 -40.6732 -40.6691 -40.6673 -40.6593 -40.6570 -40.6552
   -40.6551 -40.6550 -40.6550 -40.6513 -40.6504 -40.6473 -40.6454 -40.6433
   -40.6433 -40.6431 -40.6429 -40.6426 -40.6404 -40.6360 -40.6240 -40.6236
   -40.6165 -40.6134 -40.6127 -40.6111 -40.6070 -40.6069 -40.5794 -40.5782
   -40.5766 -40.5764 -40.5763 -40.5751 -40.5716 -40.5581 -40.5483 -40.5445
   -40.5272 -40.5269 -40.5029 -40.4929 -19.9059 -19.9048 -19.7986 -19.7846
   -19.6790 -19.6546 -19.4706 -19.4706 -19.3619 -19.3610 -19.2440 -19.2439
   -18.7905 -18.7804 -18.7639 -18.7622 -18.7621 -18.7615 -18.6965 -18.6929
   -18.6712 -18.6570 -18.6346 -18.6190 -18.6091 -18.5707 -18.5689 -18.5616
   -18.5538 -18.5379 -18.5146 -18.5141 -18.4586 -18.4434 -18.4221 -18.4184
   -18.4156 -18.4033 -18.3641 -18.3123 -18.2919 -18.2747 -18.2447 -18.2410
   -18.2362 -18.2346 -18.1662 -18.1597 -18.1500 -18.1499 -18.1498 -18.1494
   -18.1291 -18.1247 -18.1213 -18.1105 -18.0807 -18.0757 -18.0751 -18.0734
   -18.0618 -18.0570 -18.0280 -18.0211 -18.0146 -18.0008 -17.9939 -17.9933
   -17.9903 -17.9893 -17.9591 -17.9552 -17.9465 -17.9445 -17.9443 -17.9266
   -17.8984 -17.8868 -17.8864 -17.8864 -17.8798 -17.8787 -17.8330 -17.8270
   -17.8265 -17.8153 -17.8107 -17.8100 -17.7989 -17.7988 -17.7703 -17.7679
   -17.7492 -17.7373 -17.7020 -17.6928 -11.7025 -11.6945 -11.5419 -11.4985
   -11.4973 -11.4969 -11.4914 -11.4756 -11.4721 -11.4300 -11.4177 -11.4131
   -11.4105 -11.3859 -11.3673 -11.3604 -11.3437 -11.3241 -11.3165 -11.3144
   -11.3023 -11.3021 -11.2881 -11.2793 -11.2792 -11.2436 -11.2336 -11.2333
   -11.2137 -11.1798 -11.1760 -11.1729 -11.1727 -11.1720 -11.0343 -11.0046
   -10.9942 -10.9937 -10.9799 -10.9673 -10.9385 -10.9366 -10.9160 -10.9024
   -10.8876 -10.8833 -10.8605 -10.8551 -10.8540 -10.8527 -10.8504 -10.8432
   -10.8347 -10.8212 -10.8199 -10.8030 -10.8023 -10.7908 -10.7893 -10.7859
   -10.7640 -10.7328 -10.7324 -10.6901 -10.5865 -10.5762 -10.5175 -10.5124
   -10.4275 -10.3935 -10.3385 -10.2867 -10.2480 -10.1675 -10.1475 -10.1440
   -10.1335 -10.1311 -10.0598 -10.0467 -10.0414 -10.0252  -9.9605  -9.9578
    -9.9563  -9.9551  -9.9516  -9.9509  -9.9272  -9.9219  -9.9151  -9.9130
    -9.8983  -9.8956  -9.8203  -9.8098  -9.8075  -9.7739  -9.7728  -9.7695
    -9.7658  -9.7433  -9.7380  -9.7307  -9.7290  -9.7185  -9.6779  -9.6634
    -9.6628  -9.6522  -9.6494  -9.6314  -9.6310  -9.6286  -9.6260  -9.6107
    -9.5597  -9.5505  -9.5476  -9.5171  -9.5086  -9.4905  -9.4900  -9.4851
    -9.4348  -9.4344  -9.3369  -9.3226  -9.2740  -9.2669  -9.2130  -9.1851
    -9.1685  -9.1638  -9.1622  -9.1518  -9.1488  -9.1457  -9.1436  -9.1354
    -9.0918  -9.0558  -9.0509  -9.0488  -9.0257  -9.0238  -9.0161  -8.9993
    -8.9931  -8.9826  -8.9750  -8.9714  -8.9620  -8.9550  -8.9532  -8.9497
    -8.9496  -8.9372  -8.9274  -8.9158  -8.9037  -8.8956  -8.8825  -8.8768
    -8.8703  -8.8620  -8.8619  -8.8490  -8.8435  -8.8413  -8.8297  -8.8181
    -8.8097  -8.8083  -8.7929  -8.7893  -8.7828  -8.7611  -8.7505  -8.7489
    -8.7191  -8.7106  -8.5438  -8.5351  -8.5308  -8.4771  -8.4650  -8.4475
    -8.4179  -8.4142  -8.2512  -8.2229  -8.2157  -8.2157  -8.1650  -8.1440
    -8.1433  -8.0940  -8.0715  -8.0427  -8.0021  -7.9553  -7.9549  -7.9069
    -7.8964  -7.8848  -7.8839  -7.8720  -7.8694  -7.8689  -7.8689  -7.8648
    -7.8589  -7.8455  -7.8317  -7.8228  -7.8228  -7.8221  -7.8186  -7.7992
    -7.7991  -7.7858  -7.7799  -7.7792  -7.7757  -7.7532  -7.7527  -7.7501
    -7.7482  -7.7318  -7.7267  -7.7138  -7.7126  -7.7093  -7.7055  -7.7034
    -7.6915  -7.6837  -7.6836  -7.6727  -7.6664  -7.6632  -7.6511  -7.6355
    -7.6284  -7.6139  -7.6134  -7.6108  -7.5969  -7.5905  -7.5730  -7.5452
    -7.5412  -7.5163  -7.4808  -7.4727  -7.4585  -7.3783  -7.3154  -7.2747
    -7.2663  -7.2616  -7.2512  -7.2119  -7.1886  -7.1415  -7.1396  -7.1360
    -7.0872  -7.0795  -7.0444  -7.0367  -7.0324  -7.0057  -6.9777  -6.9738
    -6.9626  -6.9591  -6.9502  -6.9476  -6.9176  -6.8844  -6.8755  -6.8527
    -6.8473  -6.8214  -6.7795  -6.7704  -6.7359  -6.7069  -6.6807  -6.6806
    -6.6806  -6.6804  -6.6579  -6.6490  -6.6193  -6.6136  -6.6132  -6.6129
    -6.6079  -6.5917  -6.5816  -6.5394  -6.5383  -6.5255  -6.5111  -6.4700
    -6.4359  -6.4316  -6.3500  -6.3492  -6.3490  -6.3488  -6.3327  -6.2839
    -6.2836  -6.2709  -6.2691  -6.2675  -6.2671  -6.2462  -6.2235  -6.2100
    -6.1901  -6.1826  -6.1738  -6.1712  -6.0005  -6.0005  -5.9275  -5.9269
    -5.9051  -5.8913  -5.8569  -5.7667  -5.6679  -5.6377  -5.6201  -5.5480
    -5.4832  -4.0416  -4.0403  -4.0387  -4.0330  -3.9159  -3.9158  -3.9071
    -3.8955  -3.8511  -3.8509  -3.8238  -3.7924  -3.7915  -3.7830  -3.7770
    -3.7700  -3.7162  -3.6952  -3.6212  -3.6185  -3.6162  -3.6158  -3.6015
    -3.6013  -3.5957  -3.5632  -3.5619  -3.5561  -3.5252  -3.5217  -3.5208
    -3.5093  -3.4995  -3.4951  -3.4907  -3.4881  -3.4829  -3.4827  -3.4403
    -3.4258  -3.4061  -3.3827  -3.3744  -3.3739  -3.3688  -3.3685  -3.3489
    -3.3398  -3.3334  -3.3289  -3.3207  -3.2950  -3.2923  -3.2922  -3.2920
    -3.2904  -3.2787  -3.2630  -3.2570  -3.2552  -3.2422  -3.2279  -3.2242
    -3.2239  -3.2184  -3.2088  -3.2051  -3.2030  -3.1617  -3.1370  -3.1330
    -3.1275  -3.1206  -3.1119  -3.0887  -3.0874  -3.0506  -3.0486  -3.0433
    -3.0386  -3.0291  -3.0288  -3.0286  -3.0285  -2.9957  -2.9852  -2.9807
    -2.9792  -2.9635  -2.9545  -2.9399  -2.9381  -2.9339  -2.9326  -2.9149
    -2.8997  -2.8989  -2.8961  -2.8849  -2.8792  -2.8747  -2.8522  -2.8389
    -2.8386  -2.8197  -2.8187  -2.8171  -2.8138  -2.7474  -2.7281  -2.7152
    -2.6660  -2.6659  -2.6622  -2.6510  -2.6426  -2.6424  -2.5840  -2.5811
    -2.5220  -2.5205  -2.5048  -2.5004  -2.4963  -2.4793  -2.3641  -2.3424

          k =-0.5000-0.8660 0.0000 (321564 PWs)   bands (ev):

   -88.6593 -66.7040 -66.7039 -66.6934 -66.6934 -66.6784 -66.6784 -66.6784
   -66.6784 -66.6741 -66.6740 -66.6678 -66.6678 -66.6678 -66.6678 -66.6634
   -66.6634 -66.6380 -66.6378 -66.6274 -66.6273 -66.6126 -66.6125 -66.6124
   -66.6122 -66.6082 -66.6079 -66.6020 -66.6019 -66.6019 -66.6015 -66.5975
   -66.5974 -66.5698 -66.5676 -66.5629 -66.5555 -66.5496 -66.5449 -66.5439
   -66.5381 -66.5380 -66.5360 -66.5230 -66.5223 -66.5223 -66.5156 -66.5147
   -66.5104 -54.4795 -54.4531 -54.4531 -41.0051 -41.0051 -41.0051 -41.0051
   -40.9785 -40.9785 -40.9666 -40.9665 -40.9381 -40.9380 -40.9380 -40.9378
   -40.9161 -40.9161 -40.9161 -40.9161 -40.9114 -40.9113 -40.8995 -40.8993
   -40.8724 -40.8647 -40.8597 -40.8581 -40.8581 -40.8510 -40.8491 -40.8491
   -40.8490 -40.8490 -40.8482 -40.8482 -40.8412 -40.8385 -40.8374 -40.8374
   -40.8229 -40.8123 -40.8080 -40.8080 -40.8080 -40.8080 -40.7993 -40.7993
   -40.7927 -40.7925 -40.7872 -40.7872 -40.7871 -40.7871 -40.7871 -40.7871
   -40.7813 -40.7812 -40.7784 -40.7784 -40.7730 -40.7721 -40.7719 -40.7719
   -40.7705 -40.7685 -40.7564 -40.7564 -40.7564 -40.7564 -40.7483 -40.7426
   -40.7426 -40.7424 -40.7423 -40.7339 -40.7338 -40.7253 -40.7219 -40.7219
   -40.7219 -40.7219 -40.7218 -40.7217 -40.7217 -40.7214 -40.7203 -40.7202
   -40.7158 -40.7131 -40.7130 -40.7099 -40.7098 -40.7065 -40.7009 -40.6996
   -40.6907 -40.6907 -40.6897 -40.6897 -40.6895 -40.6893 -40.6891 -40.6740
   -40.6738 -40.6738 -40.6732 -40.6691 -40.6674 -40.6593 -40.6570 -40.6552
   -40.6551 -40.6550 -40.6550 -40.6513 -40.6504 -40.6473 -40.6454 -40.6433
   -40.6433 -40.6431 -40.6429 -40.6426 -40.6404 -40.6360 -40.6240 -40.6237
   -40.6165 -40.6134 -40.6127 -40.6111 -40.6070 -40.6069 -40.5794 -40.5782
   -40.5766 -40.5764 -40.5763 -40.5751 -40.5716 -40.5581 -40.5483 -40.5445
   -40.5272 -40.5269 -40.5029 -40.4929 -19.9059 -19.9048 -19.7986 -19.7846
   -19.6790 -19.6546 -19.4706 -19.4706 -19.3619 -19.3609 -19.2440 -19.2439
   -18.7905 -18.7805 -18.7639 -18.7622 -18.7621 -18.7615 -18.6965 -18.6929
   -18.6712 -18.6570 -18.6346 -18.6190 -18.6091 -18.5707 -18.5689 -18.5616
   -18.5538 -18.5379 -18.5146 -18.5141 -18.4586 -18.4434 -18.4221 -18.4184
   -18.4156 -18.4033 -18.3641 -18.3123 -18.2920 -18.2747 -18.2447 -18.2410
   -18.2362 -18.2346 -18.1663 -18.1597 -18.1500 -18.1498 -18.1498 -18.1494
   -18.1291 -18.1247 -18.1213 -18.1105 -18.0807 -18.0757 -18.0751 -18.0734
   -18.0618 -18.0570 -18.0280 -18.0211 -18.0146 -18.0008 -17.9939 -17.9933
   -17.9903 -17.9892 -17.9591 -17.9552 -17.9465 -17.9445 -17.9443 -17.9266
   -17.8984 -17.8868 -17.8864 -17.8864 -17.8798 -17.8787 -17.8331 -17.8270
   -17.8265 -17.8153 -17.8107 -17.8100 -17.7989 -17.7988 -17.7703 -17.7679
   -17.7492 -17.7373 -17.7020 -17.6928 -11.7025 -11.6945 -11.5419 -11.4985
   -11.4973 -11.4969 -11.4914 -11.4756 -11.4721 -11.4301 -11.4177 -11.4131
   -11.4105 -11.3859 -11.3673 -11.3604 -11.3437 -11.3241 -11.3165 -11.3144
   -11.3023 -11.3021 -11.2881 -11.2793 -11.2792 -11.2436 -11.2336 -11.2333
   -11.2137 -11.1798 -11.1760 -11.1729 -11.1727 -11.1720 -11.0344 -11.0046
   -10.9942 -10.9937 -10.9799 -10.9673 -10.9385 -10.9366 -10.9160 -10.9024
   -10.8877 -10.8833 -10.8605 -10.8551 -10.8540 -10.8527 -10.8504 -10.8432
   -10.8347 -10.8212 -10.8199 -10.8030 -10.8023 -10.7908 -10.7893 -10.7859
   -10.7641 -10.7328 -10.7325 -10.6901 -10.5865 -10.5762 -10.5175 -10.5124
   -10.4276 -10.3934 -10.3385 -10.2867 -10.2480 -10.1675 -10.1475 -10.1440
   -10.1335 -10.1311 -10.0598 -10.0467 -10.0414 -10.0252  -9.9604  -9.9578
    -9.9563  -9.9551  -9.9516  -9.9508  -9.9272  -9.9219  -9.9151  -9.9130
    -9.8983  -9.8956  -9.8203  -9.8098  -9.8075  -9.7739  -9.7728  -9.7695
    -9.7658  -9.7433  -9.7380  -9.7307  -9.7290  -9.7185  -9.6778  -9.6634
    -9.6628  -9.6522  -9.6494  -9.6314  -9.6310  -9.6286  -9.6260  -9.6107
    -9.5597  -9.5505  -9.5476  -9.5171  -9.5086  -9.4905  -9.4900  -9.4851
    -9.4348  -9.4344  -9.3369  -9.3226  -9.2740  -9.2669  -9.2130  -9.1851
    -9.1685  -9.1638  -9.1622  -9.1518  -9.1488  -9.1457  -9.1437  -9.1354
    -9.0918  -9.0558  -9.0509  -9.0488  -9.0257  -9.0238  -9.0161  -8.9993
    -8.9931  -8.9826  -8.9750  -8.9714  -8.9620  -8.9550  -8.9532  -8.9497
    -8.9496  -8.9372  -8.9274  -8.9158  -8.9037  -8.8957  -8.8825  -8.8768
    -8.8703  -8.8619  -8.8619  -8.8490  -8.8435  -8.8413  -8.8297  -8.8181
    -8.8097  -8.8083  -8.7929  -8.7892  -8.7828  -8.7611  -8.7505  -8.7489
    -8.7191  -8.7106  -8.5438  -8.5351  -8.5308  -8.4771  -8.4650  -8.4475
    -8.4179  -8.4142  -8.2512  -8.2229  -8.2157  -8.2156  -8.1650  -8.1440
    -8.1432  -8.0940  -8.0715  -8.0427  -8.0021  -7.9553  -7.9549  -7.9069
    -7.8964  -7.8848  -7.8839  -7.8720  -7.8694  -7.8689  -7.8689  -7.8648
    -7.8589  -7.8455  -7.8317  -7.8228  -7.8228  -7.8221  -7.8186  -7.7992
    -7.7991  -7.7858  -7.7799  -7.7792  -7.7757  -7.7532  -7.7527  -7.7502
    -7.7482  -7.7318  -7.7267  -7.7138  -7.7126  -7.7094  -7.7055  -7.7034
    -7.6915  -7.6837  -7.6836  -7.6727  -7.6664  -7.6632  -7.6511  -7.6355
    -7.6284  -7.6139  -7.6134  -7.6108  -7.5969  -7.5905  -7.5730  -7.5452
    -7.5412  -7.5163  -7.4808  -7.4727  -7.4585  -7.3783  -7.3154  -7.2746
    -7.2663  -7.2616  -7.2512  -7.2119  -7.1886  -7.1415  -7.1396  -7.1360
    -7.0872  -7.0796  -7.0444  -7.0367  -7.0324  -7.0057  -6.9777  -6.9738
    -6.9626  -6.9591  -6.9502  -6.9475  -6.9176  -6.8844  -6.8755  -6.8527
    -6.8473  -6.8214  -6.7795  -6.7704  -6.7359  -6.7069  -6.6807  -6.6806
    -6.6805  -6.6804  -6.6579  -6.6490  -6.6193  -6.6136  -6.6132  -6.6129
    -6.6079  -6.5917  -6.5816  -6.5394  -6.5383  -6.5255  -6.5111  -6.4700
    -6.4359  -6.4316  -6.3500  -6.3492  -6.3490  -6.3488  -6.3327  -6.2839
    -6.2836  -6.2709  -6.2691  -6.2675  -6.2671  -6.2462  -6.2235  -6.2100
    -6.1901  -6.1826  -6.1738  -6.1712  -6.0005  -6.0005  -5.9275  -5.9269
    -5.9051  -5.8913  -5.8569  -5.7667  -5.6679  -5.6377  -5.6201  -5.5480
    -5.4832  -4.0417  -4.0405  -4.0386  -4.0328  -3.9160  -3.9160  -3.9071
    -3.8956  -3.8512  -3.8510  -3.8237  -3.7924  -3.7912  -3.7830  -3.7772
    -3.7700  -3.7161  -3.6952  -3.6213  -3.6186  -3.6163  -3.6159  -3.6015
    -3.6013  -3.5956  -3.5634  -3.5621  -3.5560  -3.5252  -3.5216  -3.5207
    -3.5090  -3.4995  -3.4951  -3.4907  -3.4881  -3.4829  -3.4828  -3.4401
    -3.4257  -3.4058  -3.3827  -3.3744  -3.3739  -3.3688  -3.3688  -3.3487
    -3.3393  -3.3332  -3.3289  -3.3206  -3.2949  -3.2924  -3.2922  -3.2919
    -3.2902  -3.2785  -3.2629  -3.2572  -3.2554  -3.2419  -3.2279  -3.2240
    -3.2238  -3.2185  -3.2088  -3.2051  -3.2032  -3.1612  -3.1372  -3.1329
    -3.1275  -3.1206  -3.1119  -3.0894  -3.0877  -3.0506  -3.0482  -3.0429
    -3.0383  -3.0292  -3.0288  -3.0287  -3.0286  -2.9962  -2.9856  -2.9802
    -2.9795  -2.9637  -2.9545  -2.9400  -2.9382  -2.9339  -2.9326  -2.9149
    -2.8998  -2.8992  -2.8958  -2.8849  -2.8792  -2.8746  -2.8527  -2.8390
    -2.8381  -2.8196  -2.8187  -2.8164  -2.8137  -2.7485  -2.7304  -2.7151
    -2.6660  -2.6659  -2.6624  -2.6510  -2.6426  -2.6423  -2.5841  -2.5811
    -2.5222  -2.5209  -2.5047  -2.4998  -2.4962  -2.4793  -2.3764  -2.3442

     the Fermi energy is    -4.6208 ev

!    total energy              =  -24357.17288648 Ry
     total all-electron energy =   -475457.049703 Ry
     estimated scf accuracy    <       0.00000039 Ry
     smearing contrib. (-TS)   =      -0.00000000 Ry
     internal energy E=F+TS    =  -24357.17288648 Ry

     The total energy is F=E-TS. E is the sum of the following terms:
     one-electron contribution =  458341.44194948 Ry
     hartree contribution      = -229274.96042501 Ry
     xc contribution           =   -1458.95721440 Ry
     ewald contribution        = -236362.91778862 Ry
     DFT-D3 Dispersion         =      -3.98024472 Ry
     one-center paw contrib.   =  -15597.79916321 Ry

     convergence has been achieved in  26 iterations

     negative rho (up, down):  9.418E-04 0.000E+00

     Forces acting on atoms (cartesian axes, Ry/au):

     atom    1 type  1   force =    -0.00003668    0.00003303   -0.00001147
     atom    2 type  1   force =    -0.00000221   -0.00000005    0.00189175
     atom    3 type  1   force =    -0.00001283   -0.00001227   -0.00000598
     atom    4 type  2   force =     0.00000229   -0.00000263   -0.00321489
     atom    5 type  2   force =     0.00000829    0.00000247    0.00003015
     atom    6 type  2   force =     0.00010591   -0.00000675    0.00011719
     atom    7 type  2   force =     0.00000220   -0.00000286    0.00143626
     atom    8 type  2   force =     0.00000643   -0.00000795   -0.00007059
     atom    9 type  2   force =    -0.00007504    0.00015839   -0.00002633
     atom   10 type  1   force =     0.00001155   -0.00004787   -0.00001538
     atom   11 type  1   force =    -0.00000310   -0.00000150    0.00189031
     atom   12 type  1   force =    -0.00001716   -0.00000584   -0.00000459
     atom   13 type  2   force =     0.00000065    0.00000065   -0.00321013
     atom   14 type  2   force =    -0.00002339   -0.00001523    0.00004670
     atom   15 type  2   force =     0.00004883    0.00009639    0.00012130
     atom   16 type  2   force =     0.00000071   -0.00000008    0.00145334
     atom   17 type  2   force =    -0.00004003   -0.00002393   -0.00008153
     atom   18 type  2   force =     0.00009761   -0.00014518   -0.00003103
     atom   19 type  1   force =     0.00008248   -0.00003903   -0.00008351
     atom   20 type  1   force =    -0.00000734   -0.00000662    0.00189069
     atom   21 type  1   force =    -0.00000280    0.00001405   -0.00002941
     atom   22 type  2   force =     0.00000051    0.00000183   -0.00320775
     atom   23 type  2   force =     0.00000747    0.00000649    0.00003106
     atom   24 type  2   force =    -0.00000295   -0.00013401   -0.00004177
     atom   25 type  2   force =     0.00000039    0.00000321    0.00143175
     atom   26 type  2   force =    -0.00000240    0.00000839   -0.00007279
     atom   27 type  2   force =     0.00000023    0.00013440   -0.00012202
     atom   28 type  1   force =     0.00000553    0.00009389   -0.00008545
     atom   29 type  1   force =    -0.00000562   -0.00000121    0.00189474
     atom   30 type  1   force =     0.00001359   -0.00000560   -0.00002875
     atom   31 type  2   force =    -0.00000058   -0.00000036   -0.00320995
     atom   32 type  2   force =    -0.00000020   -0.00000097    0.00001699
     atom   33 type  2   force =    -0.00011885    0.00006569   -0.00004402
     atom   34 type  2   force =    -0.00000435   -0.00000178    0.00144239
     atom   35 type  2   force =     0.00000037    0.00000082   -0.00006662
     atom   36 type  2   force =     0.00011513   -0.00006792   -0.00012136
     atom   37 type  1   force =     0.00003805    0.00003315   -0.00001351
     atom   38 type  1   force =     0.00000016    0.00000189    0.00188928
     atom   39 type  1   force =    -0.00000846    0.00001140   -0.00001149
     atom   40 type  2   force =    -0.00000009   -0.00000113   -0.00321090
     atom   41 type  2   force =    -0.00001230    0.00000221    0.00003154
     atom   42 type  2   force =     0.00000142    0.00050225    0.00022744
     atom   43 type  2   force =    -0.00000166    0.00000258    0.00144211
     atom   44 type  2   force =    -0.00001114   -0.00000752   -0.00007136
     atom   45 type  2   force =     0.00000046    0.00018841   -0.00017245
     atom   46 type  1   force =     0.00000035    0.00000619   -0.00058458
     atom   47 type  1   force =     0.00000197    0.00001303    0.00188888
     atom   48 type  1   force =    -0.00001595   -0.00000946   -0.00000282
     atom   49 type  2   force =    -0.00000029   -0.00000058   -0.00321040
     atom   50 type  2   force =    -0.00000451    0.00000468    0.00004725
     atom   51 type  2   force =     0.00028371    0.00016459    0.00009541
     atom   52 type  2   force =    -0.00000157    0.00000428    0.00144054
     atom   53 type  2   force =    -0.00000342    0.00001354   -0.00006154
     atom   54 type  2   force =    -0.00015953   -0.00009272   -0.00022131
     atom   55 type  1   force =     0.00005130    0.00001857   -0.00001576
     atom   56 type  1   force =     0.00001081   -0.00000747    0.00189050
     atom   57 type  1   force =     0.00000867   -0.00001040   -0.00001297
     atom   58 type  2   force =    -0.00000196   -0.00000161   -0.00320933
     atom   59 type  2   force =     0.00000551   -0.00000430    0.00004675
     atom   60 type  2   force =     0.00043673   -0.00025040    0.00022991
     atom   61 type  2   force =     0.00000370   -0.00000177    0.00144008
     atom   62 type  2   force =     0.00001219   -0.00000963   -0.00006009
     atom   63 type  2   force =     0.00016450   -0.00009297   -0.00017137
     atom   64 type  1   force =    -0.00001667   -0.00001107    0.00015407
     atom   65 type  1   force =     0.00000126    0.00000077    0.00189217
     atom   66 type  1   force =    -0.00001816   -0.00000615   -0.00003116
     atom   67 type  2   force =     0.00000015   -0.00000108   -0.00321126
     atom   68 type  2   force =    -0.00000191   -0.00001177    0.00003168
     atom   69 type  2   force =     0.00011938    0.00006927   -0.00004184
     atom   70 type  2   force =     0.00000415   -0.00000306    0.00144428
     atom   71 type  2   force =    -0.00001033   -0.00000576   -0.00007248
     atom   72 type  2   force =    -0.00011418   -0.00006677   -0.00012177
     atom   73 type  1   force =     0.00001160    0.00000075   -0.00010103
     atom   74 type  1   force =    -0.00000252    0.00000173    0.00189316
     atom   75 type  1   force =     0.00001989   -0.00001570   -0.00000562
     atom   76 type  2   force =    -0.00000133   -0.00000118   -0.00321636
     atom   77 type  2   force =     0.00004833    0.00002547    0.00007577
     atom   78 type  2   force =    -0.00010610   -0.00000692    0.00011625
     atom   79 type  2   force =    -0.00000218   -0.00000280    0.00143736
     atom   80 type  2   force =    -0.00003808   -0.00002426   -0.00000810
     atom   81 type  2   force =     0.00007546    0.00015897   -0.00002268
     atom   82 type  1   force =    -0.00000782   -0.00004856   -0.00001213
     atom   83 type  1   force =    -0.00000096    0.00000333    0.00189036
     atom   84 type  1   force =     0.00000687    0.00000054   -0.00000195
     atom   85 type  2   force =    -0.00000017   -0.00000169   -0.00321183
     atom   86 type  2   force =     0.00002463   -0.00001473    0.00004272
     atom   87 type  2   force =    -0.00028706    0.00016537    0.00009508
     atom   88 type  2   force =    -0.00000008    0.00000505    0.00143999
     atom   89 type  2   force =     0.00003999   -0.00002427   -0.00007641
     atom   90 type  2   force =     0.00015924   -0.00009322   -0.00021575
     atom   91 type  1   force =    -0.00004836    0.00002086   -0.00001425
     atom   92 type  1   force =    -0.00000464   -0.00000670    0.00188748
     atom   93 type  1   force =     0.00000288    0.00001224   -0.00000454
     atom   94 type  2   force =    -0.00000016   -0.00000165   -0.00320862
     atom   95 type  2   force =    -0.00000889   -0.00000272    0.00005058
     atom   96 type  2   force =     0.00000033   -0.00032542    0.00009711
     atom   97 type  2   force =    -0.00000244   -0.00000041    0.00143346
     atom   98 type  2   force =    -0.00001288   -0.00000618   -0.00006142
     atom   99 type  2   force =    -0.00000133    0.00018903   -0.00021792
     atom  100 type  1   force =     0.00000515    0.00000751   -0.00009990
     atom  101 type  1   force =     0.00000203   -0.00000282    0.00189399
     atom  102 type  1   force =     0.00000076    0.00002255   -0.00000557
     atom  103 type  2   force =    -0.00000030    0.00000103   -0.00321409
     atom  104 type  2   force =    -0.00000064    0.00002586    0.00004395
     atom  105 type  2   force =    -0.00005975   -0.00009166    0.00012172
     atom  106 type  2   force =     0.00000292   -0.00000325    0.00144272
     atom  107 type  2   force =    -0.00000084    0.00004618   -0.00007681
     atom  108 type  2   force =     0.00017622   -0.00001576   -0.00002609
     atom  109 type  1   force =    -0.00001116   -0.00000357   -0.00010006
     atom  110 type  1   force =     0.00000697    0.00000346    0.00189403
     atom  111 type  1   force =     0.00000176   -0.00000119    0.00011834
     atom  112 type  2   force =    -0.00000084   -0.00000200   -0.00321568
     atom  113 type  2   force =    -0.00004589    0.00002694    0.00007503
     atom  114 type  2   force =    -0.00000040    0.00000005   -0.00023387
     atom  115 type  2   force =    -0.00000082   -0.00000185    0.00145599
     atom  116 type  2   force =     0.00004075   -0.00002358   -0.00000721
     atom  117 type  2   force =    -0.00000071    0.00000088   -0.00028658
     atom  118 type  1   force =    -0.00000550    0.00001577    0.00015341
     atom  119 type  1   force =     0.00000562    0.00000756    0.00189499
     atom  120 type  1   force =     0.00002382   -0.00000301   -0.00000407
     atom  121 type  2   force =    -0.00000059   -0.00000224   -0.00321318
     atom  122 type  2   force =     0.00000241   -0.00005563    0.00007608
     atom  123 type  2   force =    -0.00004862    0.00009617    0.00011978
     atom  124 type  2   force =    -0.00000163   -0.00000053    0.00145437
     atom  125 type  2   force =     0.00000405    0.00004571   -0.00000945
     atom  126 type  2   force =    -0.00009933   -0.00014376   -0.00003068
     atom  127 type  1   force =    -0.00007973   -0.00004648   -0.00008448
     atom  128 type  1   force =     0.00000291   -0.00000232    0.00189053
     atom  129 type  1   force =    -0.00001130   -0.00000387   -0.00001036
     atom  130 type  2   force =    -0.00000028    0.00000030   -0.00320577
     atom  131 type  2   force =    -0.00000571    0.00000641    0.00003400
     atom  132 type  2   force =    -0.00043505   -0.00025071    0.00022584
     atom  133 type  2   force =    -0.00000414   -0.00000156    0.00143573
     atom  134 type  2   force =     0.00000379    0.00001133   -0.00007583
     atom  135 type  2   force =    -0.00016214   -0.00009306   -0.00017138
     atom  136 type  1   force =     0.00000876   -0.00001155    0.00015208
     atom  137 type  1   force =     0.00000369   -0.00000305    0.00189209
     atom  138 type  1   force =     0.00000520    0.00002393   -0.00000612
     atom  139 type  2   force =     0.00000116   -0.00000079   -0.00321086
     atom  140 type  2   force =     0.00000345   -0.00000524    0.00003254
     atom  141 type  2   force =     0.00005911   -0.00009207    0.00012101
     atom  142 type  2   force =    -0.00000380   -0.00000111    0.00143725
     atom  143 type  2   force =     0.00001143   -0.00000147   -0.00007372
     atom  144 type  2   force =    -0.00017559   -0.00001543   -0.00002891
     atom  145 type  3   force =     0.00000157   -0.00000029    0.00002951
     The non-local contrib.  to forces
     atom    1 type  1   force =     0.00154217    0.00125371    0.00001905
     atom    2 type  1   force =    -0.00000107   -0.00000097   -0.00196276
     atom    3 type  1   force =     0.00008148   -0.00012796   -0.00079420
     atom    4 type  2   force =     0.00000151   -0.00000089    0.26313114
     atom    5 type  2   force =     0.00001844   -0.00007963    0.26637995
     atom    6 type  2   force =    -0.00124127   -0.00176131    0.26616456
     atom    7 type  2   force =     0.00000249   -0.00000125   -0.26456591
[...]
     atom   65 type  1   force =     0.00001830   -0.00001602    0.00000356
     atom   66 type  1   force =     0.00003246   -0.00000028    0.00000261
     atom   67 type  2   force =     0.00001093    0.00000609   -0.00024205
     atom   68 type  2   force =     0.00000924    0.00000115   -0.00019265
     atom   69 type  2   force =     0.00000321   -0.00000426   -0.00018296
     atom   70 type  2   force =     0.00001280    0.00000556    0.00020024
     atom   71 type  2   force =     0.00000912   -0.00000079    0.00017338
     atom   72 type  2   force =    -0.00000129   -0.00000435    0.00020852
     atom   73 type  1   force =    -0.00000416   -0.00001080   -0.00001396
     atom   74 type  1   force =     0.00001721   -0.00001327   -0.00000010
     atom   75 type  1   force =    -0.00001415   -0.00000696    0.00000243
     atom   76 type  2   force =     0.00000396   -0.00000271   -0.00024014
     atom   77 type  2   force =    -0.00000339   -0.00000966   -0.00019671
     atom   78 type  2   force =    -0.00000407   -0.00000390   -0.00018229
     atom   79 type  2   force =     0.00000235   -0.00000150    0.00019814
     atom   80 type  2   force =    -0.00000555   -0.00001035    0.00017703
     atom   81 type  2   force =     0.00000548   -0.00000339    0.00020771
     atom   82 type  1   force =    -0.00003844   -0.00003268   -0.00004895
     atom   83 type  1   force =    -0.00001948    0.00000081   -0.00000000
     atom   84 type  1   force =    -0.00002218   -0.00002111   -0.00000503
     atom   85 type  2   force =    -0.00000838   -0.00000001   -0.00023907
     atom   86 type  2   force =    -0.00001131   -0.00000816   -0.00019895
     atom   87 type  2   force =     0.00000029   -0.00000825   -0.00017685
     atom   88 type  2   force =    -0.00000918   -0.00000049    0.00019814
     atom   89 type  2   force =    -0.00001200   -0.00000972    0.00017441
     atom   90 type  2   force =     0.00003900   -0.00002945    0.00016989
     atom   91 type  1   force =    -0.00005707   -0.00000893   -0.00005537
     atom   92 type  1   force =    -0.00000683   -0.00000097    0.00000039
     atom   93 type  1   force =    -0.00002863    0.00000995    0.00000211
     atom   94 type  2   force =    -0.00000309   -0.00000246   -0.00024509
     atom   95 type  2   force =    -0.00001553   -0.00000009   -0.00020261
     atom   96 type  2   force =    -0.00000908    0.00001262   -0.00018104
     atom   97 type  2   force =    -0.00000254   -0.00000424    0.00020716
     atom   98 type  2   force =    -0.00001569    0.00000185    0.00018248
     atom   99 type  2   force =    -0.00000970    0.00005616    0.00017442
     atom  100 type  1   force =    -0.00002779   -0.00002268   -0.00000970
     atom  101 type  1   force =    -0.00000854   -0.00000109   -0.00000587
     atom  102 type  1   force =    -0.00001495   -0.00002726   -0.00000057
     atom  103 type  2   force =     0.00000077    0.00000213   -0.00023455
     atom  104 type  2   force =    -0.00000867   -0.00000422   -0.00019399
     atom  105 type  2   force =     0.00000008   -0.00000863   -0.00018194
     atom  106 type  2   force =    -0.00000033    0.00000046    0.00019435
     atom  107 type  2   force =    -0.00000993   -0.00000658    0.00017535
     atom  108 type  2   force =     0.00000566   -0.00000095    0.00020778
     atom  109 type  1   force =     0.00000231    0.00002077   -0.00002007
     atom  110 type  1   force =    -0.00003187   -0.00001301    0.00000290
     atom  111 type  1   force =    -0.00001538   -0.00001648   -0.00000874
     atom  112 type  2   force =    -0.00000308   -0.00000150   -0.00023503
     atom  113 type  2   force =    -0.00000520   -0.00000279   -0.00020350
     atom  114 type  2   force =    -0.00000278   -0.00000182   -0.00018596
     atom  115 type  2   force =    -0.00000341   -0.00000210    0.00019341
     atom  116 type  2   force =    -0.00000184   -0.00000105    0.00018367
     atom  117 type  2   force =    -0.00000388   -0.00000466    0.00021673
     atom  118 type  1   force =     0.00001746    0.00001123   -0.00001909
     atom  119 type  1   force =    -0.00000759   -0.00003275   -0.00000316
     atom  120 type  1   force =    -0.00001740   -0.00002062    0.00000120
     atom  121 type  2   force =     0.00000248   -0.00000803   -0.00024128
     atom  122 type  2   force =     0.00000115   -0.00000805   -0.00020541
     atom  123 type  2   force =    -0.00000524   -0.00000547   -0.00018275
     atom  124 type  2   force =    -0.00000019   -0.00001008    0.00019556
     atom  125 type  2   force =     0.00000497   -0.00000564    0.00018517
     atom  126 type  2   force =    -0.00000059   -0.00000942    0.00021471
     atom  127 type  1   force =     0.00003016    0.00001145   -0.00003478
     atom  128 type  1   force =    -0.00002558   -0.00000851   -0.00000232
     atom  129 type  1   force =    -0.00001838    0.00001668   -0.00000484
     atom  130 type  2   force =    -0.00001014   -0.00000296   -0.00024592
     atom  131 type  2   force =    -0.00000190    0.00000221   -0.00020806
     atom  132 type  2   force =    -0.00000503   -0.00000056   -0.00019202
     atom  133 type  2   force =    -0.00001366   -0.00000426    0.00020192
     atom  134 type  2   force =    -0.00000109    0.00000515    0.00018839
     atom  135 type  2   force =     0.00000441    0.00000259    0.00020634
     atom  136 type  1   force =     0.00001186   -0.00000522   -0.00002792
     atom  137 type  1   force =    -0.00002999   -0.00000131   -0.00000329
     atom  138 type  1   force =    -0.00002273   -0.00002372   -0.00000578
     atom  139 type  2   force =    -0.00000721    0.00000329   -0.00023872
     atom  140 type  2   force =    -0.00000708    0.00000154   -0.00020511
     atom  141 type  2   force =    -0.00001182   -0.00000559   -0.00018979
     atom  142 type  2   force =    -0.00000863    0.00000011    0.00019834
     atom  143 type  2   force =    -0.00000633    0.00000088    0.00018500
     atom  144 type  2   force =    -0.00001490    0.00000224    0.00021444
     atom  145 type  3   force =     0.00000200    0.00000464    0.00017341

     DFT-D3 dispersion contribution to forces:
     atom    1 type  1   force =     0.00011942    0.00019358   -0.00235044
     atom    2 type  1   force =     0.00000014   -0.00000014    0.00260462
     atom    3 type  1   force =    -0.00000723   -0.00000755   -0.00002707
     atom    4 type  2   force =    -0.00000000    0.00000000    0.00441174
     atom    5 type  2   force =     0.00000109   -0.00000134   -0.00004741
     atom    6 type  2   force =    -0.00000839    0.00000133   -0.00014960
     atom    7 type  2   force =     0.00000050   -0.00000030    0.00023547
     atom    8 type  2   force =    -0.00000300   -0.00002101    0.00008768
     atom    9 type  2   force =     0.00018030    0.00021203   -0.00431436
     atom   10 type  1   force =     0.00022735    0.00000664   -0.00235044
     atom   11 type  1   force =     0.00000014    0.00000008    0.00260436
     atom   12 type  1   force =    -0.00001017   -0.00000247   -0.00002707
     atom   13 type  2   force =     0.00000001    0.00000001    0.00441169
     atom   14 type  2   force =    -0.00000021   -0.00000012   -0.00004949
     atom   15 type  2   force =    -0.00000306   -0.00000791   -0.00014961
     atom   16 type  2   force =     0.00000038    0.00000023    0.00023567
     atom   17 type  2   force =    -0.00001130   -0.00000652    0.00009417
     atom   18 type  2   force =     0.00027377    0.00005013   -0.00431436
     atom   19 type  1   force =     0.00009188   -0.00005305   -0.00254603
     atom   20 type  1   force =    -0.00000005    0.00000019    0.00260463
     atom   21 type  1   force =    -0.00000001    0.00000079   -0.00001877
     atom   22 type  2   force =     0.00000000   -0.00000000    0.00441174
     atom   23 type  2   force =    -0.00000061    0.00000161   -0.00004740
     atom   24 type  2   force =    -0.00000000    0.00000162   -0.00019630
     atom   25 type  2   force =    -0.00000001    0.00000058    0.00023547
     atom   26 type  2   force =    -0.00001971    0.00000790    0.00008767
     atom   27 type  2   force =     0.00000001   -0.00002283   -0.00439740
     atom   28 type  1   force =    -0.00000000    0.00010609   -0.00254603
     atom   29 type  1   force =     0.00000000   -0.00000000    0.00260481
     atom   30 type  1   force =     0.00000069   -0.00000042   -0.00001877
     atom   31 type  2   force =     0.00000005    0.00000003    0.00441184
     atom   32 type  2   force =     0.00000000   -0.00000000   -0.00004616
     atom   33 type  2   force =     0.00000140   -0.00000081   -0.00019630
     atom   34 type  2   force =     0.00000006    0.00000003    0.00023582
     atom   35 type  2   force =     0.00000001   -0.00000001    0.00009655
     atom   36 type  2   force =    -0.00001976    0.00001142   -0.00439740
     atom   37 type  1   force =    -0.00011944    0.00019357   -0.00235044
     atom   38 type  1   force =    -0.00000014   -0.00000014    0.00260463
     atom   39 type  1   force =     0.00000004   -0.00001410   -0.00003925
     atom   40 type  2   force =     0.00000000   -0.00000006    0.00441184
     atom   41 type  2   force =    -0.00000108   -0.00000132   -0.00004739
     atom   42 type  2   force =     0.00000001    0.00002669   -0.00010764
     atom   43 type  2   force =     0.00000001   -0.00000007    0.00023581
     atom   44 type  2   force =     0.00000302   -0.00002100    0.00008767
     atom   45 type  2   force =    -0.00000001    0.00038843   -0.00424685
     atom   46 type  1   force =    -0.00000002   -0.00000001   -0.00785793
     atom   47 type  1   force =     0.00000000   -0.00000001    0.00260454
     atom   48 type  1   force =    -0.00001004   -0.00000579   -0.00005909
     atom   49 type  2   force =    -0.00000001   -0.00000001    0.00441167
     atom   50 type  2   force =     0.00000001   -0.00000112   -0.00005301
     atom   51 type  2   force =     0.00003573    0.00002063    0.00013031
     atom   52 type  2   force =     0.00000018    0.00000003    0.00023571
     atom   53 type  2   force =     0.00000001   -0.00001945    0.00007812
     atom   54 type  2   force =    -0.00097557   -0.00056325   -0.00529489
     atom   55 type  1   force =     0.00010791   -0.00020023   -0.00235044
     atom   56 type  1   force =    -0.00000001    0.00000001    0.00260454
     atom   57 type  1   force =    -0.00001220    0.00000706   -0.00003925
     atom   58 type  2   force =    -0.00000002   -0.00000001    0.00441167
     atom   59 type  2   force =    -0.00000096    0.00000057   -0.00005301
     atom   60 type  2   force =     0.00002311   -0.00001334   -0.00010764
     atom   61 type  2   force =     0.00000011    0.00000014    0.00023571
     atom   62 type  2   force =    -0.00001685    0.00000973    0.00007812
     atom   63 type  2   force =     0.00033639   -0.00019423   -0.00424685
     atom   64 type  1   force =     0.00001174    0.00000678   -0.00255554
     atom   65 type  1   force =    -0.00000019   -0.00000005    0.00260463
     atom   66 type  1   force =    -0.00000067   -0.00000041   -0.00001877
     atom   67 type  2   force =    -0.00000005    0.00000003    0.00441184
     atom   68 type  2   force =    -0.00000169   -0.00000027   -0.00004739
     atom   69 type  2   force =    -0.00000139   -0.00000080   -0.00019630
     atom   70 type  2   force =    -0.00000006    0.00000004    0.00023582
     atom   71 type  2   force =    -0.00001669    0.00001312    0.00008767
     atom   72 type  2   force =     0.00001976    0.00001141   -0.00439740
     atom   73 type  1   force =    -0.00007282    0.00004205   -0.00253964
     atom   74 type  1   force =    -0.00000020   -0.00000011    0.00260411
     atom   75 type  1   force =     0.00000722   -0.00000754   -0.00002707
     atom   76 type  2   force =     0.00000000    0.00000000    0.00441174
     atom   77 type  2   force =    -0.00000016   -0.00000009   -0.00004649
     atom   78 type  2   force =     0.00000840    0.00000134   -0.00014962
     atom   79 type  2   force =    -0.00000050   -0.00000029    0.00023547
     atom   80 type  2   force =     0.00000226    0.00000131    0.00009647
     atom   81 type  2   force =    -0.00018030    0.00021202   -0.00431433
     atom   82 type  1   force =    -0.00022736    0.00000663   -0.00235045
     atom   83 type  1   force =    -0.00000014    0.00000008    0.00260438
     atom   84 type  1   force =     0.00001008   -0.00000580   -0.00005909
     atom   85 type  2   force =     0.00000002   -0.00000001    0.00441167
     atom   86 type  2   force =     0.00000022   -0.00000012   -0.00004947
     atom   87 type  2   force =    -0.00003572    0.00002063    0.00013029
     atom   88 type  2   force =    -0.00000017    0.00000003    0.00023572
     atom   89 type  2   force =     0.00001130   -0.00000652    0.00009415
     atom   90 type  2   force =     0.00097563   -0.00056329   -0.00529493
     atom   91 type  1   force =    -0.00010793   -0.00020022   -0.00235044
     atom   92 type  1   force =     0.00000001    0.00000001    0.00260455
     atom   93 type  1   force =     0.00000001    0.00001162   -0.00005909
     atom   94 type  2   force =     0.00000000    0.00000000    0.00441158
     atom   95 type  2   force =     0.00000098    0.00000056   -0.00005300
     atom   96 type  2   force =     0.00000001   -0.00004124    0.00013029
     atom   97 type  2   force =     0.00000000    0.00000000    0.00023589
     atom   98 type  2   force =     0.00001686    0.00000973    0.00007811
     atom   99 type  2   force =    -0.00000001    0.00112656   -0.00529493
     atom  100 type  1   force =    -0.00000000   -0.00008408   -0.00253963
     atom  101 type  1   force =    -0.00000000   -0.00000016    0.00260437
     atom  102 type  1   force =    -0.00000293    0.00001003   -0.00002707
     atom  103 type  2   force =     0.00000000    0.00000002    0.00441167
     atom  104 type  2   force =    -0.00000000    0.00000024   -0.00004948
     atom  105 type  2   force =     0.00000535    0.00000660   -0.00014962
     atom  106 type  2   force =    -0.00000006   -0.00000016    0.00023572
     atom  107 type  2   force =    -0.00000000    0.00001304    0.00009415
     atom  108 type  2   force =     0.00009346   -0.00026215   -0.00431433
     atom  109 type  1   force =     0.00007284    0.00004206   -0.00253963
     atom  110 type  1   force =     0.00000019   -0.00000011    0.00260410
     atom  111 type  1   force =    -0.00000003    0.00000000   -0.00001572
     atom  112 type  2   force =     0.00000000   -0.00000001    0.00441169
     atom  113 type  2   force =     0.00000015   -0.00000009   -0.00004650
     atom  114 type  2   force =    -0.00000002   -0.00000000   -0.00018010
     atom  115 type  2   force =    -0.00000001   -0.00000045    0.00023568
     atom  116 type  2   force =    -0.00000227    0.00000130    0.00009648
     atom  117 type  2   force =     0.00000001    0.00000001   -0.00440685
     atom  118 type  1   force =     0.00000002   -0.00001358   -0.00255554
     atom  119 type  1   force =    -0.00000000    0.00000022    0.00260410
     atom  120 type  1   force =     0.00001012   -0.00000248   -0.00002707
     atom  121 type  2   force =    -0.00000001    0.00000001    0.00441169
     atom  122 type  2   force =    -0.00000001    0.00000018   -0.00004650
     atom  123 type  2   force =     0.00000303   -0.00000793   -0.00014962
     atom  124 type  2   force =    -0.00000039    0.00000022    0.00023568
     atom  125 type  2   force =    -0.00000000   -0.00000261    0.00009647
     atom  126 type  2   force =    -0.00027375    0.00005013   -0.00431434
     atom  127 type  1   force =    -0.00009188   -0.00005305   -0.00254603
     atom  128 type  1   force =     0.00000005    0.00000018    0.00260463
     atom  129 type  1   force =     0.00001219    0.00000702   -0.00003925
     atom  130 type  2   force =     0.00000002   -0.00000001    0.00441167
     atom  131 type  2   force =     0.00000061    0.00000160   -0.00004739
     atom  132 type  2   force =    -0.00002311   -0.00001335   -0.00010765
     atom  133 type  2   force =    -0.00000011    0.00000013    0.00023573
     atom  134 type  2   force =     0.00001970    0.00000790    0.00008766
     atom  135 type  2   force =    -0.00033638   -0.00019421   -0.00424683
     atom  136 type  1   force =    -0.00001174    0.00000680   -0.00255553
     atom  137 type  1   force =     0.00000018   -0.00000006    0.00260462
     atom  138 type  1   force =     0.00000291    0.00001000   -0.00002707
     atom  139 type  2   force =     0.00000000    0.00000002    0.00441167
     atom  140 type  2   force =     0.00000170   -0.00000028   -0.00004740
     atom  141 type  2   force =    -0.00000536    0.00000659   -0.00014961
     atom  142 type  2   force =     0.00000006   -0.00000017    0.00023572
     atom  143 type  2   force =     0.00001669    0.00001310    0.00008767
     atom  144 type  2   force =    -0.00009346   -0.00026214   -0.00431433
     atom  145 type  3   force =    -0.00000008   -0.00000005    0.00244132

     Total force =     0.016078     Total SCF correction =     0.002018
     SCF correction compared to forces is large: reduce conv_thr to get better values

     Writing all to output data dir ./outdir/pwscf.save/
 
     init_run     :    101.59s CPU    103.87s WALL (       1 calls)
     electrons    :  12499.69s CPU  12620.57s WALL (       1 calls)
     forces       :     64.79s CPU     66.78s WALL (       1 calls)
     force_dftd3  :      0.44s CPU      0.47s WALL (       1 calls)

     Called by init_run:
     wfcinit      :     82.92s CPU     84.10s WALL (       1 calls)
     potinit      :      1.86s CPU      1.90s WALL (       1 calls)
     hinit0       :     11.53s CPU     11.55s WALL (       1 calls)

     Called by electrons:
     c_bands      :  11479.58s CPU  11538.71s WALL (      27 calls)
     sum_band     :    934.26s CPU    968.31s WALL (      27 calls)
     v_of_rho     :     10.85s CPU     10.94s WALL (      27 calls)
     newd         :     55.20s CPU     83.41s WALL (      27 calls)
     PAW_pot      :     15.21s CPU     15.21s WALL (      27 calls)
     mix_rho      :      3.05s CPU      3.07s WALL (      27 calls)
     energy_dftd3 :      0.21s CPU      0.21s WALL (       1 calls)

     Called by c_bands:
     init_us_2    :     40.51s CPU     40.62s WALL (     224 calls)
     init_us_2:cp :     40.51s CPU     40.62s WALL (     224 calls)
     cegterg      :  11336.87s CPU  11395.81s WALL (     117 calls)

     Called by *egterg:
     cdiaghg      :    679.66s CPU    681.60s WALL (    1617 calls)
     h_psi        :   5982.94s CPU   6001.19s WALL (    1625 calls)
     s_psi        :   1186.24s CPU   1186.51s WALL (    1625 calls)
     g_psi        :     14.58s CPU     14.61s WALL (    1504 calls)

     Called by h_psi:
     h_psi:calbec :   1171.76s CPU   1172.03s WALL (    1625 calls)
     vloc_psi     :   3596.89s CPU   3605.14s WALL (    1625 calls)
     add_vuspsi   :   1195.72s CPU   1195.84s WALL (    1625 calls)

     General routines
     calbec       :   1470.99s CPU   1471.37s WALL (    1749 calls)
     fft          :      9.68s CPU      9.81s WALL (     361 calls)
     ffts         :      0.48s CPU      0.50s WALL (      54 calls)
     fftw         :   2721.46s CPU   2727.78s WALL (  766774 calls)
     interpolate  :      1.08s CPU      1.09s WALL (      27 calls)
 
     Parallel routines
 
     PWSCF        :      3h31m CPU      3h33m WALL

 
   This run was terminated on:  15:56: 1  12Aug2023            

=------------------------------------------------------------------------------=
   JOB DONE.
=------------------------------------------------------------------------------=
Application 11031488 resources: utime ~456513s, stime ~4604s, Rss ~2378192, inblocks ~0, outblocks ~31242784
