
     Program PWSCF v.7.2 starts on 15Dec2023 at 12:21:32 

     This program is part of the open-source Quantum ESPRESSO suite
     for quantum simulation of materials; please cite
         "P. Giannozzi et al., J. Phys.:Condens. Matter 21 395502 (2009);
         "P. Giannozzi et al., J. Phys.:Condens. Matter 29 465901 (2017);
         "P. Giannozzi et al., J. Chem. Phys. 152 154105 (2020);
          URL http://www.quantum-espresso.org", 
     in publications or presentations arising from this work. More details at
     http://www.quantum-espresso.org/quote

     Parallel version (MPI), running on    36 processors

     MPI processes distributed on     1 nodes
     768780 MiB available memory on the printing compute node when the environment starts
 
     Waiting for input...
     Reading input from standard input
Warning: card &CELL ignored
Warning: card / ignored

     Current dimensions of program PWSCF are:
     Max number of different atomic species (ntypx) = 10
     Max number of k-points (npk) =  40000
     Max angular momentum in pseudopotentials (lmaxx) =  4
     file Mo.pbe-spn-kjpaw_psl.1.0.0.UPF: wavefunction(s)  4S 4D renormalized
     file S.pbe-n-kjpaw_psl.1.0.0.UPF: wavefunction(s)  3S 3P renormalized
     file Pt.pbe-spfn-kjpaw_psl.1.0.0.UPF: wavefunction(s)  5P 4F renormalized
 
     R & G space division:  proc/nbgrp/npool/nimage =      36
     Subspace diagonalization in iterative solution of the eigenvalue problem:
     one sub-group per band group will be used
     custom distributed-memory algorithm (size of sub-group:  6*  6 procs)

 
     Parallelization info
     --------------------
     sticks:   dense  smooth     PW     G-vecs:    dense   smooth      PW
     Min         585     334     89               198743    85850   11735
     Max         586     335     90               198750    85861   11748
     Sum       21073   12049   3205              7154885  3090769  422587
 
     Using Slab Decomposition
 


     bravais-lattice index     =            0
     lattice parameter (alat)  =      23.8199  a.u.
     unit-cell volume          =   33861.0370 (a.u.)^3
     number of atoms/cell      =          193
     number of atomic types    =            3
     number of electrons       =      1696.00
     number of Kohn-Sham states=         1018
     kinetic-energy cutoff     =      77.0000  Ry
     charge density cutoff     =     539.0000  Ry
     scf convergence threshold =      1.0E-06
     mixing beta               =       0.2000
     number of iterations used =            8  plain     mixing
     energy convergence thresh.=      1.0E-04
     force convergence thresh. =      1.0E-03
     Exchange-correlation= SLA  PW   PBX  PBC
                           (   1   4   3   4   0   0   0)
     nstep                     =         1000


     Effective Screening Medium Method
     =================================
     Boundary Conditions: Vacuum-Slab-Vacuum
     total charge in unit cell        =   0.0000
     grid points for fit at edges     =        4 
 

     celldm(1)=  23.819920  celldm(2)=   0.000000  celldm(3)=   0.000000
     celldm(4)=   0.000000  celldm(5)=   0.000000  celldm(6)=   0.000000

     crystal axes: (cart. coord. in units of alat)
               a(1) = (   1.000000   0.000000   0.000000 )  
               a(2) = (  -0.499999   0.866026   0.000000 )  
               a(3) = (   0.000000   0.000000   2.893000 )  

     reciprocal axes: (cart. coord. in units 2 pi/alat)
               b(1) = (  1.000000  0.577349  0.000000 )  
               b(2) = (  0.000000  1.154700  0.000000 )  
               b(3) = (  0.000000  0.000000  0.345662 )  


     PseudoPot. # 1 for Mo read from file:
     ./pseudo/Mo.pbe-spn-kjpaw_psl.1.0.0.UPF
     MD5 check sum: 317bf72632116215fd98f72de1686f13
     Pseudo is Projector augmented-wave + core cor, Zval = 14.0
     Generated using 'atomic' code by A. Dal Corso  v.7.2
     Shape of augmentation charge: PSQ
     Using radial grid of 1229 points,  6 beta functions with: 
                l(1) =   0
                l(2) =   0
                l(3) =   1
                l(4) =   1
                l(5) =   2
                l(6) =   2
     Q(r) pseudized with 0 coefficients 


     PseudoPot. # 2 for S  read from file:
     ./pseudo/S.pbe-n-kjpaw_psl.1.0.0.UPF
     MD5 check sum: 8b7b5302570d38d5e87fed6a1065abda
     Pseudo is Projector augmented-wave + core cor, Zval =  6.0
     Generated using 'atomic' code by A. Dal Corso  v.7.2
     Shape of augmentation charge: PSQ
     Using radial grid of 1151 points,  6 beta functions with: 
                l(1) =   0
                l(2) =   0
                l(3) =   1
                l(4) =   1
                l(5) =   2
                l(6) =   2
     Q(r) pseudized with 0 coefficients 


     PseudoPot. # 3 for Pt read from file:
     ./pseudo/Pt.pbe-spfn-kjpaw_psl.1.0.0.UPF
     MD5 check sum: 620096ebf4e6ebacc94de60fd67efcb5
     Pseudo is Projector augmented-wave + core cor, Zval = 32.0
     Generated using 'atomic' code by A. Dal Corso  v.7.2
     Shape of augmentation charge: PSQ
     Using radial grid of 1277 points,  8 beta functions with: 
                l(1) =   0
                l(2) =   0
                l(3) =   1
                l(4) =   1
                l(5) =   2
                l(6) =   2
                l(7) =   3
                l(8) =   3
     Q(r) pseudized with 0 coefficients 


     atomic species   valence    mass     pseudopotential
        Mo            14.00    95.95000     Mo( 1.00)
        S              6.00    32.06000     S ( 1.00)
        Pt            32.00   195.08400     Pt( 1.00)

     No symmetry found



   Cartesian axes

     site n.     atom                  positions (alat units)
         1           Mo  tau(   1) = (   0.0000010   0.1443372  -0.7272732  )
         2           Mo  tau(   2) = (   0.1249995   0.0721706  -0.2424038  )
         3           S   tau(   3) = (   0.0000015   0.1443386  -0.3667807  )
         4           S   tau(   4) = (   0.1250010   0.0721682  -0.6030489  )
         5           S   tau(   5) = (   0.1250010   0.0721683  -0.8514963  )
         6           S   tau(   6) = (   0.0000015   0.1443389  -0.1180260  )
         7           Mo  tau(   7) = (   0.0000041   0.1443345   0.2424023  )
         8           Mo  tau(   8) = (   0.1250030   0.0721700   0.7272501  )
         9           S   tau(   9) = (   0.0000038   0.1443392   0.6028599  )
        10           S   tau(  10) = (   0.1250037   0.0721683   0.3667755  )
        11           S   tau(  11) = (   0.1250033   0.0721688   0.1180247  )
        12           S   tau(  12) = (   0.0000038   0.1443391   0.8517304  )
        13           Mo  tau(  13) = (  -0.1249989   0.3608437  -0.7272732  )
        14           Mo  tau(  14) = (   0.0000030   0.2886752  -0.2424042  )
        15           S   tau(  15) = (  -0.1249977   0.3608450  -0.3667802  )
        16           S   tau(  16) = (   0.0000012   0.2886747  -0.6030489  )
        17           S   tau(  17) = (   0.0000012   0.2886748  -0.8514963  )
        18           S   tau(  18) = (  -0.1249977   0.3608454  -0.1180274  )
        19           Mo  tau(  19) = (  -0.1249981   0.3608444   0.2424011  )
        20           Mo  tau(  20) = (   0.0000038   0.2886765   0.7272499  )
        21           S   tau(  21) = (  -0.1249961   0.3608457   0.6028596  )
        22           S   tau(  22) = (   0.0000037   0.2886752   0.3667739  )
        23           S   tau(  23) = (   0.0000035   0.2886747   0.1180263  )
        24           S   tau(  24) = (  -0.1249962   0.3608459   0.8517305  )
        25           Mo  tau(  25) = (  -0.2499987   0.5773502  -0.7272732  )
        26           Mo  tau(  26) = (  -0.1249977   0.5051839  -0.2424055  )
        27           S   tau(  27) = (  -0.2499981   0.5773518  -0.3667809  )
        28           S   tau(  28) = (  -0.1249986   0.5051812  -0.6030489  )
        29           S   tau(  29) = (  -0.1249986   0.5051813  -0.8514963  )
        30           S   tau(  30) = (  -0.2499979   0.5773512  -0.1180266  )
        31           Mo  tau(  31) = (  -0.2499983   0.5773503   0.2424020  )
        32           Mo  tau(  32) = (  -0.1249962   0.5051830   0.7272501  )
        33           S   tau(  33) = (  -0.2499958   0.5773522   0.6028593  )
        34           S   tau(  34) = (  -0.1249963   0.5051821   0.3667746  )
        35           S   tau(  35) = (  -0.1249968   0.5051820   0.1180254  )
        36           S   tau(  36) = (  -0.2499959   0.5773522   0.8517307  )
        37           Mo  tau(  37) = (  -0.3749985   0.7938567  -0.7272732  )
        38           Mo  tau(  38) = (  -0.2500001   0.7216874  -0.2424031  )
        39           S   tau(  39) = (  -0.3749980   0.7938584  -0.3667800  )
        40           S   tau(  40) = (  -0.2499984   0.7216877  -0.6030489  )
        41           S   tau(  41) = (  -0.2499984   0.7216878  -0.8514963  )
        42           S   tau(  42) = (  -0.3749982   0.7938585  -0.1180264  )
        43           Mo  tau(  43) = (  -0.3749976   0.7938584   0.2424002  )
        44           Mo  tau(  44) = (  -0.2499965   0.7216896   0.7272502  )
        45           S   tau(  45) = (  -0.3749954   0.7938586   0.6028596  )
        46           S   tau(  46) = (  -0.2499962   0.7216890   0.3667741  )
        47           S   tau(  47) = (  -0.2499961   0.7216884   0.1180258  )
        48           S   tau(  48) = (  -0.3749955   0.7938585   0.8517305  )
        49           Mo  tau(  49) = (   0.2500010   0.1443372  -0.7272732  )
        50           Mo  tau(  50) = (   0.3750034   0.0721723  -0.2424032  )
        51           S   tau(  51) = (   0.2500017   0.1443391  -0.3667788  )
        52           S   tau(  52) = (   0.3750010   0.0721682  -0.6030489  )
        53           S   tau(  53) = (   0.3750010   0.0721683  -0.8514963  )
        54           S   tau(  54) = (   0.2500016   0.1443391  -0.1180271  )
        55           Mo  tau(  55) = (   0.2500037   0.1443371   0.2424008  )
        56           Mo  tau(  56) = (   0.3750049   0.0721708   0.7272499  )
        57           S   tau(  57) = (   0.2500041   0.1443391   0.6028593  )
        58           S   tau(  58) = (   0.3750026   0.0721682   0.3667763  )
        59           S   tau(  59) = (   0.3750033   0.0721687   0.1180242  )
        60           S   tau(  60) = (   0.2500040   0.1443392   0.8517310  )
        61           Mo  tau(  61) = (   0.1250012   0.3608437  -0.7272732  )
        62           Mo  tau(  62) = (   0.2500029   0.2886782  -0.2424031  )
        63           S   tau(  63) = (   0.1250024   0.3608455  -0.3667794  )
        64           S   tau(  64) = (   0.2500012   0.2886747  -0.6030489  )
        65           S   tau(  65) = (   0.2500012   0.2886748  -0.8514963  )
        66           S   tau(  66) = (   0.1250021   0.3608455  -0.1180270  )
        67           Mo  tau(  67) = (   0.1250055   0.3608449   0.2424003  )
        68           Mo  tau(  68) = (   0.2500045   0.2886775   0.7272501  )
        69           S   tau(  69) = (   0.1250040   0.3608458   0.6028596  )
        70           S   tau(  70) = (   0.2500032   0.2886750   0.3667755  )
        71           S   tau(  71) = (   0.2500033   0.2886748   0.1180238  )
        72           S   tau(  72) = (   0.1250043   0.3608459   0.8517305  )
        73           Mo  tau(  73) = (   0.0000014   0.5773502  -0.7272732  )
        74           Mo  tau(  74) = (   0.1250045   0.5051840  -0.2424036  )
        75           S   tau(  75) = (   0.0000030   0.5773520  -0.3667799  )
        76           S   tau(  76) = (   0.1250014   0.5051812  -0.6030489  )
        77           S   tau(  77) = (   0.1250014   0.5051813  -0.8514963  )
        78           S   tau(  78) = (   0.0000026   0.5773517  -0.1180274  )
        79           Mo  tau(  79) = (   0.0000039   0.5773528   0.2424003  )
        80           Mo  tau(  80) = (   0.1250050   0.5051837   0.7272501  )
        81           S   tau(  81) = (   0.0000041   0.5773523   0.6028593  )
        82           S   tau(  82) = (   0.1250034   0.5051819   0.3667749  )
        83           S   tau(  83) = (   0.1250033   0.5051818   0.1180238  )
        84           S   tau(  84) = (   0.0000042   0.5773523   0.8517309  )
        85           Mo  tau(  85) = (  -0.1249984   0.7938567  -0.7272732  )
        86           Mo  tau(  86) = (   0.0000069   0.7216896  -0.2424039  )
        87           S   tau(  87) = (  -0.1249975   0.7938582  -0.3667782  )
        88           S   tau(  88) = (   0.0000016   0.7216877  -0.6030489  )
        89           S   tau(  89) = (   0.0000016   0.7216878  -0.8514963  )
        90           S   tau(  90) = (  -0.1249973   0.7938582  -0.1180279  )
        91           Mo  tau(  91) = (  -0.1249936   0.7938581   0.2424006  )
        92           Mo  tau(  92) = (   0.0000056   0.7216904   0.7272501  )
        93           S   tau(  93) = (  -0.1249955   0.7938586   0.6028591  )
        94           S   tau(  94) = (   0.0000039   0.7216883   0.3667759  )
        95           S   tau(  95) = (   0.0000039   0.7216885   0.1180233  )
        96           S   tau(  96) = (  -0.1249955   0.7938586   0.8517313  )
        97           Mo  tau(  97) = (   0.5000010   0.1443372  -0.7272732  )
        98           Mo  tau(  98) = (   0.6250001   0.0721662  -0.2424040  )
        99           S   tau(  99) = (   0.5000017   0.1443386  -0.3667801  )
       100           S   tau( 100) = (   0.6250010   0.0721682  -0.6030489  )
       101           S   tau( 101) = (   0.6250010   0.0721683  -0.8514963  )
       102           S   tau( 102) = (   0.5000020   0.1443388  -0.1180261  )
       103           Mo  tau( 103) = (   0.5000005   0.1443344   0.2424031  )
       104           Mo  tau( 104) = (   0.6250028   0.0721696   0.7272500  )
       105           S   tau( 105) = (   0.5000038   0.1443392   0.6028599  )
       106           S   tau( 106) = (   0.6250032   0.0721682   0.3667750  )
       107           S   tau( 107) = (   0.6250029   0.0721690   0.1180259  )
       108           S   tau( 108) = (   0.5000038   0.1443393   0.8517304  )
       109           Mo  tau( 109) = (   0.3750012   0.3608437  -0.7272732  )
       110           Mo  tau( 110) = (   0.4999991   0.2886761  -0.2424038  )
       111           S   tau( 111) = (   0.3750012   0.3608452  -0.3667804  )
       112           S   tau( 112) = (   0.5000012   0.2886747  -0.6030489  )
       113           S   tau( 113) = (   0.5000012   0.2886748  -0.8514963  )
       114           S   tau( 114) = (   0.3750014   0.3608455  -0.1180261  )
       115           Mo  tau( 115) = (   0.3750003   0.3608415   0.2424003  )
       116           Mo  tau( 116) = (   0.5000036   0.2886765   0.7272501  )
       117           S   tau( 117) = (   0.3750041   0.3608456   0.6028595  )
       118           S   tau( 118) = (   0.5000032   0.2886753   0.3667740  )
       119           S   tau( 119) = (   0.5000035   0.2886745   0.1180267  )
       120           S   tau( 120) = (   0.3750041   0.3608457   0.8517303  )
       121           Mo  tau( 121) = (   0.2500014   0.5773502  -0.7272732  )
       122           Mo  tau( 122) = (   0.3749983   0.5051825  -0.2424043  )
       123           S   tau( 123) = (   0.2500017   0.5773519  -0.3667810  )
       124           S   tau( 124) = (   0.3750014   0.5051812  -0.6030489  )
       125           S   tau( 125) = (   0.3750014   0.5051813  -0.8514963  )
       126           S   tau( 126) = (   0.2500018   0.5773519  -0.1180256  )
       127           Mo  tau( 127) = (   0.2500009   0.5773497   0.2423999  )
       128           Mo  tau( 128) = (   0.3750037   0.5051832   0.7272500  )
       129           S   tau( 129) = (   0.2500042   0.5773522   0.6028596  )
       130           S   tau( 130) = (   0.3750035   0.5051817   0.3667733  )
       131           S   tau( 131) = (   0.3750039   0.5051817   0.1180258  )
       132           S   tau( 132) = (   0.2500043   0.5773521   0.8517304  )
       133           Mo  tau( 133) = (   0.1250016   0.7938567  -0.7272732  )
       134           Mo  tau( 134) = (   0.2499995   0.7216883  -0.2424036  )
       135           S   tau( 135) = (   0.1250024   0.7938578  -0.3667813  )
       136           S   tau( 136) = (   0.2500016   0.7216877  -0.6030489  )
       137           S   tau( 137) = (   0.2500016   0.7216878  -0.8514963  )
       138           S   tau( 138) = (   0.1250024   0.7938579  -0.1180253  )
       139           Mo  tau( 139) = (   0.1250007   0.7938566   0.2424003  )
       140           Mo  tau( 140) = (   0.2500037   0.7216894   0.7272501  )
       141           S   tau( 141) = (   0.1250043   0.7938588   0.6028599  )
       142           S   tau( 142) = (   0.2500035   0.7216882   0.3667737  )
       143           S   tau( 143) = (   0.2500038   0.7216886   0.1180257  )
       144           S   tau( 144) = (   0.1250043   0.7938587   0.8517303  )
       145           Mo  tau( 145) = (   0.7500010   0.1443372  -0.7272732  )
       146           Mo  tau( 146) = (   0.8750038   0.0721696  -0.2424038  )
       147           S   tau( 147) = (   0.7500016   0.1443382  -0.3667789  )
       148           S   tau( 148) = (   0.8750010   0.0721682  -0.6030489  )
       149           S   tau( 149) = (   0.8750010   0.0721683  -0.8514963  )
       150           S   tau( 150) = (   0.7500016   0.1443384  -0.1180279  )
       151           Mo  tau( 151) = (   0.7500051   0.1443370   0.2424017  )
       152           Mo  tau( 152) = (   0.8750049   0.0721705   0.7272500  )
       153           S   tau( 153) = (   0.7500039   0.1443393   0.6028592  )
       154           S   tau( 154) = (   0.8750038   0.0721685   0.3667764  )
       155           S   tau( 155) = (   0.8750039   0.0721688   0.1180247  )
       156           S   tau( 156) = (   0.7500041   0.1443394   0.8517311  )
       157           Mo  tau( 157) = (   0.6250012   0.3608437  -0.7272732  )
       158           Mo  tau( 158) = (   0.7500028   0.2886769  -0.2424041  )
       159           S   tau( 159) = (   0.6250015   0.3608451  -0.3667792  )
       160           S   tau( 160) = (   0.7500012   0.2886747  -0.6030489  )
       161           S   tau( 161) = (   0.7500012   0.2886748  -0.8514963  )
       162           S   tau( 162) = (   0.6250016   0.3608454  -0.1180280  )
       163           Mo  tau( 163) = (   0.6250051   0.3608469   0.2424010  )
       164           Mo  tau( 164) = (   0.7500045   0.2886776   0.7272501  )
       165           S   tau( 165) = (   0.6250042   0.3608457   0.6028594  )
       166           S   tau( 166) = (   0.7500035   0.2886754   0.3667754  )
       167           S   tau( 167) = (   0.7500035   0.2886751   0.1180251  )
       168           S   tau( 168) = (   0.6250042   0.3608459   0.8517307  )
       169           Mo  tau( 169) = (   0.5000014   0.5773502  -0.7272732  )
       170           Mo  tau( 170) = (   0.6250029   0.5051841  -0.2424047  )
       171           S   tau( 171) = (   0.5000014   0.5773518  -0.3667794  )
       172           S   tau( 172) = (   0.6250014   0.5051812  -0.6030489  )
       173           S   tau( 173) = (   0.6250014   0.5051813  -0.8514963  )
       174           S   tau( 174) = (   0.5000016   0.5773516  -0.1180277  )
       175           Mo  tau( 175) = (   0.5000072   0.5773526   0.2424011  )
       176           Mo  tau( 176) = (   0.6250047   0.5051838   0.7272501  )
       177           S   tau( 177) = (   0.5000044   0.5773522   0.6028593  )
       178           S   tau( 178) = (   0.6250038   0.5051821   0.3667764  )
       179           S   tau( 179) = (   0.6250040   0.5051821   0.1180241  )
       180           S   tau( 180) = (   0.5000045   0.5773523   0.8517308  )
       181           Mo  tau( 181) = (   0.3750016   0.7938567  -0.7272732  )
       182           Mo  tau( 182) = (   0.5000025   0.7216901  -0.2424039  )
       183           S   tau( 183) = (   0.3750019   0.7938578  -0.3667793  )
       184           S   tau( 184) = (   0.5000016   0.7216877  -0.6030489  )
       185           S   tau( 185) = (   0.5000016   0.7216878  -0.8514963  )
       186           S   tau( 186) = (   0.3750020   0.7938579  -0.1180272  )
       187           Mo  tau( 187) = (   0.3750057   0.7938586   0.2424015  )
       188           Mo  tau( 188) = (   0.5000052   0.7216902   0.7272503  )
       189           S   tau( 189) = (   0.3750045   0.7938588   0.6028592  )
       190           S   tau( 190) = (   0.5000042   0.7216887   0.3667757  )
       191           S   tau( 191) = (   0.5000039   0.7216887   0.1180242  )
       192           S   tau( 192) = (   0.3750047   0.7938587   0.8517308  )
       193           Pt  tau( 193) = (   0.1250302   0.3608104   1.0341962  )

     --------------------------------------------
     DFT-D3 Dispersion Correction (3-body terms):
     --------------------------------------------
       Reference C6 values for interpolation: 

         atom   Coordination number   C6
         S          0.000           268.01
         S          0.995           261.99
         S          1.990           251.62
         Mo         0.000          1691.79
         Mo         1.942          1004.01
         Mo        11.056           674.22
         Pt         0.000           782.29
         Pt         1.919           692.72
         Pt         6.667           673.75

       Values used:

         atom   Coordination number  R0_AB[au]  C6      C8
         Mo        10.208            3.547    674.22  77634.20
         Mo        10.221            3.547    674.22  77634.20
         S          3.858            3.128    251.62  12327.25
         S          3.859            3.128    251.62  12327.25
         S          3.758            3.128    251.62  12327.25
         S          3.859            3.128    251.62  12327.25
         Mo        10.221            3.547    674.22  77634.20
         Mo        10.207            3.547    674.22  77634.20
         S          3.856            3.128    251.62  12327.25
         S          3.859            3.128    251.62  12327.25
         S          3.859            3.128    251.62  12327.25
         S          3.768            3.128    251.62  12327.25
         Mo        10.208            3.547    674.22  77634.20
         Mo        10.221            3.547    674.22  77634.20
         S          3.858            3.128    251.62  12327.25
         S          3.859            3.128    251.62  12327.25
         S          3.758            3.128    251.62  12327.25
         S          3.859            3.128    251.62  12327.25
         Mo        10.221            3.547    674.22  77634.20
         Mo        10.220            3.547    674.22  77634.20
         S          3.856            3.128    251.62  12327.25
         S          3.859            3.128    251.62  12327.25
         S          3.859            3.128    251.62  12327.25
         S          3.768            3.128    251.62  12327.25
         Mo        10.208            3.547    674.22  77634.20
         Mo        10.221            3.547    674.22  77634.20
         S          3.858            3.128    251.62  12327.25
         S          3.859            3.128    251.62  12327.25
         S          3.758            3.128    251.62  12327.25
         S          3.859            3.128    251.62  12327.25
         Mo        10.221            3.547    674.22  77634.20
         Mo        10.207            3.547    674.22  77634.20
         S          3.856            3.128    251.62  12327.25
         S          3.859            3.128    251.62  12327.25
         S          3.859            3.128    251.62  12327.25
         S          3.755            3.128    251.62  12327.25
         Mo        10.208            3.547    674.22  77634.20
         Mo        10.221            3.547    674.22  77634.20
         S          3.858            3.128    251.62  12327.25
         S          3.859            3.128    251.62  12327.25
         S          3.758            3.128    251.62  12327.25
         S          3.859            3.128    251.62  12327.25
         Mo        10.221            3.547    674.22  77634.20
         Mo        10.206            3.547    674.22  77634.20
         S          3.856            3.128    251.62  12327.25
         S          3.859            3.128    251.62  12327.25
         S          3.859            3.128    251.62  12327.25
         S          3.755            3.128    251.62  12327.25
         Mo        10.208            3.547    674.22  77634.20
         Mo        10.221            3.547    674.22  77634.20
         S          3.858            3.128    251.62  12327.25
         S          3.859            3.128    251.62  12327.25
         S          3.758            3.128    251.62  12327.25
         S          3.859            3.128    251.62  12327.25
         Mo        10.221            3.547    674.22  77634.20
         Mo        10.206            3.547    674.22  77634.20
         S          3.856            3.128    251.62  12327.25
         S          3.859            3.128    251.62  12327.25
         S          3.859            3.128    251.62  12327.25
         S          3.768            3.128    251.62  12327.25
         Mo        10.208            3.547    674.22  77634.20
         Mo        10.221            3.547    674.22  77634.20
         S          3.858            3.128    251.62  12327.25
         S          3.859            3.128    251.62  12327.25
         S          3.758            3.128    251.62  12327.25
         S          3.859            3.128    251.62  12327.25
         Mo        10.221            3.547    674.22  77634.20
         Mo        10.220            3.547    674.22  77634.20
         S          3.857            3.128    251.62  12327.25
         S          3.859            3.128    251.62  12327.25
         S          3.859            3.128    251.62  12327.25
         S          4.734            3.128    251.62  12327.25
         Mo        10.208            3.547    674.22  77634.20
         Mo        10.221            3.547    674.22  77634.20
         S          3.858            3.128    251.62  12327.25
         S          3.859            3.128    251.62  12327.25
         S          3.758            3.128    251.62  12327.25
         S          3.859            3.128    251.62  12327.25
         Mo        10.221            3.547    674.22  77634.20
         Mo        10.220            3.547    674.22  77634.20
         S          3.856            3.128    251.62  12327.25
         S          3.859            3.128    251.62  12327.25
         S          3.859            3.128    251.62  12327.25
         S          3.768            3.128    251.62  12327.25
         Mo        10.208            3.547    674.22  77634.20
         Mo        10.221            3.547    674.22  77634.20
         S          3.858            3.128    251.62  12327.25
         S          3.859            3.128    251.62  12327.25
         S          3.758            3.128    251.62  12327.25
         S          3.859            3.128    251.62  12327.25
         Mo        10.221            3.547    674.22  77634.20
         Mo        10.206            3.547    674.22  77634.20
         S          3.856            3.128    251.62  12327.25
         S          3.859            3.128    251.62  12327.25
         S          3.859            3.128    251.62  12327.25
         S          3.755            3.128    251.62  12327.25
         Mo        10.208            3.547    674.22  77634.20
         Mo        10.221            3.547    674.22  77634.20
         S          3.858            3.128    251.62  12327.25
         S          3.859            3.128    251.62  12327.25
         S          3.758            3.128    251.62  12327.25
         S          3.859            3.128    251.62  12327.25
         Mo        10.221            3.547    674.22  77634.20
         Mo        10.206            3.547    674.22  77634.20
         S          3.856            3.128    251.62  12327.25
         S          3.859            3.128    251.62  12327.25
         S          3.859            3.128    251.62  12327.25
         S          3.755            3.128    251.62  12327.25
         Mo        10.208            3.547    674.22  77634.20
         Mo        10.221            3.547    674.22  77634.20
         S          3.858            3.128    251.62  12327.25
         S          3.859            3.128    251.62  12327.25
         S          3.758            3.128    251.62  12327.25
         S          3.859            3.128    251.62  12327.25
         Mo        10.221            3.547    674.22  77634.20
         Mo        10.206            3.547    674.22  77634.20
         S          3.856            3.128    251.62  12327.25
         S          3.859            3.128    251.62  12327.25
         S          3.859            3.128    251.62  12327.25
         S          3.768            3.128    251.62  12327.25
         Mo        10.208            3.547    674.22  77634.20
         Mo        10.221            3.547    674.22  77634.20
         S          3.858            3.128    251.62  12327.25
         S          3.859            3.128    251.62  12327.25
         S          3.758            3.128    251.62  12327.25
         S          3.859            3.128    251.62  12327.25
         Mo        10.221            3.547    674.22  77634.20
         Mo        10.207            3.547    674.22  77634.20
         S          3.856            3.128    251.62  12327.25
         S          3.859            3.128    251.62  12327.25
         S          3.859            3.128    251.62  12327.25
         S          3.768            3.128    251.62  12327.25
         Mo        10.208            3.547    674.22  77634.20
         Mo        10.221            3.547    674.22  77634.20
         S          3.858            3.128    251.62  12327.25
         S          3.859            3.128    251.62  12327.25
         S          3.758            3.128    251.62  12327.25
         S          3.859            3.128    251.62  12327.25
         Mo        10.221            3.547    674.22  77634.20
         Mo        10.206            3.547    674.21  77634.20
         S          3.856            3.128    251.62  12327.25
         S          3.859            3.128    251.62  12327.25
         S          3.859            3.128    251.62  12327.25
         S          3.755            3.128    251.62  12327.25
         Mo        10.208            3.547    674.22  77634.20
         Mo        10.221            3.547    674.22  77634.20
         S          3.858            3.128    251.62  12327.25
         S          3.859            3.128    251.62  12327.25
         S          3.758            3.128    251.62  12327.25
         S          3.859            3.128    251.62  12327.25
         Mo        10.221            3.547    674.22  77634.20
         Mo        10.206            3.547    674.22  77634.20
         S          3.856            3.128    251.62  12327.25
         S          3.859            3.128    251.62  12327.25
         S          3.859            3.128    251.62  12327.25
         S          3.755            3.128    251.62  12327.25
         Mo        10.208            3.547    674.22  77634.20
         Mo        10.220            3.547    674.22  77634.20
         S          3.858            3.128    251.62  12327.25
         S          3.859            3.128    251.62  12327.25
         S          3.758            3.128    251.62  12327.25
         S          3.859            3.128    251.62  12327.25
         Mo        10.221            3.547    674.22  77634.20
         Mo        10.206            3.547    674.22  77634.20
         S          3.856            3.128    251.62  12327.25
         S          3.859            3.128    251.62  12327.25
         S          3.859            3.128    251.62  12327.25
         S          3.755            3.128    251.62  12327.25
         Mo        10.208            3.547    674.22  77634.20
         Mo        10.221            3.547    674.22  77634.20
         S          3.858            3.128    251.62  12327.25
         S          3.859            3.128    251.62  12327.25
         S          3.758            3.128    251.62  12327.25
         S          3.859            3.128    251.62  12327.25
         Mo        10.221            3.547    674.22  77634.20
         Mo        10.206            3.547    674.22  77634.20
         S          3.856            3.128    251.62  12327.25
         S          3.859            3.128    251.62  12327.25
         S          3.859            3.128    251.62  12327.25
         S          3.755            3.128    251.62  12327.25
         Mo        10.208            3.547    674.22  77634.20
         Mo        10.221            3.547    674.22  77634.20
         S          3.858            3.128    251.62  12327.25
         S          3.859            3.128    251.62  12327.25
         S          3.758            3.128    251.62  12327.25
         S          3.859            3.128    251.62  12327.25
         Mo        10.221            3.547    674.22  77634.20
         Mo        10.206            3.547    674.22  77634.20
         S          3.856            3.128    251.62  12327.25
         S          3.859            3.128    251.62  12327.25
         S          3.859            3.128    251.62  12327.25
         S          3.755            3.128    251.62  12327.25
         Pt         1.118            3.168    699.45  72734.74

         Molecular C6 ( Ry / a.u.^6 ) =  13809201.18


     number of k points=     4  Gaussian smearing, width (Ry)=  0.0100
                       cart. coord. in units 2pi/alat
        k(    1) = (   0.0000000   0.0000000   0.0000000), wk =   0.5000000
        k(    2) = (   0.0000000  -0.5773499   0.0000000), wk =   0.5000000
        k(    3) = (  -0.5000000  -0.2886744   0.0000000), wk =   0.5000000
        k(    4) = (  -0.5000000  -0.8660242   0.0000000), wk =   0.5000000

     Dense  grid:  7154885 G-vectors     FFT dimensions: ( 180, 180, 512)

     Smooth grid:  3090769 G-vectors     FFT dimensions: ( 135, 135, 400)

     Estimated max dynamical RAM per process >       4.29 GB

     Estimated total dynamical RAM >     154.34 GB

     Initial potential from superposition of free atoms

     starting charge    1695.9393, renormalised to    1696.0000

     negative rho (up, down):  6.599E-04 0.000E+00
     Starting wfcs are 1169 randomized atomic wfcs
     Checking if some PAW data can be deallocated... 

     total cpu time spent up to now is      195.0 secs

     Self-consistent Calculation

     iteration #  1     ecut=    77.00 Ry     beta= 0.20
     Davidson diagonalization with overlap
     ethr =  1.00E-02,  avg # of iterations =  2.0

     Threshold (ethr) on eigenvalues was too large:
     Diagonalizing with lowered threshold

     Davidson diagonalization with overlap
     ethr =  1.36E-04,  avg # of iterations = 17.2

     negative rho (up, down):  1.371E-04 0.000E+00

     total cpu time spent up to now is     2569.1 secs

     total energy              =  -33468.32274575 Ry
     estimated scf accuracy    <       6.65012259 Ry

     iteration #  2     ecut=    77.00 Ry     beta= 0.20
     Davidson diagonalization with overlap
     ethr =  3.92E-04,  avg # of iterations =  2.0

     negative rho (up, down):  9.992E-06 0.000E+00

     total cpu time spent up to now is     3002.2 secs

     total energy              =  -33466.81600013 Ry
     estimated scf accuracy    <       3.53190691 Ry

     iteration #  3     ecut=    77.00 Ry     beta= 0.20
     Davidson diagonalization with overlap
     ethr =  2.08E-04,  avg # of iterations = 10.2

     negative rho (up, down):  8.289E-06 0.000E+00

     total cpu time spent up to now is     3576.0 secs

     total energy              =  -33467.31501855 Ry
     estimated scf accuracy    <       0.84144393 Ry

     iteration #  4     ecut=    77.00 Ry     beta= 0.20
     Davidson diagonalization with overlap
     c_bands:  4 eigenvalues not converged
     c_bands:  1 eigenvalues not converged
     c_bands:  1 eigenvalues not converged
     c_bands:  1 eigenvalues not converged
     ethr =  4.96E-05,  avg # of iterations = 20.0

     negative rho (up, down):  1.135E-05 0.000E+00

     total cpu time spent up to now is     4786.2 secs

     total energy              =  -33468.09358868 Ry
     estimated scf accuracy    <       0.74545495 Ry

     iteration #  5     ecut=    77.00 Ry     beta= 0.20
     Davidson diagonalization with overlap
     ethr =  4.40E-05,  avg # of iterations =  6.5

     negative rho (up, down):  1.496E-05 0.000E+00

     total cpu time spent up to now is     5235.3 secs

     total energy              =  -33468.16018345 Ry
     estimated scf accuracy    <       0.26654549 Ry

     iteration #  6     ecut=    77.00 Ry     beta= 0.20
     Davidson diagonalization with overlap
     ethr =  1.57E-05,  avg # of iterations = 14.8

     negative rho (up, down):  5.237E-05 0.000E+00

     total cpu time spent up to now is     5967.6 secs

     total energy              =  -33468.20281544 Ry
     estimated scf accuracy    <       0.21553981 Ry

     iteration #  7     ecut=    77.00 Ry     beta= 0.20
     Davidson diagonalization with overlap
     ethr =  1.27E-05,  avg # of iterations =  9.2

     negative rho (up, down):  1.111E-03 0.000E+00

     total cpu time spent up to now is     6443.2 secs

     total energy              =  -33468.20752248 Ry
     estimated scf accuracy    <       0.11520639 Ry

     iteration #  8     ecut=    77.00 Ry     beta= 0.20
     Davidson diagonalization with overlap
     c_bands:  2 eigenvalues not converged
     c_bands:  2 eigenvalues not converged
     c_bands:  2 eigenvalues not converged
     c_bands:  4 eigenvalues not converged
     ethr =  6.79E-06,  avg # of iterations = 20.0

     negative rho (up, down):  9.332E-04 0.000E+00

     total cpu time spent up to now is     7733.5 secs

     total energy              =  -33468.38334814 Ry
     estimated scf accuracy    <       2.03456644 Ry

     iteration #  9     ecut=    77.00 Ry     beta= 0.20
     Davidson diagonalization with overlap
     c_bands:  1 eigenvalues not converged
     ethr =  6.79E-06,  avg # of iterations = 16.8

     negative rho (up, down):  4.004E-04 0.000E+00

     total cpu time spent up to now is     8233.7 secs

     total energy              =  -33468.20658881 Ry
     estimated scf accuracy    <       0.49584528 Ry

     iteration # 10     ecut=    77.00 Ry     beta= 0.20
     Davidson diagonalization with overlap
     c_bands:  2 eigenvalues not converged
     ethr =  6.79E-06,  avg # of iterations =  9.0

     negative rho (up, down):  3.105E-04 0.000E+00

     total cpu time spent up to now is     8921.5 secs

     total energy              =  -33468.21806002 Ry
     estimated scf accuracy    <       0.07930165 Ry

     iteration # 11     ecut=    77.00 Ry     beta= 0.20
     Davidson diagonalization with overlap
     c_bands:  4 eigenvalues not converged
     c_bands:  4 eigenvalues not converged
     c_bands:  5 eigenvalues not converged
     ethr =  4.68E-06,  avg # of iterations = 28.2

     negative rho (up, down):  3.717E-04 0.000E+00

     total cpu time spent up to now is     9865.5 secs

     total energy              =  -33468.25176557 Ry
     estimated scf accuracy    <       0.00378063 Ry

     iteration # 12     ecut=    77.00 Ry     beta= 0.20
     Davidson diagonalization with overlap
     c_bands:  4 eigenvalues not converged
     c_bands:  3 eigenvalues not converged
     c_bands:  4 eigenvalues not converged
     ethr =  2.23E-07,  avg # of iterations = 55.5

     negative rho (up, down):  4.866E-04 0.000E+00

     total cpu time spent up to now is    13033.9 secs

     total energy              =  -33468.26870221 Ry
     estimated scf accuracy    <       0.01116214 Ry

     iteration # 13     ecut=    77.00 Ry     beta= 0.20
     Davidson diagonalization with overlap
     c_bands:  3 eigenvalues not converged
     c_bands:  4 eigenvalues not converged
     c_bands:  3 eigenvalues not converged
     ethr =  2.23E-07,  avg # of iterations = 16.5

     negative rho (up, down):  6.470E-04 0.000E+00

     total cpu time spent up to now is    13767.3 secs

     total energy              =  -33468.26963819 Ry
     estimated scf accuracy    <       0.00171919 Ry

     iteration # 14     ecut=    77.00 Ry     beta= 0.20
     Davidson diagonalization with overlap
     c_bands:  1 eigenvalues not converged
     c_bands:  1 eigenvalues not converged
     ethr =  1.01E-07,  avg # of iterations = 14.8

     negative rho (up, down):  6.960E-04 0.000E+00

     total cpu time spent up to now is    14440.3 secs

     total energy              =  -33468.27022209 Ry
     estimated scf accuracy    <       0.00039187 Ry

     iteration # 15     ecut=    77.00 Ry     beta= 0.20
     Davidson diagonalization with overlap
     c_bands:  1 eigenvalues not converged
     ethr =  2.31E-08,  avg # of iterations = 16.5

     negative rho (up, down):  7.406E-04 0.000E+00

     total cpu time spent up to now is    15400.1 secs

     total energy              =  -33468.27051005 Ry
     estimated scf accuracy    <       0.00024894 Ry

     iteration # 16     ecut=    77.00 Ry     beta= 0.20
     Davidson diagonalization with overlap
     c_bands:  1 eigenvalues not converged
     ethr =  1.47E-08,  avg # of iterations = 13.0

     negative rho (up, down):  7.595E-04 0.000E+00

     total cpu time spent up to now is    16110.2 secs

     total energy              =  -33468.27063023 Ry
     estimated scf accuracy    <       0.00015730 Ry

     iteration # 17     ecut=    77.00 Ry     beta= 0.20
     Davidson diagonalization with overlap
     c_bands:  2 eigenvalues not converged
     c_bands:  1 eigenvalues not converged
     ethr =  9.28E-09,  avg # of iterations = 16.5

     negative rho (up, down):  8.154E-04 0.000E+00

     total cpu time spent up to now is    16668.7 secs

     total energy              =  -33468.27060398 Ry
     estimated scf accuracy    <       0.00013801 Ry

     iteration # 18     ecut=    77.00 Ry     beta= 0.20
     Davidson diagonalization with overlap
     c_bands:  1 eigenvalues not converged
     ethr =  8.14E-09,  avg # of iterations = 17.5

     negative rho (up, down):  8.039E-04 0.000E+00

     total cpu time spent up to now is    17195.4 secs

     total energy              =  -33468.27060766 Ry
     estimated scf accuracy    <       0.00005952 Ry

     iteration # 19     ecut=    77.00 Ry     beta= 0.20
     Davidson diagonalization with overlap
     c_bands:  5 eigenvalues not converged
     ethr =  3.51E-09,  avg # of iterations = 13.5

     negative rho (up, down):  7.966E-04 0.000E+00

     total cpu time spent up to now is    17894.1 secs

     total energy              =  -33468.27062654 Ry
     estimated scf accuracy    <       0.00002206 Ry

     iteration # 20     ecut=    77.00 Ry     beta= 0.20
     Davidson diagonalization with overlap
     ethr =  1.30E-09,  avg # of iterations = 15.2

     negative rho (up, down):  8.111E-04 0.000E+00

     total cpu time spent up to now is    18839.1 secs

     total energy              =  -33468.27063876 Ry
     estimated scf accuracy    <       0.00001079 Ry

     iteration # 21     ecut=    77.00 Ry     beta= 0.20
     Davidson diagonalization with overlap
     ethr =  6.36E-10,  avg # of iterations =  8.2

     negative rho (up, down):  8.151E-04 0.000E+00

     total cpu time spent up to now is    19437.9 secs

     total energy              =  -33468.27064026 Ry
     estimated scf accuracy    <       0.00000168 Ry

     iteration # 22     ecut=    77.00 Ry     beta= 0.20
     Davidson diagonalization with overlap
     c_bands:  2 eigenvalues not converged
     c_bands:  5 eigenvalues not converged
     ethr =  9.89E-11,  avg # of iterations = 18.2

     negative rho (up, down):  8.157E-04 0.000E+00

     total cpu time spent up to now is    21022.3 secs

     total energy              =  -33468.27064392 Ry
     estimated scf accuracy    <       0.00000263 Ry

     iteration # 23     ecut=    77.00 Ry     beta= 0.20
     Davidson diagonalization with overlap
     ethr =  9.89E-11,  avg # of iterations =  3.2

     negative rho (up, down):  8.159E-04 0.000E+00

     total cpu time spent up to now is    21461.2 secs

     total energy              =  -33468.27064300 Ry
     estimated scf accuracy    <       0.00000162 Ry

     iteration # 24     ecut=    77.00 Ry     beta= 0.20
     Davidson diagonalization with overlap
     ethr =  9.53E-11,  avg # of iterations = 10.8

     negative rho (up, down):  8.214E-04 0.000E+00

     total cpu time spent up to now is    22041.2 secs

     End of self-consistent calculation

          k = 0.0000 0.0000 0.0000 (386245 PWs)   bands (ev):

  -100.9878 -69.4176 -69.3938 -69.3937 -69.3325 -69.3325 -69.2571 -69.2570
   -66.6939 -66.6936 -66.6928 -66.6889 -66.6726 -66.6726 -66.6726 -66.6726
   -66.6726 -66.6726 -66.6724 -66.6724 -66.6724 -66.6723 -66.6723 -66.6722
   -66.6715 -66.6715 -66.6714 -66.6714 -66.6714 -66.6714 -66.6711 -66.6711
   -66.6679 -66.6679 -66.6673 -66.6570 -66.6516 -66.6512 -66.6512 -66.6512
   -66.6512 -66.6512 -66.6512 -66.6512 -66.6512 -66.6511 -66.6510 -66.6510
   -66.6510 -66.6510 -66.6510 -66.6509 -66.6509 -66.6509 -66.6508 -66.6501
   -66.6501 -66.6500 -66.6500 -66.6500 -66.6500 -66.6500 -66.6500 -66.6500
   -66.6499 -66.6499 -66.6458 -66.6458 -66.6454 -66.6390 -66.6294 -66.6294
   -55.7043 -54.9574 -54.9574 -41.0213 -41.0213 -41.0213 -41.0211 -41.0210
   -41.0210 -41.0208 -41.0208 -41.0208 -41.0183 -41.0123 -41.0123 -40.9460
   -40.9460 -40.9460 -40.9459 -40.9459 -40.9459 -40.9458 -40.9457 -40.9457
   -40.9457 -40.9457 -40.9457 -40.9454 -40.9454 -40.9454 -40.9454 -40.9454
   -40.9454 -40.9429 -40.9429 -40.9379 -40.9372 -40.9372 -40.9358 -40.8535
   -40.8532 -40.8530 -40.8479 -40.8196 -40.8196 -40.8196 -40.8196 -40.8196
   -40.8196 -40.8195 -40.8194 -40.8194 -40.8193 -40.8193 -40.8193 -40.8189
   -40.8189 -40.8189 -40.8189 -40.8189 -40.8189 -40.8163 -40.8144 -40.8144
   -40.8133 -40.8118 -40.8118 -40.8118 -40.8118 -40.8117 -40.8117 -40.8116
   -40.8116 -40.8115 -40.8115 -40.8115 -40.8114 -40.8113 -40.8113 -40.8113
   -40.8113 -40.8113 -40.8113 -40.8105 -40.8105 -40.8087 -40.8087 -40.8062
   -40.8058 -40.8058 -40.7959 -40.7846 -40.7846 -40.7846 -40.7846 -40.7846
   -40.7846 -40.7844 -40.7844 -40.7844 -40.7843 -40.7843 -40.7843 -40.7839
   -40.7838 -40.7838 -40.7838 -40.7838 -40.7838 -40.7813 -40.7792 -40.7791
   -40.7757 -40.7757 -40.7742 -40.7706 -40.7698 -40.7698 -40.7698 -40.7698
   -40.7698 -40.7698 -40.7697 -40.7697 -40.7697 -40.7697 -40.7696 -40.7696
   -40.7696 -40.7695 -40.7695 -40.7695 -40.7695 -40.7694 -40.7693 -40.7693
   -40.7693 -40.7693 -40.7693 -40.7693 -40.7692 -40.7692 -40.7692 -40.7687
   -40.7686 -40.7646 -40.7646 -40.7639 -40.7600 -40.7510 -40.7509 -40.7063
   -40.7062 -40.7062 -40.7061 -40.7060 -40.7060 -40.7054 -40.7054 -40.7054
   -40.7010 -40.7010 -40.6950 -40.6591 -40.6591 -40.6591 -40.6591 -40.6591
   -40.6591 -40.6589 -40.6589 -40.6589 -40.6589 -40.6588 -40.6588 -40.6583
   -40.6583 -40.6583 -40.6583 -40.6583 -40.6583 -40.6573 -40.6527 -40.6527
   -40.6495 -40.6495 -40.6480 -40.6115 -40.6115 -40.6113 -40.6113 -40.6106
   -40.6106 -40.6039 -40.6039 -20.1902 -20.1213 -20.0285 -19.9453 -19.3979
   -19.3159 -19.3159 -19.3158 -19.3156 -19.3156 -19.3013 -19.2499 -19.2499
   -19.2498 -19.2491 -19.2491 -19.2111 -19.1622 -19.1622 -19.1619 -19.1609
   -19.1609 -19.1105 -19.0893 -19.0893 -19.0891 -19.0885 -19.0885 -18.9542
   -18.8265 -18.6977 -18.6189 -18.5511 -18.5338 -18.5337 -18.5336 -18.5332
   -18.5332 -18.4921 -18.4229 -18.4229 -18.4227 -18.4216 -18.4216 -18.3628
   -18.3148 -18.3148 -18.3147 -18.3135 -18.3135 -18.2628 -18.2420 -18.2420
   -18.2420 -18.2415 -18.2415 -18.2126 -18.1912 -18.1912 -18.1911 -18.1911
   -18.1909 -18.1859 -18.1583 -18.1583 -18.1580 -18.1580 -18.1573 -18.1500
   -18.1472 -18.1472 -18.1441 -18.1195 -18.1195 -18.1189 -18.1103 -18.1102
   -18.1098 -18.1098 -18.1088 -18.0948 -18.0798 -18.0798 -18.0757 -18.0616
   -18.0616 -18.0612 -18.0612 -18.0603 -18.0479 -18.0406 -18.0406 -18.0153
   -17.9819 -17.9818 -17.9810 -17.9771 -17.9770 -17.9768 -17.9768 -17.9762
   -17.9592 -17.9447 -17.9447 -17.9386 -17.9252 -17.9252 -17.9247 -17.9247
   -17.9238 -17.9217 -17.9187 -17.9186 -17.9095 -17.9059 -17.9058 -17.8932
   -17.8851 -17.8851 -17.8846 -17.8845 -17.8835 -17.8655 -17.8620 -17.8620
   -17.8618 -17.8617 -17.8610 -12.0527 -11.8886 -11.8859 -11.8859 -11.8327
   -11.8010 -11.8010 -11.7914 -11.6950 -11.6949 -11.6937 -11.6107 -11.6099
   -11.6099 -11.5202 -11.3640 -11.3047 -11.3047 -11.3043 -11.3042 -11.3042
   -11.2519 -11.2055 -11.2055 -11.2026 -11.2026 -11.2026 -11.1991 -11.1411
   -11.1411 -11.1409 -11.1286 -11.1286 -11.1285 -11.1276 -11.1187 -11.1187
   -11.1177 -11.1175 -11.1175 -11.0592 -11.0592 -11.0488 -11.0410 -11.0404
   -11.0404 -10.9905 -10.9905 -10.9872 -10.9746 -10.9739 -10.9739 -10.9567
   -10.9269 -10.9269 -10.9197 -10.9182 -10.9182 -10.9092 -10.9091 -10.9088
   -10.9088 -10.8854 -10.8854 -10.8709 -10.8693 -10.8693 -10.8660 -10.8655
   -10.8655 -10.8654 -10.8640 -10.8640 -10.8635 -10.8627 -10.8627 -10.8357
   -10.8357 -10.8263 -10.8259 -10.8258 -10.8255 -10.8046 -10.8045 -10.7997
   -10.7994 -10.7994 -10.7990 -10.7869 -10.7863 -10.7862 -10.7193 -10.7056
   -10.7056 -10.6782 -10.6417 -10.6417 -10.6396 -10.6395 -10.6395 -10.3712
   -10.2502 -10.2502 -10.1956 -10.0405 -10.0405  -9.9879  -9.8761  -9.8761
    -9.8685  -9.8669  -9.8669  -9.8668  -9.8382  -9.8382  -9.8353  -9.8353
    -9.8345  -9.8338  -9.8337  -9.8337  -9.8176  -9.8158  -9.8158  -9.8115
    -9.8103  -9.8103  -9.8001  -9.6954  -9.6953  -9.6940  -9.6922  -9.6922
    -9.6895  -9.6894  -9.6887  -9.6861  -9.6861  -9.6824  -9.6803  -9.6803
    -9.6799  -9.6780  -9.6231  -9.6230  -9.6128  -9.6123  -9.6123  -9.6111
    -9.6093  -9.6093  -9.6027  -9.6010  -9.6010  -9.5782  -9.5782  -9.5762
    -9.5743  -9.5742  -9.5738  -9.5420  -9.5085  -9.5085  -9.5075  -9.5074
    -9.5044  -9.4243  -9.3943  -9.3943  -9.3865  -9.3861  -9.3861  -9.3859
    -9.3669  -9.3669  -9.3664  -9.3663  -9.3631  -9.2916  -9.2915  -9.2820
    -9.2794  -9.2790  -9.2790  -9.2476  -9.2476  -9.2437  -9.2429  -9.2427
    -9.2427  -9.1946  -9.1683  -9.1683  -9.1597  -9.1597  -9.1585  -9.0554
    -9.0553  -9.0531  -9.0361  -9.0361  -9.0277  -9.0122  -9.0121  -8.9982
    -8.9960  -8.9918  -8.9918  -8.9826  -8.9826  -8.9820  -8.9798  -8.9798
    -8.9782  -8.9183  -8.9183  -8.8931  -8.8928  -8.8927  -8.8921  -8.8896
    -8.8896  -8.8863  -8.8852  -8.8852  -8.8834  -8.8006  -8.7956  -8.7956
    -8.7915  -8.7915  -8.7908  -8.7151  -8.7133  -8.7133  -8.7078  -8.7078
    -8.7072  -8.6555  -8.6552  -8.6552  -8.6528  -8.6528  -8.6525  -8.5831
    -8.4361  -8.4361  -8.4316  -8.4315  -8.4254  -8.4254  -8.4203  -8.4202
    -8.3510  -8.3509  -8.3478  -8.3476  -8.3476  -8.3475  -8.3348  -8.3348
    -8.3262  -8.3256  -8.3256  -8.3253  -8.3103  -8.3103  -8.3006  -8.2995
    -8.2994  -8.2990  -8.2875  -8.2875  -8.2827  -8.2816  -8.2816  -8.2811
    -8.2764  -8.0466  -7.9358  -7.9357  -7.9261  -7.8635  -7.8634  -7.8356
    -7.7746  -7.7746  -7.7416  -7.7083  -7.7082  -7.6988  -7.6928  -7.6927
    -7.6898  -7.6897  -7.6886  -7.6559  -7.6272  -7.6272  -7.6068  -7.6067
    -7.6067  -7.6066  -7.6060  -7.6059  -7.6024  -7.6023  -7.5993  -7.5923
    -7.5923  -7.5844  -7.5840  -7.5840  -7.5838  -7.5709  -7.5709  -7.5602
    -7.5597  -7.5597  -7.5593  -7.5500  -7.5500  -7.5446  -7.5440  -7.5439
    -7.5434  -7.5376  -7.4791  -7.4791  -7.4689  -7.4688  -7.4685  -7.4677
    -7.4677  -7.4671  -7.4667  -7.4667  -7.4656  -7.4465  -7.3857  -7.3605
    -7.3605  -7.3544  -7.3544  -7.3532  -7.3477  -7.3396  -7.3396  -7.3348
    -7.3334  -7.3334  -7.3221  -7.3220  -7.3076  -7.3076  -7.2911  -7.2911
    -7.2792  -7.2792  -7.1818  -7.1318  -7.1318  -7.1257  -7.1235  -7.1235
    -6.9465  -6.9083  -6.9083  -6.9013  -6.8997  -6.8997  -6.8648  -6.8648
    -6.8596  -6.8118  -6.8118  -6.7982  -6.7961  -6.7431  -6.7431  -6.7261
    -6.7041  -6.6856  -6.6855  -6.6771  -6.6710  -6.6710  -6.6686  -6.6678
    -6.6678  -6.6277  -6.6063  -6.6063  -6.6003  -6.6000  -6.6000  -6.5873
    -6.5802  -6.5801  -6.5755  -6.5738  -6.5738  -6.5708  -6.5708  -6.5708
    -6.5665  -6.5657  -6.5657  -6.5647  -6.5647  -6.5647  -6.5438  -6.5344
    -6.5344  -6.5052  -6.4948  -6.4948  -6.4773  -6.4744  -6.4744  -6.4145
    -6.4145  -6.4054  -6.4053  -6.4051  -6.4048  -6.3892  -6.3892  -6.3734
    -6.3734  -6.3732  -6.3721  -6.3515  -6.3515  -6.3397  -6.3389  -6.3389
    -6.3372  -6.3199  -6.3198  -6.3163  -6.3154  -6.3154  -6.3143  -6.2480
    -5.7498  -5.7393  -5.7392  -5.4172  -5.3044  -5.2285  -5.1002  -5.1002
    -4.4007  -3.9139  -3.9139  -3.9137  -3.9127  -3.9127  -3.8981  -3.8894
    -3.8891  -3.8890  -3.8887  -3.8887  -3.8714  -3.7454  -3.7454  -3.7448
    -3.7441  -3.7440  -3.7408  -3.7400  -3.7399  -3.7385  -3.7385  -3.7348
    -3.6644  -3.5564  -3.5552  -3.5551  -3.5550  -3.5549  -3.5412  -3.5410
    -3.5407  -3.5404  -3.5404  -3.5403  -3.5392  -3.5143  -3.5142  -3.5131
    -3.5131  -3.5121  -3.5119  -3.5117  -3.5117  -3.4982  -3.4980  -3.4979
    -3.4820  -3.4817  -3.4817  -3.4802  -3.4801  -3.4790  -3.4784  -3.4782
    -3.4781  -3.4705  -3.4701  -3.4701  -3.4330  -3.4070  -3.4069  -3.4051
    -3.4044  -3.4043  -3.4039  -3.4033  -3.4025  -3.4025  -3.4022  -3.4021
    -3.3760  -3.3497  -3.3497  -3.3488  -3.3485  -3.3484  -3.3483  -3.2722
    -3.2722  -3.2701  -3.2699  -3.2685  -3.1998  -3.1270  -3.1268  -3.1267
    -3.1264  -3.1262  -3.1258  -3.1085  -3.1083  -3.1079  -3.0406  -3.0405
    -3.0403  -3.0397  -3.0396  -3.0394  -3.0319  -3.0317  -3.0284  -3.0284
    -3.0268  -3.0242  -3.0240  -3.0140  -3.0139  -3.0107  -3.0105  -3.0091
    -3.0084  -3.0083  -2.9992  -2.9991  -2.9975  -2.9974  -2.9972  -2.9969
    -2.9968  -2.9964  -2.9781  -2.9378  -2.9377  -2.9362  -2.8767  -2.8767
    -2.8741  -2.8738  -2.8737  -2.8729  -2.8728  -2.8724  -2.8705  -2.8705
    -2.8704  -2.8696  -2.8664  -2.8663  -2.8587  -2.8586  -2.8442  -2.8067
    -2.8067  -2.8037  -2.8037  -2.8020  -2.8004  -2.8004  -2.7670  -2.7431
    -2.7429  -2.7055  -2.7054  -2.6862  -2.6861  -2.6856  -2.6851  -2.6843
    -2.6771  -2.6155  -2.6154  -2.6137  -2.6135  -2.6126  -2.5915  -2.4774
    -2.4770  -2.4769

          k = 0.0000-0.5773 0.0000 (386352 PWs)   bands (ev):

  -100.9878 -69.4176 -69.3938 -69.3937 -69.3326 -69.3325 -69.2571 -69.2570
   -66.6877 -66.6877 -66.6874 -66.6874 -66.6865 -66.6865 -66.6843 -66.6815
   -66.6770 -66.6770 -66.6768 -66.6767 -66.6759 -66.6759 -66.6740 -66.6694
   -66.6619 -66.6619 -66.6619 -66.6619 -66.6617 -66.6617 -66.6616 -66.6616
   -66.6608 -66.6608 -66.6608 -66.6608 -66.6599 -66.6589 -66.6582 -66.6575
   -66.6575 -66.6572 -66.6572 -66.6563 -66.6563 -66.6545 -66.6518 -66.6512
   -66.6512 -66.6512 -66.6512 -66.6510 -66.6509 -66.6509 -66.6509 -66.6500
   -66.6500 -66.6500 -66.6500 -66.6488 -66.6480 -66.6468 -66.6467 -66.6465
   -66.6465 -66.6456 -66.6456 -66.6454 -66.6450 -66.6395 -66.6292 -66.6291
   -55.7043 -54.9574 -54.9574 -40.9897 -40.9896 -40.9896 -40.9896 -40.9895
   -40.9894 -40.9894 -40.9894 -40.9891 -40.9891 -40.9891 -40.9891 -40.9863
   -40.9837 -40.9821 -40.9793 -40.9628 -40.9628 -40.9626 -40.9626 -40.9623
   -40.9623 -40.9578 -40.9539 -40.9508 -40.9508 -40.9505 -40.9505 -40.9502
   -40.9502 -40.9452 -40.9421 -40.9001 -40.9001 -40.9001 -40.9001 -40.8999
   -40.8999 -40.8998 -40.8998 -40.8995 -40.8995 -40.8995 -40.8995 -40.8962
   -40.8942 -40.8923 -40.8888 -40.8413 -40.8413 -40.8411 -40.8410 -40.8408
   -40.8408 -40.8377 -40.8341 -40.8318 -40.8318 -40.8316 -40.8315 -40.8311
   -40.8311 -40.8263 -40.8236 -40.8204 -40.8204 -40.8202 -40.8202 -40.8200
   -40.8199 -40.8169 -40.8121 -40.7908 -40.7908 -40.7908 -40.7908 -40.7906
   -40.7906 -40.7905 -40.7905 -40.7903 -40.7903 -40.7903 -40.7903 -40.7886
   -40.7869 -40.7866 -40.7821 -40.7821 -40.7819 -40.7818 -40.7816 -40.7816
   -40.7810 -40.7781 -40.7719 -40.7703 -40.7703 -40.7701 -40.7701 -40.7698
   -40.7698 -40.7698 -40.7698 -40.7696 -40.7696 -40.7696 -40.7695 -40.7695
   -40.7695 -40.7692 -40.7692 -40.7692 -40.7692 -40.7675 -40.7655 -40.7650
   -40.7623 -40.7611 -40.7611 -40.7610 -40.7609 -40.7608 -40.7605 -40.7605
   -40.7598 -40.7495 -40.7485 -40.7394 -40.7394 -40.7394 -40.7394 -40.7392
   -40.7391 -40.7391 -40.7391 -40.7386 -40.7386 -40.7386 -40.7386 -40.7372
   -40.7332 -40.7317 -40.7280 -40.7046 -40.7046 -40.7046 -40.7046 -40.7044
   -40.7044 -40.7044 -40.7044 -40.7038 -40.7038 -40.7038 -40.7038 -40.7022
   -40.6984 -40.6968 -40.6940 -40.6925 -40.6925 -40.6923 -40.6922 -40.6917
   -40.6917 -40.6865 -40.6815 -40.6732 -40.6732 -40.6730 -40.6729 -40.6724
   -40.6724 -40.6684 -40.6636 -40.6562 -40.6562 -40.6560 -40.6559 -40.6553
   -40.6553 -40.6498 -40.6463 -40.6255 -40.6255 -40.6253 -40.6252 -40.6246
   -40.6246 -40.6196 -40.6163 -19.9572 -19.9498 -19.8978 -19.8764 -19.8072
   -19.7811 -19.7166 -19.7042 -19.5189 -19.5125 -19.4638 -19.4434 -19.3794
   -19.3523 -19.2914 -19.2779 -18.9398 -18.8355 -18.8218 -18.7973 -18.7972
   -18.7971 -18.7901 -18.7419 -18.7415 -18.7414 -18.7302 -18.7010 -18.6891
   -18.6659 -18.6654 -18.6653 -18.6396 -18.6263 -18.6172 -18.6007 -18.6003
   -18.6002 -18.5777 -18.5628 -18.5467 -18.5453 -18.5279 -18.5071 -18.5013
   -18.4984 -18.4737 -18.4663 -18.4477 -18.4328 -18.4094 -18.3890 -18.3804
   -18.3746 -18.3261 -18.3088 -18.3002 -18.2838 -18.2835 -18.2835 -18.2446
   -18.1953 -18.1948 -18.1947 -18.1792 -18.1710 -18.1705 -18.1700 -18.1699
   -18.1697 -18.1543 -18.1399 -18.1395 -18.1390 -18.1361 -18.1151 -18.1146
   -18.1146 -18.1080 -18.0986 -18.0984 -18.0961 -18.0952 -18.0948 -18.0727
   -18.0637 -18.0635 -18.0635 -18.0597 -18.0516 -18.0507 -18.0504 -18.0409
   -18.0368 -18.0046 -17.9989 -17.9902 -17.9804 -17.9798 -17.9796 -17.9500
   -17.9356 -17.9345 -17.9344 -17.9122 -17.9022 -17.9011 -17.9009 -17.8883
   -17.8878 -17.8873 -17.8838 -17.8832 -17.8829 -17.8765 -17.8750 -17.8596
   -17.8567 -17.8374 -17.8326 -17.8213 -17.8151 -17.8043 -17.7989 -17.7927
   -17.7886 -17.7877 -17.7799 -11.8115 -11.7808 -11.6512 -11.5856 -11.5806
   -11.5804 -11.5784 -11.5501 -11.5482 -11.5336 -11.5119 -11.5028 -11.4958
   -11.4956 -11.4696 -11.4560 -11.4220 -11.4138 -11.3942 -11.3928 -11.3896
   -11.3818 -11.3588 -11.3425 -11.3320 -11.3320 -11.3276 -11.3267 -11.3194
   -11.3194 -11.2998 -11.2925 -11.2917 -11.2564 -11.2469 -11.2440 -11.2427
   -11.2344 -11.2342 -11.2335 -11.2298 -11.2055 -11.2030 -11.1978 -11.1759
   -11.1642 -11.1260 -11.1183 -11.1180 -11.1140 -11.0151 -11.0087 -11.0043
   -10.9747 -10.9739 -10.9639 -10.9460 -10.9330 -10.9320 -10.8945 -10.8887
   -10.8860 -10.8811 -10.8810 -10.8805 -10.8794 -10.8760 -10.8719 -10.8628
   -10.8600 -10.8578 -10.8577 -10.8571 -10.8557 -10.8550 -10.8539 -10.8535
   -10.8529 -10.8355 -10.8245 -10.8190 -10.8188 -10.8097 -10.8070 -10.8012
   -10.8006 -10.6247 -10.6016 -10.5999 -10.5803 -10.5427 -10.5370 -10.4612
   -10.4380 -10.3914 -10.3022 -10.2851 -10.2080 -10.2049 -10.2034 -10.2025
   -10.1550 -10.1493 -10.1443 -10.1431 -10.1179 -10.1170 -10.1165 -10.1056
   -10.0775 -10.0768 -10.0663 -10.0656 -10.0649 -10.0480  -9.9875  -9.9817
    -9.9796  -9.9795  -9.9647  -9.9646  -9.9613  -9.9611  -9.9596  -9.9328
    -9.9170  -9.9032  -9.8545  -9.8501  -9.8381  -9.8356  -9.8345  -9.8194
    -9.8067  -9.7929  -9.7735  -9.7722  -9.7703  -9.7406  -9.7181  -9.7173
    -9.7156  -9.6955  -9.6949  -9.6746  -9.6593  -9.6348  -9.6027  -9.6008
    -9.5984  -9.5983  -9.5981  -9.5976  -9.5970  -9.5754  -9.5713  -9.5526
    -9.5500  -9.5341  -9.5263  -9.5262  -9.5238  -9.5119  -9.5047  -9.4926
    -9.4813  -9.4793  -9.4791  -9.4173  -9.3995  -9.3162  -9.3062  -9.2981
    -9.2922  -9.2751  -9.2427  -9.2418  -9.2397  -9.2315  -9.2223  -9.2205
    -9.2181  -9.1719  -9.1614  -9.1382  -9.1292  -9.1260  -9.1133  -9.1021
    -9.0936  -9.0917  -9.0861  -9.0836  -9.0720  -9.0718  -9.0709  -9.0239
    -9.0169  -9.0006  -8.9982  -8.9959  -8.9875  -8.9871  -8.9859  -8.9546
    -8.9528  -8.9496  -8.9493  -8.9395  -8.9386  -8.9372  -8.9294  -8.9270
    -8.9269  -8.9241  -8.9233  -8.9101  -8.9093  -8.9043  -8.9005  -8.8951
    -8.8871  -8.8749  -8.8728  -8.8660  -8.8657  -8.8487  -8.8485  -8.8466
    -8.8463  -8.8434  -8.8413  -8.8188  -8.8128  -8.7977  -8.7933  -8.7850
    -8.7849  -8.7614  -8.7458  -8.7065  -8.7057  -8.6613  -8.6357  -8.5808
    -8.5790  -8.5506  -8.5415  -8.4917  -8.4767  -8.4171  -8.4092  -8.3523
    -8.3082  -8.2286  -8.1971  -8.1964  -8.1915  -8.1883  -8.1827  -8.1771
    -8.1741  -8.1662  -8.1278  -8.1211  -8.0432  -8.0370  -8.0065  -7.9656
    -7.9277  -7.9086  -7.9080  -7.9080  -7.8894  -7.8826  -7.8802  -7.8797
    -7.8717  -7.8623  -7.8571  -7.8567  -7.8565  -7.8565  -7.8558  -7.8522
    -7.8510  -7.8478  -7.8409  -7.8399  -7.8382  -7.8362  -7.8360  -7.8355
    -7.8300  -7.8285  -7.8259  -7.8240  -7.8178  -7.8115  -7.8108  -7.8106
    -7.7923  -7.7857  -7.7776  -7.7775  -7.7661  -7.7634  -7.7572  -7.7565
    -7.7565  -7.7543  -7.7465  -7.7434  -7.7416  -7.7340  -7.7284  -7.7249
    -7.7214  -7.7078  -7.7044  -7.6802  -7.6789  -7.6648  -7.6642  -7.6608
    -7.6606  -7.6602  -7.6600  -7.6456  -7.6392  -7.6381  -7.6299  -7.6254
    -7.6113  -7.6081  -7.6021  -7.5995  -7.5983  -7.5256  -7.5175  -7.5145
    -7.5138  -7.4859  -7.4731  -7.3037  -7.2446  -7.2429  -7.2414  -7.2344
    -7.2163  -7.2090  -7.2052  -7.1781  -7.1717  -7.1679  -7.1572  -7.1466
    -7.1433  -7.0968  -7.0862  -7.0826  -7.0795  -7.0787  -7.0777  -7.0566
    -7.0526  -7.0173  -7.0047  -6.9756  -6.9714  -6.9642  -6.9526  -6.9421
    -6.9257  -6.9228  -6.9171  -6.9109  -6.8892  -6.8800  -6.8662  -6.8348
    -6.8236  -6.7743  -6.7429  -6.7423  -6.7367  -6.6953  -6.6875  -6.6852
    -6.6773  -6.6766  -6.6765  -6.6707  -6.6615  -6.6604  -6.6601  -6.6542
    -6.6504  -6.6495  -6.6490  -6.6470  -6.6462  -6.6456  -6.6450  -6.5832
    -6.5526  -6.5308  -6.5103  -6.4654  -6.4586  -6.4025  -6.3989  -6.3972
    -6.3939  -6.3635  -6.3616  -6.3545  -6.3505  -6.3485  -6.3440  -6.3433
    -6.3432  -6.3380  -6.3380  -6.3071  -6.3063  -6.3024  -6.2951  -6.2732
    -6.2683  -6.2682  -6.2641  -6.2636  -6.2533  -6.0696  -6.0668  -6.0273
    -6.0232  -5.9686  -5.9673  -5.9167  -5.9147  -5.9139  -5.9061  -5.7426
    -5.7407  -5.7209  -5.7179  -5.6581  -5.6559  -5.3202  -5.1022  -5.1001
    -4.3812  -4.1517  -4.1511  -4.1504  -4.1289  -3.9999  -3.9950  -3.9674
    -3.9657  -3.9643  -3.9294  -3.9085  -3.9077  -3.8912  -3.8897  -3.8741
    -3.8725  -3.8636  -3.8624  -3.8480  -3.8260  -3.7324  -3.7301  -3.7293
    -3.7080  -3.6669  -3.6666  -3.6663  -3.6640  -3.6579  -3.6362  -3.6195
    -3.6194  -3.5853  -3.5850  -3.5820  -3.5816  -3.5802  -3.5712  -3.5436
    -3.5432  -3.5411  -3.5401  -3.5308  -3.5291  -3.5290  -3.5203  -3.5127
    -3.5126  -3.4837  -3.4834  -3.4824  -3.4755  -3.4735  -3.4563  -3.4121
    -3.4110  -3.4108  -3.4105  -3.4103  -3.4077  -3.4069  -3.3986  -3.3704
    -3.3662  -3.3569  -3.3517  -3.3476  -3.3474  -3.3471  -3.3468  -3.3466
    -3.3419  -3.3159  -3.3067  -3.3006  -3.3002  -3.2990  -3.2970  -3.2832
    -3.2790  -3.2740  -3.2697  -3.2658  -3.2531  -3.2365  -3.2349  -3.2307
    -3.2302  -3.2300  -3.2289  -3.2287  -3.2282  -3.2260  -3.1640  -3.1632
    -3.1613  -3.1322  -3.1316  -3.1198  -3.1197  -3.1179  -3.0929  -3.0891
    -3.0887  -3.0879  -3.0875  -3.0875  -3.0846  -3.0762  -3.0747  -3.0737
    -3.0716  -3.0628  -3.0574  -3.0563  -3.0531  -3.0343  -3.0335  -3.0329
    -3.0298  -3.0175  -3.0171  -3.0147  -3.0136  -3.0133  -3.0094  -3.0089
    -3.0002  -2.9967  -2.9951  -2.9946  -2.9821  -2.9499  -2.9488  -2.9486
    -2.9407  -2.9387  -2.9382  -2.9190  -2.9188  -2.8513  -2.8509  -2.8507
    -2.8465  -2.7720  -2.7718  -2.7702  -2.7649  -2.6772  -2.6753  -2.6394
    -2.6357  -2.6161  -2.6096  -2.6078  -2.6049  -2.5918  -2.5905  -2.5847
    -2.5843  -2.5830  -2.5808  -2.4581  -2.4577  -2.4573  -2.4522  -2.4506
    -2.4099  -2.4085

          k =-0.5000-0.2887 0.0000 (386352 PWs)   bands (ev):

  -100.9878 -69.4176 -69.3938 -69.3937 -69.3326 -69.3326 -69.2571 -69.2570
   -66.6877 -66.6876 -66.6874 -66.6874 -66.6865 -66.6865 -66.6843 -66.6815
   -66.6770 -66.6770 -66.6768 -66.6767 -66.6759 -66.6759 -66.6740 -66.6694
   -66.6619 -66.6619 -66.6619 -66.6619 -66.6617 -66.6617 -66.6616 -66.6616
   -66.6608 -66.6608 -66.6608 -66.6608 -66.6599 -66.6589 -66.6582 -66.6575
   -66.6574 -66.6572 -66.6572 -66.6563 -66.6563 -66.6545 -66.6518 -66.6512
   -66.6512 -66.6512 -66.6511 -66.6510 -66.6509 -66.6509 -66.6509 -66.6501
   -66.6500 -66.6500 -66.6500 -66.6488 -66.6480 -66.6467 -66.6467 -66.6465
   -66.6465 -66.6456 -66.6456 -66.6454 -66.6450 -66.6395 -66.6292 -66.6291
   -55.7043 -54.9574 -54.9574 -40.9897 -40.9896 -40.9896 -40.9896 -40.9894
   -40.9894 -40.9894 -40.9894 -40.9891 -40.9891 -40.9891 -40.9891 -40.9863
   -40.9837 -40.9821 -40.9793 -40.9629 -40.9628 -40.9626 -40.9626 -40.9623
   -40.9623 -40.9578 -40.9539 -40.9508 -40.9508 -40.9506 -40.9505 -40.9502
   -40.9502 -40.9452 -40.9421 -40.9001 -40.9001 -40.9001 -40.9001 -40.8999
   -40.8999 -40.8998 -40.8998 -40.8995 -40.8995 -40.8995 -40.8995 -40.8962
   -40.8942 -40.8923 -40.8888 -40.8413 -40.8413 -40.8411 -40.8410 -40.8408
   -40.8408 -40.8377 -40.8340 -40.8318 -40.8318 -40.8316 -40.8316 -40.8311
   -40.8311 -40.8263 -40.8236 -40.8204 -40.8204 -40.8202 -40.8202 -40.8200
   -40.8199 -40.8169 -40.8121 -40.7908 -40.7908 -40.7908 -40.7908 -40.7906
   -40.7906 -40.7905 -40.7905 -40.7903 -40.7903 -40.7903 -40.7903 -40.7885
   -40.7869 -40.7866 -40.7821 -40.7821 -40.7819 -40.7818 -40.7816 -40.7815
   -40.7810 -40.7781 -40.7719 -40.7703 -40.7703 -40.7701 -40.7701 -40.7698
   -40.7698 -40.7698 -40.7697 -40.7696 -40.7696 -40.7696 -40.7695 -40.7695
   -40.7695 -40.7693 -40.7692 -40.7692 -40.7692 -40.7675 -40.7655 -40.7650
   -40.7623 -40.7611 -40.7611 -40.7610 -40.7609 -40.7608 -40.7605 -40.7605
   -40.7598 -40.7495 -40.7485 -40.7394 -40.7394 -40.7394 -40.7393 -40.7392
   -40.7391 -40.7391 -40.7391 -40.7386 -40.7386 -40.7386 -40.7386 -40.7372
   -40.7333 -40.7317 -40.7280 -40.7047 -40.7046 -40.7046 -40.7046 -40.7044
   -40.7044 -40.7044 -40.7044 -40.7038 -40.7038 -40.7038 -40.7038 -40.7022
   -40.6984 -40.6968 -40.6940 -40.6925 -40.6925 -40.6923 -40.6922 -40.6917
   -40.6917 -40.6865 -40.6815 -40.6732 -40.6732 -40.6730 -40.6729 -40.6724
   -40.6723 -40.6684 -40.6636 -40.6562 -40.6562 -40.6560 -40.6559 -40.6553
   -40.6553 -40.6498 -40.6463 -40.6255 -40.6255 -40.6253 -40.6253 -40.6247
   -40.6246 -40.6196 -40.6163 -19.9572 -19.9498 -19.8978 -19.8764 -19.8072
   -19.7811 -19.7166 -19.7043 -19.5189 -19.5125 -19.4638 -19.4434 -19.3794
   -19.3523 -19.2914 -19.2779 -18.9398 -18.8355 -18.8218 -18.7973 -18.7972
   -18.7971 -18.7901 -18.7419 -18.7415 -18.7415 -18.7302 -18.7010 -18.6891
   -18.6659 -18.6654 -18.6653 -18.6396 -18.6263 -18.6172 -18.6007 -18.6003
   -18.6002 -18.5777 -18.5628 -18.5466 -18.5453 -18.5279 -18.5071 -18.5013
   -18.4984 -18.4737 -18.4663 -18.4477 -18.4328 -18.4094 -18.3890 -18.3804
   -18.3746 -18.3261 -18.3088 -18.3002 -18.2838 -18.2835 -18.2835 -18.2445
   -18.1953 -18.1948 -18.1947 -18.1792 -18.1710 -18.1705 -18.1700 -18.1699
   -18.1697 -18.1543 -18.1399 -18.1395 -18.1390 -18.1361 -18.1151 -18.1146
   -18.1146 -18.1080 -18.0986 -18.0984 -18.0961 -18.0952 -18.0948 -18.0726
   -18.0637 -18.0635 -18.0635 -18.0596 -18.0516 -18.0507 -18.0505 -18.0409
   -18.0368 -18.0046 -17.9989 -17.9901 -17.9804 -17.9798 -17.9797 -17.9500
   -17.9355 -17.9346 -17.9345 -17.9122 -17.9022 -17.9012 -17.9009 -17.8882
   -17.8878 -17.8873 -17.8838 -17.8832 -17.8829 -17.8765 -17.8750 -17.8596
   -17.8567 -17.8374 -17.8326 -17.8212 -17.8151 -17.8043 -17.7989 -17.7927
   -17.7886 -17.7877 -17.7799 -11.8115 -11.7808 -11.6512 -11.5856 -11.5806
   -11.5804 -11.5785 -11.5502 -11.5482 -11.5336 -11.5119 -11.5028 -11.4958
   -11.4956 -11.4696 -11.4559 -11.4220 -11.4138 -11.3942 -11.3928 -11.3896
   -11.3818 -11.3588 -11.3425 -11.3320 -11.3320 -11.3276 -11.3267 -11.3194
   -11.3194 -11.2998 -11.2925 -11.2917 -11.2564 -11.2469 -11.2439 -11.2427
   -11.2343 -11.2342 -11.2336 -11.2298 -11.2055 -11.2030 -11.1978 -11.1759
   -11.1642 -11.1260 -11.1183 -11.1180 -11.1140 -11.0151 -11.0087 -11.0043
   -10.9747 -10.9739 -10.9640 -10.9459 -10.9331 -10.9320 -10.8945 -10.8887
   -10.8860 -10.8812 -10.8810 -10.8805 -10.8794 -10.8760 -10.8719 -10.8628
   -10.8600 -10.8578 -10.8577 -10.8571 -10.8557 -10.8550 -10.8539 -10.8535
   -10.8528 -10.8355 -10.8245 -10.8190 -10.8188 -10.8097 -10.8070 -10.8012
   -10.8006 -10.6247 -10.6016 -10.5999 -10.5803 -10.5426 -10.5370 -10.4612
   -10.4380 -10.3914 -10.3022 -10.2851 -10.2080 -10.2049 -10.2033 -10.2025
   -10.1550 -10.1493 -10.1443 -10.1431 -10.1179 -10.1170 -10.1165 -10.1056
   -10.0775 -10.0768 -10.0663 -10.0656 -10.0649 -10.0480  -9.9875  -9.9817
    -9.9796  -9.9795  -9.9647  -9.9646  -9.9613  -9.9611  -9.9596  -9.9328
    -9.9170  -9.9032  -9.8545  -9.8501  -9.8381  -9.8356  -9.8345  -9.8194
    -9.8067  -9.7929  -9.7735  -9.7722  -9.7703  -9.7406  -9.7181  -9.7173
    -9.7156  -9.6955  -9.6949  -9.6746  -9.6593  -9.6348  -9.6027  -9.6008
    -9.5984  -9.5983  -9.5981  -9.5976  -9.5970  -9.5754  -9.5713  -9.5526
    -9.5500  -9.5340  -9.5263  -9.5262  -9.5238  -9.5119  -9.5047  -9.4926
    -9.4813  -9.4793  -9.4791  -9.4173  -9.3995  -9.3162  -9.3062  -9.2980
    -9.2922  -9.2751  -9.2427  -9.2418  -9.2397  -9.2315  -9.2223  -9.2205
    -9.2182  -9.1719  -9.1614  -9.1382  -9.1292  -9.1260  -9.1133  -9.1021
    -9.0936  -9.0917  -9.0861  -9.0836  -9.0720  -9.0718  -9.0709  -9.0239
    -9.0169  -9.0006  -8.9983  -8.9959  -8.9875  -8.9871  -8.9859  -8.9546
    -8.9528  -8.9496  -8.9493  -8.9395  -8.9386  -8.9372  -8.9294  -8.9270
    -8.9269  -8.9241  -8.9232  -8.9101  -8.9093  -8.9043  -8.9005  -8.8951
    -8.8871  -8.8749  -8.8729  -8.8660  -8.8657  -8.8487  -8.8485  -8.8466
    -8.8463  -8.8434  -8.8413  -8.8188  -8.8128  -8.7977  -8.7933  -8.7850
    -8.7849  -8.7614  -8.7458  -8.7064  -8.7057  -8.6613  -8.6357  -8.5808
    -8.5790  -8.5506  -8.5416  -8.4917  -8.4767  -8.4171  -8.4093  -8.3522
    -8.3082  -8.2286  -8.1971  -8.1964  -8.1915  -8.1883  -8.1827  -8.1771
    -8.1740  -8.1662  -8.1278  -8.1211  -8.0432  -8.0370  -8.0065  -7.9656
    -7.9277  -7.9086  -7.9080  -7.9080  -7.8894  -7.8827  -7.8801  -7.8798
    -7.8717  -7.8623  -7.8571  -7.8567  -7.8566  -7.8565  -7.8559  -7.8522
    -7.8510  -7.8478  -7.8409  -7.8399  -7.8382  -7.8362  -7.8360  -7.8355
    -7.8300  -7.8285  -7.8259  -7.8240  -7.8178  -7.8115  -7.8108  -7.8106
    -7.7923  -7.7857  -7.7776  -7.7775  -7.7661  -7.7634  -7.7572  -7.7565
    -7.7565  -7.7543  -7.7465  -7.7434  -7.7417  -7.7340  -7.7284  -7.7249
    -7.7214  -7.7077  -7.7044  -7.6802  -7.6789  -7.6648  -7.6642  -7.6607
    -7.6606  -7.6602  -7.6600  -7.6456  -7.6392  -7.6381  -7.6299  -7.6254
    -7.6113  -7.6081  -7.6021  -7.5995  -7.5983  -7.5256  -7.5175  -7.5145
    -7.5138  -7.4859  -7.4731  -7.3037  -7.2446  -7.2429  -7.2415  -7.2344
    -7.2163  -7.2090  -7.2053  -7.1781  -7.1717  -7.1679  -7.1572  -7.1465
    -7.1433  -7.0968  -7.0862  -7.0826  -7.0795  -7.0787  -7.0777  -7.0566
    -7.0526  -7.0173  -7.0047  -6.9756  -6.9714  -6.9642  -6.9526  -6.9421
    -6.9257  -6.9227  -6.9171  -6.9109  -6.8892  -6.8800  -6.8662  -6.8348
    -6.8236  -6.7743  -6.7429  -6.7424  -6.7367  -6.6953  -6.6875  -6.6852
    -6.6773  -6.6766  -6.6765  -6.6707  -6.6615  -6.6604  -6.6601  -6.6542
    -6.6504  -6.6495  -6.6490  -6.6470  -6.6462  -6.6456  -6.6451  -6.5832
    -6.5526  -6.5308  -6.5103  -6.4654  -6.4586  -6.4024  -6.3990  -6.3973
    -6.3938  -6.3634  -6.3616  -6.3546  -6.3505  -6.3486  -6.3439  -6.3433
    -6.3432  -6.3380  -6.3380  -6.3072  -6.3063  -6.3025  -6.2951  -6.2732
    -6.2684  -6.2681  -6.2640  -6.2637  -6.2533  -6.0696  -6.0668  -6.0273
    -6.0232  -5.9685  -5.9673  -5.9167  -5.9147  -5.9139  -5.9061  -5.7426
    -5.7407  -5.7209  -5.7179  -5.6581  -5.6559  -5.3202  -5.1022  -5.1001
    -4.3813  -4.1518  -4.1511  -4.1504  -4.1288  -3.9999  -3.9949  -3.9674
    -3.9659  -3.9644  -3.9295  -3.9085  -3.9078  -3.8912  -3.8897  -3.8741
    -3.8725  -3.8636  -3.8624  -3.8483  -3.8257  -3.7324  -3.7301  -3.7291
    -3.7080  -3.6668  -3.6667  -3.6664  -3.6639  -3.6577  -3.6363  -3.6198
    -3.6196  -3.5855  -3.5854  -3.5821  -3.5816  -3.5805  -3.5713  -3.5440
    -3.5437  -3.5411  -3.5401  -3.5308  -3.5295  -3.5294  -3.5206  -3.5129
    -3.5128  -3.4838  -3.4835  -3.4826  -3.4758  -3.4734  -3.4561  -3.4121
    -3.4113  -3.4109  -3.4108  -3.4104  -3.4078  -3.4070  -3.3986  -3.3704
    -3.3658  -3.3570  -3.3515  -3.3474  -3.3473  -3.3471  -3.3468  -3.3466
    -3.3418  -3.3158  -3.3066  -3.3004  -3.3002  -3.2993  -3.2969  -3.2831
    -3.2787  -3.2739  -3.2695  -3.2658  -3.2528  -3.2363  -3.2346  -3.2307
    -3.2299  -3.2298  -3.2286  -3.2286  -3.2286  -3.2260  -3.1640  -3.1633
    -3.1614  -3.1327  -3.1322  -3.1198  -3.1197  -3.1179  -3.0932  -3.0891
    -3.0888  -3.0879  -3.0876  -3.0875  -3.0846  -3.0762  -3.0748  -3.0738
    -3.0716  -3.0630  -3.0573  -3.0564  -3.0529  -3.0345  -3.0341  -3.0333
    -3.0301  -3.0169  -3.0166  -3.0150  -3.0138  -3.0134  -3.0098  -3.0089
    -3.0004  -2.9973  -2.9955  -2.9949  -2.9823  -2.9499  -2.9495  -2.9480
    -2.9409  -2.9392  -2.9387  -2.9175  -2.9167  -2.8515  -2.8511  -2.8506
    -2.8465  -2.7719  -2.7715  -2.7701  -2.7649  -2.6770  -2.6753  -2.6393
    -2.6356  -2.6153  -2.6081  -2.6049  -2.6012  -2.5917  -2.5905  -2.5846
    -2.5842  -2.5830  -2.5814  -2.4582  -2.4579  -2.4575  -2.4498  -2.4446
    -2.4098  -2.4077

          k =-0.5000-0.8660 0.0000 (386352 PWs)   bands (ev):

  -100.9878 -69.4176 -69.3938 -69.3937 -69.3326 -69.3325 -69.2571 -69.2570
   -66.6877 -66.6877 -66.6874 -66.6874 -66.6865 -66.6865 -66.6843 -66.6815
   -66.6770 -66.6770 -66.6768 -66.6767 -66.6759 -66.6759 -66.6740 -66.6694
   -66.6619 -66.6619 -66.6619 -66.6619 -66.6617 -66.6617 -66.6616 -66.6616
   -66.6608 -66.6608 -66.6608 -66.6608 -66.6599 -66.6588 -66.6582 -66.6575
   -66.6575 -66.6572 -66.6572 -66.6563 -66.6563 -66.6545 -66.6518 -66.6512
   -66.6512 -66.6512 -66.6512 -66.6510 -66.6509 -66.6509 -66.6509 -66.6500
   -66.6500 -66.6500 -66.6500 -66.6488 -66.6480 -66.6468 -66.6467 -66.6465
   -66.6465 -66.6456 -66.6456 -66.6454 -66.6450 -66.6395 -66.6292 -66.6291
   -55.7043 -54.9574 -54.9574 -40.9897 -40.9896 -40.9896 -40.9896 -40.9895
   -40.9894 -40.9894 -40.9894 -40.9891 -40.9891 -40.9891 -40.9891 -40.9863
   -40.9838 -40.9821 -40.9793 -40.9628 -40.9628 -40.9626 -40.9626 -40.9623
   -40.9623 -40.9578 -40.9539 -40.9508 -40.9508 -40.9505 -40.9505 -40.9502
   -40.9502 -40.9452 -40.9421 -40.9001 -40.9001 -40.9001 -40.9001 -40.8999
   -40.8999 -40.8998 -40.8998 -40.8995 -40.8995 -40.8995 -40.8995 -40.8962
   -40.8942 -40.8923 -40.8888 -40.8413 -40.8413 -40.8411 -40.8410 -40.8408
   -40.8408 -40.8377 -40.8340 -40.8318 -40.8318 -40.8316 -40.8316 -40.8311
   -40.8311 -40.8263 -40.8236 -40.8204 -40.8204 -40.8202 -40.8202 -40.8200
   -40.8199 -40.8169 -40.8121 -40.7908 -40.7908 -40.7908 -40.7908 -40.7906
   -40.7906 -40.7905 -40.7905 -40.7903 -40.7903 -40.7903 -40.7903 -40.7886
   -40.7869 -40.7866 -40.7821 -40.7821 -40.7819 -40.7818 -40.7816 -40.7816
   -40.7810 -40.7781 -40.7720 -40.7703 -40.7703 -40.7701 -40.7701 -40.7698
   -40.7698 -40.7698 -40.7698 -40.7696 -40.7696 -40.7696 -40.7695 -40.7695
   -40.7695 -40.7692 -40.7692 -40.7692 -40.7692 -40.7675 -40.7655 -40.7650
   -40.7623 -40.7611 -40.7611 -40.7610 -40.7609 -40.7608 -40.7605 -40.7605
   -40.7598 -40.7495 -40.7485 -40.7394 -40.7394 -40.7394 -40.7394 -40.7392
   -40.7391 -40.7391 -40.7391 -40.7386 -40.7386 -40.7386 -40.7386 -40.7372
   -40.7332 -40.7317 -40.7280 -40.7046 -40.7046 -40.7046 -40.7046 -40.7044
   -40.7044 -40.7044 -40.7044 -40.7038 -40.7038 -40.7038 -40.7038 -40.7022
   -40.6984 -40.6968 -40.6940 -40.6925 -40.6925 -40.6923 -40.6922 -40.6917
   -40.6917 -40.6865 -40.6815 -40.6732 -40.6732 -40.6729 -40.6729 -40.6724
   -40.6724 -40.6684 -40.6636 -40.6562 -40.6562 -40.6560 -40.6559 -40.6553
   -40.6553 -40.6498 -40.6463 -40.6255 -40.6255 -40.6253 -40.6253 -40.6247
   -40.6246 -40.6196 -40.6163 -19.9572 -19.9498 -19.8978 -19.8764 -19.8072
   -19.7811 -19.7166 -19.7043 -19.5189 -19.5125 -19.4638 -19.4434 -19.3794
   -19.3523 -19.2914 -19.2779 -18.9398 -18.8355 -18.8218 -18.7973 -18.7972
   -18.7971 -18.7901 -18.7419 -18.7415 -18.7414 -18.7302 -18.7010 -18.6891
   -18.6659 -18.6654 -18.6653 -18.6396 -18.6263 -18.6172 -18.6007 -18.6003
   -18.6002 -18.5777 -18.5628 -18.5467 -18.5453 -18.5279 -18.5071 -18.5013
   -18.4984 -18.4737 -18.4663 -18.4477 -18.4328 -18.4094 -18.3890 -18.3804
   -18.3746 -18.3261 -18.3088 -18.3002 -18.2838 -18.2835 -18.2835 -18.2446
   -18.1953 -18.1948 -18.1947 -18.1792 -18.1710 -18.1705 -18.1700 -18.1699
   -18.1697 -18.1543 -18.1399 -18.1395 -18.1390 -18.1361 -18.1151 -18.1146
   -18.1146 -18.1080 -18.0986 -18.0984 -18.0961 -18.0952 -18.0948 -18.0727
   -18.0637 -18.0635 -18.0635 -18.0597 -18.0516 -18.0507 -18.0504 -18.0409
   -18.0368 -18.0046 -17.9989 -17.9902 -17.9804 -17.9798 -17.9796 -17.9500
   -17.9356 -17.9346 -17.9344 -17.9122 -17.9022 -17.9011 -17.9008 -17.8883
   -17.8878 -17.8873 -17.8838 -17.8832 -17.8829 -17.8765 -17.8750 -17.8596
   -17.8567 -17.8374 -17.8326 -17.8212 -17.8151 -17.8043 -17.7989 -17.7927
   -17.7886 -17.7877 -17.7799 -11.8115 -11.7808 -11.6512 -11.5856 -11.5806
   -11.5804 -11.5784 -11.5501 -11.5482 -11.5336 -11.5119 -11.5028 -11.4958
   -11.4956 -11.4696 -11.4559 -11.4220 -11.4138 -11.3942 -11.3928 -11.3896
   -11.3818 -11.3588 -11.3425 -11.3320 -11.3320 -11.3276 -11.3267 -11.3194
   -11.3194 -11.2998 -11.2925 -11.2917 -11.2564 -11.2469 -11.2440 -11.2427
   -11.2344 -11.2342 -11.2335 -11.2298 -11.2055 -11.2030 -11.1978 -11.1759
   -11.1642 -11.1260 -11.1183 -11.1180 -11.1140 -11.0151 -11.0087 -11.0043
   -10.9747 -10.9739 -10.9639 -10.9460 -10.9330 -10.9320 -10.8945 -10.8887
   -10.8860 -10.8811 -10.8810 -10.8805 -10.8794 -10.8760 -10.8719 -10.8627
   -10.8600 -10.8578 -10.8577 -10.8571 -10.8557 -10.8550 -10.8539 -10.8535
   -10.8529 -10.8355 -10.8245 -10.8190 -10.8188 -10.8097 -10.8070 -10.8012
   -10.8006 -10.6247 -10.6016 -10.5999 -10.5803 -10.5426 -10.5370 -10.4612
   -10.4380 -10.3914 -10.3022 -10.2851 -10.2080 -10.2049 -10.2034 -10.2025
   -10.1550 -10.1493 -10.1443 -10.1431 -10.1178 -10.1170 -10.1165 -10.1056
   -10.0775 -10.0768 -10.0663 -10.0656 -10.0649 -10.0480  -9.9875  -9.9817
    -9.9796  -9.9795  -9.9647  -9.9646  -9.9613  -9.9611  -9.9595  -9.9328
    -9.9170  -9.9032  -9.8545  -9.8501  -9.8381  -9.8356  -9.8345  -9.8194
    -9.8067  -9.7929  -9.7735  -9.7722  -9.7703  -9.7406  -9.7181  -9.7173
    -9.7156  -9.6955  -9.6949  -9.6746  -9.6593  -9.6348  -9.6027  -9.6008
    -9.5984  -9.5983  -9.5981  -9.5976  -9.5970  -9.5754  -9.5713  -9.5526
    -9.5500  -9.5340  -9.5263  -9.5262  -9.5238  -9.5119  -9.5047  -9.4926
    -9.4813  -9.4793  -9.4791  -9.4173  -9.3995  -9.3162  -9.3062  -9.2981
    -9.2922  -9.2751  -9.2427  -9.2418  -9.2397  -9.2315  -9.2223  -9.2205
    -9.2181  -9.1719  -9.1614  -9.1382  -9.1292  -9.1260  -9.1133  -9.1021
    -9.0936  -9.0917  -9.0861  -9.0836  -9.0720  -9.0718  -9.0709  -9.0239
    -9.0169  -9.0006  -8.9982  -8.9959  -8.9875  -8.9871  -8.9859  -8.9546
    -8.9528  -8.9496  -8.9493  -8.9395  -8.9386  -8.9372  -8.9294  -8.9269
    -8.9269  -8.9241  -8.9233  -8.9101  -8.9093  -8.9043  -8.9005  -8.8951
    -8.8871  -8.8749  -8.8728  -8.8661  -8.8657  -8.8487  -8.8485  -8.8466
    -8.8463  -8.8434  -8.8413  -8.8188  -8.8128  -8.7977  -8.7934  -8.7850
    -8.7849  -8.7614  -8.7458  -8.7065  -8.7057  -8.6613  -8.6357  -8.5808
    -8.5790  -8.5506  -8.5415  -8.4917  -8.4767  -8.4171  -8.4093  -8.3522
    -8.3082  -8.2286  -8.1971  -8.1964  -8.1915  -8.1883  -8.1827  -8.1771
[...]
     atom  161 type  2   force =     0.00000002   -0.00000001    0.00441490
     atom  162 type  2   force =    -0.00000003    0.00000002    0.00009726
     atom  163 type  1   force =    -0.00000001   -0.00000132   -0.00001532
     atom  164 type  1   force =     0.00014774    0.00003281   -0.00240601
     atom  165 type  2   force =    -0.00000001   -0.00000298   -0.00016612
     atom  166 type  2   force =    -0.00000276    0.00000021    0.00003197
     atom  167 type  2   force =     0.00000032    0.00000045   -0.00009709
     atom  168 type  2   force =    -0.00000003   -0.00000421   -0.00439032
     atom  169 type  1   force =    -0.00000003   -0.00000001    0.00255965
     atom  170 type  1   force =    -0.00000005    0.00000002    0.00001462
     atom  171 type  2   force =    -0.00000006   -0.00000002   -0.00003303
     atom  172 type  2   force =    -0.00000000    0.00000000    0.00017153
     atom  173 type  2   force =    -0.00000000   -0.00000004    0.00441497
     atom  174 type  2   force =    -0.00000010   -0.00000004    0.00009730
     atom  175 type  1   force =    -0.00000230   -0.00000133   -0.00001719
     atom  176 type  1   force =    -0.00000002   -0.00000730   -0.00251350
     atom  177 type  2   force =     0.00001695    0.00000978   -0.00016359
     atom  178 type  2   force =    -0.00000001   -0.00000349    0.00003676
     atom  179 type  2   force =    -0.00000001   -0.00000009   -0.00009744
     atom  180 type  2   force =    -0.00012275   -0.00007088   -0.00436448
     atom  181 type  1   force =    -0.00000001    0.00000000    0.00255965
     atom  182 type  1   force =    -0.00000005   -0.00000002    0.00001464
     atom  183 type  2   force =    -0.00000003   -0.00000003   -0.00003306
     atom  184 type  2   force =    -0.00000001    0.00000000    0.00017154
     atom  185 type  2   force =    -0.00000004    0.00000002    0.00441497
     atom  186 type  2   force =    -0.00000001   -0.00000004    0.00009725
     atom  187 type  1   force =    -0.00000114    0.00000066   -0.00001534
     atom  188 type  1   force =    -0.00000632    0.00000366   -0.00251349
     atom  189 type  2   force =    -0.00000257    0.00000148   -0.00016612
     atom  190 type  2   force =    -0.00000302    0.00000175    0.00003676
     atom  191 type  2   force =    -0.00000009    0.00000005   -0.00009746
     atom  192 type  2   force =    -0.00000363    0.00000211   -0.00439032
     atom  193 type  3   force =    -0.00000017    0.00000020   -0.00668211

     Total force =     0.004875     Total SCF correction =     0.000880
     SCF correction compared to forces is large: reduce conv_thr to get better values
     Energy error            =      3.9E-05 Ry
     Gradient error          =      9.0E-04 Ry/Bohr

     bfgs converged in  13 scf cycles and  12 bfgs steps
     (criteria: energy <  1.0E-04 Ry, force <  1.0E-03 Ry/Bohr)

     End of BFGS Geometry Optimization

     Final energy             =  -33468.3006439108 Ry

     File ./outdir/pwscf.bfgs deleted, as requested
Begin final coordinates

ATOMIC_POSITIONS (angstrom)
Mo            0.0000119917        1.8193638619       -9.1672481230    0   0   0
Mo            1.5756136568        0.9097075315       -3.0554901653    0   0   0
S             0.0000188998        1.8193822938       -4.6232556019    0   0   0
S             1.5756321638        0.9096773839       -7.6014065489    0   0   0
S             1.5756326175        0.9096785128      -10.7330757790    0   0   0
S             0.0000189190        1.8193860094       -1.4877129945    0   0   0
Mo            0.0000677360        1.8194933162        3.0559182818
Mo            1.5756693840        0.9118451802        9.1794022965
S             0.0001384169        1.8087458401        7.6011899803
S             1.5756579035        0.9097391015        4.6233476826
S             1.5756585644        0.9098162105        1.4880757283
S            -0.0056419407        1.8189461009       10.7474517679
Mo           -1.5756053507        4.5484193819       -9.1672481230    0   0   0
Mo            0.0000378379        3.6387394919       -3.0554952701    0   0   0
S            -1.5755913433        4.5484363582       -4.6232494962    0   0   0
S             0.0000148214        3.6387329039       -7.6014065489    0   0   0
S             0.0000152751        3.6387340328      -10.7330757790    0   0   0
S            -1.5755906502        4.5484413613       -1.4877305502    0   0   0
Mo           -1.5754565037        4.5483899934        3.0559154195
Mo           -0.0199681842        3.6271947436        9.1691807648
S            -1.5847372460        4.5538447007        7.6011953659
S             0.0004618547        3.6389858594        4.6239062182
S            -0.0000609954        3.6386817210        1.4879132618
S            -1.5787944110        4.5437293703       10.7474556701
Mo           -3.1512226931        7.2774749019       -9.1672481230    0   0   0
Mo           -1.5755910988        6.3678216792       -3.0555115988    0   0   0
S            -3.1512162438        7.2774954350       -4.6232578178    0   0   0
S            -1.5756025210        6.3677884239       -7.6014065489    0   0   0
S            -1.5756020673        6.3677895528      -10.7330757790    0   0   0
S            -3.1512127704        7.2774877076       -1.4877200710    0   0   0
Mo           -3.1511700666        7.2774700506        3.0557196309
Mo           -1.5737094279        6.3667399827        9.1794132846
S            -3.1479392232        7.2756244563        7.6067021536
S            -1.5755291769        6.3677695561        4.6233479933
S            -1.5754644839        6.3677300971        1.4880672658
S            -3.1532508682        7.2786913944       10.7424433414
Mo           -4.7268400355       10.0065304219       -9.1672481230    0   0   0
Mo           -3.1512405618        9.0968403586       -3.0554816746    0   0   0
S            -4.7268341792       10.0065523623       -4.6232463762    0   0   0
S            -3.1512198634        9.0968439439       -7.6014065489    0   0   0
S            -3.1512194097        9.0968450728      -10.7330757790    0   0   0
S            -4.7268370797       10.0065537885       -1.4877176751    0   0   0
Mo           -4.7268094616       10.0065630253        3.0557244773
Mo           -3.1508775395        9.0970426790        9.1715564063
S            -4.7268029643       10.0102959709        7.6066992183
S            -3.1513103241        9.0967804344        4.6236289892
S            -3.1511613733        9.0968687448        1.4879956522
S            -4.7268011987       10.0041732118       10.7424398030
Mo            3.1512517547        1.8193638619       -9.1672481230    0   0   0
Mo            4.7269020221        0.9097289540       -3.0554823951    0   0   0
S             3.1512612351        1.8193882564       -4.6232320683    0   0   0
S             4.7268719268        0.9096773839       -7.6014065489    0   0   0
S             4.7268723805        0.9096785128      -10.7330757790    0   0   0
S             3.1512592485        1.8193890201       -1.4877261251    0   0   0
Mo            3.1512520242        1.8194932978        3.0559188062
Mo            4.7248163629        0.9065477821        9.1716992519
S             3.1511982695        1.8087340443        7.6011779021
S             4.7269064509        0.9097167638        4.6236015598
S             4.7268459504        0.9097302102        1.4881425190
S             3.1569845601        1.8189535447       10.7474413307
Mo            1.5756344123        4.5484193819       -9.1672481230    0   0   0
Mo            3.1512756394        3.6387769522       -3.0554814834    0   0   0
S             1.5756504879        4.5484423799       -4.6232390542    0   0   0
S             3.1512545844        3.6387329039       -7.6014065489    0   0   0
S             3.1512550381        3.6387340328      -10.7330757790    0   0   0
S             1.5756466253        4.5484431864       -1.4877251801    0   0   0
Mo            1.5756635894        4.5484261294        3.0555127355
Mo            3.1713188056        3.6271939668        9.1691555810
S             1.5756709806        4.5484476801        7.6229368171
S             3.1508627575        3.6389878040        4.6239096496
S             3.1513861520        3.6386814182        1.4879126202
S             1.5756941436        4.5484153938       10.7032846266
Mo            0.0000170699        7.2774749019       -9.1672481230    0   0   0
Mo            1.5756764447        6.3678236689       -3.0554877708    0   0   0
S             0.0000381981        7.2774979204       -4.6232454413    0   0   0
S             1.5756372420        6.3677884239       -7.6014065489    0   0   0
S             1.5756376957        6.3677895528      -10.7330757790    0   0   0
S             0.0000328088        7.2774946042       -1.4877307940    0   0   0
Mo            0.0001377880        7.2773949726        3.0559143503
Mo            1.5756778648        6.3909241609        9.1691970091
S            -0.0092012831        7.2827332941        7.6012025877
S             1.5756663410        6.3673101151        4.6239059313
S             1.5756653070        6.3679136811        1.4879090901
S             0.0025175984        7.2826474022       10.7474632333
Mo           -1.5756002725       10.0065304219       -9.1672481230    0   0   0
Mo            0.0000873425        9.0968676911       -3.0554912329    0   0   0
S            -1.5755883952       10.0065504530       -4.6232240150    0   0   0
S             0.0000198996        9.0968439439       -7.6014065489    0   0   0
S             0.0000203533        9.0968450728      -10.7330757790    0   0   0
S            -1.5755859047       10.0065492576       -1.4877362381    0   0   0
Mo           -1.5756196720       10.0065091321        3.0558651457
Mo           -0.0037159839        9.0966288672        9.1717144451
S            -1.5767073848       10.0058808312        7.6023703109
S             0.0000797676        9.0968370357        4.6235998213
S             0.0000599650        9.0967834421        1.4881404576
S            -1.5773163487       10.0055450676       10.7416551216
Mo            6.3024915177        1.8193638619       -9.1672481230    0   0   0
Mo            7.8781001445        0.9096521684       -3.0554919963    0   0   0
S             6.3025008696        1.8193826232       -4.6232480596    0   0   0
S             7.8781116898        0.9096773839       -7.6014065489    0   0   0
S             7.8781121435        0.9096785128      -10.7330757790    0   0   0
S             6.3025042007        1.8193849068       -1.4877147524    0   0   0
Mo            6.3025303028        1.8193677740        3.0558692585
Mo            7.8781484991        0.9097015558        9.1679468324
S             6.3004258982        1.8206016481        7.6034321540
S             7.8781395648        0.9096849131        4.6237674406
S             7.8781405294        0.9096859058        1.4881222819
S             6.3039976311        1.8185397059       10.7380916918
Mo            4.7268741753        4.5484193819       -9.1672481230    0   0   0
Mo            6.3024679138        3.6387501714       -3.0554895197    0   0   0
S             4.7268748770        4.5484386753       -4.6232519432    0   0   0
S             6.3024943474        3.6387329039       -7.6014065489    0   0   0
S             6.3024948011        3.6387340328      -10.7330757790    0   0   0
S             4.7268770533        4.5484432419       -1.4877137856    0   0   0
Mo            4.7267837192        4.5483907705        3.0559157799
Mo            6.3042169256        3.6421468314        9.1716994953
S             4.7360923358        4.5538494018        7.6011790304
S             6.3024989862        3.6387230721        4.6235984332
S             6.3024577623        3.6387654567        1.4881384585
S             4.7301363942        4.5437249808       10.7474421344
Mo            3.1512568329        7.2774749019       -9.1672481230    0   0   0
Mo            4.7268384135        6.3678043337       -3.0554959052    0   0   0
S             3.1512606125        7.2774972547       -4.6232589675    0   0   0
S             4.7268770050        6.3677884239       -7.6014065489    0   0   0
S             4.7268774587        6.3677895528      -10.7330757790    0   0   0
S             3.1512629079        7.2774963749       -1.4877081835    0   0   0
Mo            3.1511959035        7.2773949055        3.0559130331
Mo            4.7250590028        6.3667388705        9.1794087797
S             3.1605503793        7.2827346662        7.6011983379
S             4.7268599259        6.3677705139        4.6233447154
S             4.7267945614        6.3677309684        1.4880686113
S             3.1488363144        7.2826471320       10.7474599292
Mo            1.5756394905       10.0065304219       -9.1672481230    0   0   0
Mo            3.1512330605        9.0968514907       -3.0554878870    0   0   0
S             1.5756499830       10.0065443759       -4.6232632674    0   0   0
S             3.1512596626        9.0968439439       -7.6014065489    0   0   0
S             3.1512601163        9.0968450728      -10.7330757790    0   0   0
S             1.5756503041       10.0065459699       -1.4877044377    0   0   0
Mo            1.5756745542       10.0065429280        3.0558700565
Mo            3.1550719479        9.0966303457        9.1717111445
S             1.5756779989       10.0041188219        7.6034409643
S             3.1512603817        9.0968378419        4.6235971815
S             3.1512785752        9.0967840465        1.4881410084
S             1.5756786569       10.0082546327       10.7381013319
Mo            9.4537312807        1.8193638619       -9.1672481230    0   0   0
Mo           11.0293863460        0.9096952246       -3.0554894007    0   0   0
S             9.4537395970        1.8193770750       -4.6232328036    0   0   0
S            11.0293514528        0.9096773839       -7.6014065489    0   0   0
S            11.0293519066        0.9096785128      -10.7330757790    0   0   0
S             9.4537393632        1.8193794783       -1.4877366147    0   0   0
Mo            9.4537493479        1.8193660532        3.0558713858
Mo           11.0314795203        0.9065503409        9.1717051063
S             9.4558733813        1.8206038794        7.6034370559
S            11.0293728648        0.9097157135        4.6236035371
S            11.0294300577        0.9097293722        1.4881412222
S             9.4522983333        1.8185391226       10.7380961880
Mo            7.8781139383        4.5484193819       -9.1672481230    0   0   0
Mo            9.4537539161        3.6387607911       -3.0554933032    0   0   0
S             7.8781175448        4.5484378232       -4.6232366318    0   0   0
S             9.4537341104        3.6387329039       -7.6014065489    0   0   0
S             9.4537345641        3.6387340328      -10.7330757790    0   0   0
S             7.8781194018        4.5484411585       -1.4877377057    0   0   0
Mo            7.8781403601        4.5484787438        3.0558624744
Mo            9.4520891168        3.6421463573        9.1717087117
S             7.8781566046        4.5497740629        7.6023687034
S             9.4537864128        3.6387233519        4.6236018041
S             9.4538267008        3.6387644253        1.4881384690
S             7.8781488156        4.5504668571       10.7416544300
Mo            6.3024965959        7.2774749019       -9.1672481230    0   0   0
Mo            7.8781361655        6.3678242352       -3.0555014130    0   0   0
S             6.3024973331        7.2774953556       -4.6232392528    0   0   0
S             7.8781167680        6.3677884239       -7.6014065489    0   0   0
S             7.8781172217        6.3677895528      -10.7330757790    0   0   0
S             6.3024989866        7.2774929744       -1.4877349119    0   0   0
Mo            6.3025021789        7.2774691684        3.0557218899
Mo            7.8781549230        6.3674625791        9.1715562704
S             6.2992906568        7.2756271129        7.6067009634
S             7.8781442826        6.3679325928        4.6236330012
S             7.8781437518        6.3677600065        1.4879889786
S             6.3045981794        7.2786893751       10.7424398788
Mo            4.7268792535       10.0065304219       -9.1672481230    0   0   0
Mo            6.3025111524        9.0968738021       -3.0554915260    0   0   0
S             4.7268840634       10.0065452125       -4.6232380477    0   0   0
S             6.3024994256        9.0968439439       -7.6014065489    0   0   0
S             6.3024998793        9.0968450728      -10.7330757790    0   0   0
S             4.7268847312       10.0065459141       -1.4877283294    0   0   0
Mo            4.7269573593       10.0065070147        3.0558653227
Mo            6.3022316604        9.0970446992        9.1715564286
S             4.7280651119       10.0058866341        7.6023721395
S             6.3026470610        9.0967806153        4.6236338528
S             6.3024977679        9.0968692473        1.4879913397
S             4.7286716928       10.0055433034       10.7416547559
Pt            1.5759012768        4.5481790369       12.7769309559
End final coordinates



     Writing all to output data dir ./outdir/pwscf.save/
 
     init_run     :    190.45s CPU    194.61s WALL (       1 calls)
     electrons    : 114946.81s CPU 116409.36s WALL (      13 calls)
     update_pot   :     65.62s CPU     66.60s WALL (      12 calls)
     forces       :   1671.16s CPU   1718.13s WALL (      13 calls)
     force_dftd3  :      9.67s CPU     10.37s WALL (      13 calls)

     Called by init_run:
     wfcinit      :    163.31s CPU    165.34s WALL (       1 calls)
     potinit      :      2.38s CPU      2.45s WALL (       1 calls)
     hinit0       :     15.97s CPU     15.99s WALL (       1 calls)

     Called by electrons:
     c_bands      : 101764.80s CPU 102452.47s WALL (     178 calls)
     sum_band     :  12047.52s CPU  12472.05s WALL (     178 calls)
     v_of_rho     :     90.38s CPU     92.56s WALL (     184 calls)
     newd         :    877.99s CPU   1246.52s WALL (     184 calls)
     PAW_pot      :    152.86s CPU    152.87s WALL (     196 calls)
     mix_rho      :     25.84s CPU     25.94s WALL (     178 calls)
     energy_dftd3 :      4.64s CPU      4.65s WALL (      13 calls)

     Called by c_bands:
     init_us_2    :    441.41s CPU    441.64s WALL (    1528 calls)
     init_us_2:cp :    441.41s CPU    441.63s WALL (    1528 calls)
     cegterg      : 100254.55s CPU 100917.67s WALL (     723 calls)

     Called by *egterg:
     cdiaghg      :   6393.34s CPU   6413.42s WALL (    9065 calls)
     h_psi        :  53427.13s CPU  53625.33s WALL (    9146 calls)
     s_psi        :  11049.33s CPU  11091.93s WALL (    9146 calls)
     g_psi        :     94.24s CPU     94.39s WALL (    8419 calls)

     Called by h_psi:
     h_psi:calbec :  11024.18s CPU  11026.23s WALL (    9146 calls)
     vloc_psi     :  31187.92s CPU  31248.98s WALL (    9146 calls)
     add_vuspsi   :  11107.22s CPU  11151.32s WALL (    9146 calls)

     General routines
     calbec       :  15789.89s CPU  15792.81s WALL (   10114 calls)
     fft          :     94.64s CPU     96.59s WALL (    2528 calls)
     ffts         :      4.56s CPU      4.65s WALL (     362 calls)
     fftw         :  26149.26s CPU  26191.32s WALL ( 4956790 calls)
     interpolate  :      9.54s CPU      9.58s WALL (     184 calls)
 
     Parallel routines
 
     PWSCF        :   1d 8h36m CPU   1d 9h 2m WALL

 
   This run was terminated on:  21:24: 5  16Dec2023            

=------------------------------------------------------------------------------=
   JOB DONE.
=------------------------------------------------------------------------------=
Application 11497449 resources: utime ~4226182s, stime ~55794s, Rss ~3550788, inblocks ~0, outblocks ~54981216
