
     Program PWSCF v.7.3 starts on 27Mar2024 at  9:23:26 

     This program is part of the open-source Quantum ESPRESSO suite
     for quantum simulation of materials; please cite
         "P. Giannozzi et al., J. Phys.:Condens. Matter 21 395502 (2009);
         "P. Giannozzi et al., J. Phys.:Condens. Matter 29 465901 (2017);
         "P. Giannozzi et al., J. Chem. Phys. 152 154105 (2020);
          URL http://www.quantum-espresso.org", 
     in publications or presentations arising from this work. More details at
     http://www.quantum-espresso.org/quote

     Parallel version (MPI & OpenMP), running on      36 processor cores
     Number of MPI processes:                36
     Threads/MPI process:                     1

     MPI processes distributed on     1 nodes
     560813 MiB available memory on the printing compute node when the environment starts
 
     Waiting for input...
     Reading input from standard input
Warning: card &CELL ignored
Warning: card / ignored

     Current dimensions of program PWSCF are:
     Max number of different atomic species (ntypx) = 10
     Max number of k-points (npk) =  40000
     Max angular momentum in pseudopotentials (lmaxx) =  4
     file Mo.pbe-spn-kjpaw_psl.1.0.0.UPF: wavefunction(s)  4S 4D renormalized
     file S.pbe-n-kjpaw_psl.1.0.0.UPF: wavefunction(s)  3S 3P renormalized
     file Pt.pbe-spfn-kjpaw_psl.1.0.0.UPF: wavefunction(s)  5P 4F renormalized
     file Pd.pbe-spn-kjpaw_psl.1.0.0.UPF: wavefunction(s)  4S 5S 4D renormalized
 
     R & G space division:  proc/nbgrp/npool/nimage =      36
     Subspace diagonalization in iterative solution of the eigenvalue problem:
     one sub-group per band group will be used
     scalapack distributed-memory algorithm (size of sub-group:  6*  6 procs)

 
     Parallelization info
     --------------------
     sticks:   dense  smooth     PW     G-vecs:    dense   smooth      PW
     Min         586     335     89               165416    71459    9765
     Max         587     337     90               165425    71461    9778
     Sum       21109   12085   3205              5955087  2572543  351657
 
     Using Slab Decomposition
 


     bravais-lattice index     =            0
     lattice parameter (alat)  =      23.8395  a.u.
     unit-cell volume          =   28182.8498 (a.u.)^3
     number of atoms/cell      =          147
     number of atomic types    =            4
     number of electrons       =      1330.00
     number of Kohn-Sham states=          798
     kinetic-energy cutoff     =      77.0000  Ry
     charge density cutoff     =     539.0000  Ry
     scf convergence threshold =      1.0E-06
     mixing beta               =       0.2000
     number of iterations used =            8  plain     mixing
     energy convergence thresh.=      1.0E-04
     force convergence thresh. =      1.0E-03
     Exchange-correlation= SLA  PW   PBX  PBC
                           (   1   4   3   4   0   0   0)
     nstep                     =         1000


     Effective Screening Medium Method
     =================================
     Boundary Conditions: Vacuum-Slab-Vacuum
     total charge in unit cell        =   0.0000
     grid points for fit at edges     =        4 
 

     celldm(1)=  23.839504  celldm(2)=   0.000000  celldm(3)=   0.000000
     celldm(4)=   0.000000  celldm(5)=   0.000000  celldm(6)=   0.000000

     crystal axes: (cart. coord. in units of alat)
               a(1) = (   1.000000   0.000000   0.000000 )  
               a(2) = (  -0.500001   0.866026   0.000000 )  
               a(3) = (   0.000000   0.000000   2.401941 )  

     reciprocal axes: (cart. coord. in units 2 pi/alat)
               b(1) = (  1.000000  0.577351  0.000000 )  
               b(2) = (  0.000000  1.154700  0.000000 )  
               b(3) = (  0.000000  0.000000  0.416330 )  


     PseudoPot. # 1 for Mo read from file:
     ./pseudo/Mo.pbe-spn-kjpaw_psl.1.0.0.UPF
     MD5 check sum: 317bf72632116215fd98f72de1686f13
     Pseudo is Projector augmented-wave + core cor, Zval = 14.0
     Generated using 'atomic' code by A. Dal Corso  v.7.2
     Shape of augmentation charge: PSQ
     Using radial grid of 1229 points,  6 beta functions with: 
                l(1) =   0
                l(2) =   0
                l(3) =   1
                l(4) =   1
                l(5) =   2
                l(6) =   2
     Q(r) pseudized with 0 coefficients 


     PseudoPot. # 2 for S  read from file:
     ./pseudo/S.pbe-n-kjpaw_psl.1.0.0.UPF
     MD5 check sum: 8b7b5302570d38d5e87fed6a1065abda
     Pseudo is Projector augmented-wave + core cor, Zval =  6.0
     Generated using 'atomic' code by A. Dal Corso  v.7.2
     Shape of augmentation charge: PSQ
     Using radial grid of 1151 points,  6 beta functions with: 
                l(1) =   0
                l(2) =   0
                l(3) =   1
                l(4) =   1
                l(5) =   2
                l(6) =   2
     Q(r) pseudized with 0 coefficients 


     PseudoPot. # 3 for Pt read from file:
     ./pseudo/Pt.pbe-spfn-kjpaw_psl.1.0.0.UPF
     MD5 check sum: 620096ebf4e6ebacc94de60fd67efcb5
     Pseudo is Projector augmented-wave + core cor, Zval = 32.0
     Generated using 'atomic' code by A. Dal Corso  v.7.2
     Shape of augmentation charge: PSQ
     Using radial grid of 1277 points,  8 beta functions with: 
                l(1) =   0
                l(2) =   0
                l(3) =   1
                l(4) =   1
                l(5) =   2
                l(6) =   2
                l(7) =   3
                l(8) =   3
     Q(r) pseudized with 0 coefficients 


     PseudoPot. # 4 for Pd read from file:
     ./pseudo/Pd.pbe-spn-kjpaw_psl.1.0.0.UPF
     MD5 check sum: a60571a671f2502b8a6a4569d20a6edb
     Pseudo is Projector augmented-wave + core cor, Zval = 18.0
     Generated using 'atomic' code by A. Dal Corso  v.7.2
     Shape of augmentation charge: PSQ
     Using radial grid of 1235 points,  6 beta functions with: 
                l(1) =   0
                l(2) =   0
                l(3) =   1
                l(4) =   1
                l(5) =   2
                l(6) =   2
     Q(r) pseudized with 0 coefficients 


     atomic species   valence    mass     pseudopotential
     Mo               14.00    95.95000     Mo( 1.00)
     S                 6.00    32.06000     S ( 1.00)
     Pt               32.00   195.08400     Pt( 1.00)
     Pd               18.00   106.42000     Pd( 1.00)

     No symmetry found



   Cartesian axes

     site n.     atom                  positions (alat units)
         1        Mo     tau(   1) = (   0.1245154   0.2145629   0.4838883  )
         2        Mo     tau(   2) = (   0.1250004   0.0721694  -0.4825273  )
         3        Mo     tau(   3) = (   0.0000425   0.1442456   0.0000619  )
         4        S      tau(   4) = (   0.0000004   0.0000006  -0.6064556  )
         5        S      tau(   5) = (   0.1250289   0.0721378  -0.1240905  )
         6        S      tau(   6) = (   0.0004348   0.1425943   0.3589312  )
         7        S      tau(   7) = (   0.0000004   0.0000005  -0.3584711  )
         8        S      tau(   8) = (   0.1250590   0.0720566   0.1242171  )
         9        S      tau(   9) = (  -0.0003812   0.1430770   0.6082257  )
        10        Mo     tau(  10) = (  -0.0007514   0.4316905   0.4830160  )
        11        Mo     tau(  11) = (   0.0000001   0.2886759  -0.4825273  )
        12        Mo     tau(  12) = (  -0.1249521   0.3607434   0.0000147  )
        13        S      tau(  13) = (  -0.1249999   0.2165071  -0.6064556  )
        14        S      tau(  14) = (   0.0000696   0.2885943  -0.1240368  )
        15        S      tau(  15) = (  -0.1243620   0.3589267   0.3580713  )
        16        S      tau(  16) = (  -0.1249998   0.2165070  -0.3584711  )
        17        S      tau(  17) = (   0.0000810   0.2885804   0.1243185  )
        18        S      tau(  18) = (  -0.1257647   0.3594678   0.6068568  )
        19        Mo     tau(  19) = (  -0.1258132   0.6483948   0.4805624  )
        20        Mo     tau(  20) = (  -0.1250002   0.5051824  -0.4825273  )
        21        Mo     tau(  21) = (  -0.2499883   0.5772682  -0.0000419  )
        22        S      tau(  22) = (  -0.2500002   0.4330136  -0.6064556  )
        23        S      tau(  23) = (  -0.1249379   0.5050979  -0.1240947  )
        24        S      tau(  24) = (  -0.2506625   0.5759186   0.3568926  )
        25        S      tau(  25) = (  -0.2500001   0.4330135  -0.3584711  )
        26        S      tau(  26) = (  -0.1250441   0.5050577   0.1241569  )
        27        S      tau(  27) = (  -0.2487337   0.5760113   0.6060824  )
        28        Mo     tau(  28) = (   0.2499313  -0.0010413   0.4821860  )
        29        Mo     tau(  29) = (  -0.2500004   0.7216889  -0.4825273  )
        30        Mo     tau(  30) = (  -0.3749657   0.7937917  -0.0000260  )
        31        S      tau(  31) = (  -0.3750004   0.6495201  -0.6064556  )
        32        S      tau(  32) = (  -0.2499441   0.7216334  -0.1241298  )
        33        S      tau(  33) = (  -0.3753987   0.7929794   0.3583883  )
        34        S      tau(  34) = (  -0.3750004   0.6495200  -0.3584711  )
        35        S      tau(  35) = (  -0.2499697   0.7216106   0.1241587  )
        36        S      tau(  36) = (  -0.3740548   0.7924718   0.6070428  )
        37        Mo     tau(  37) = (   0.3754903   0.2138312   0.4824355  )
        38        Mo     tau(  38) = (   0.3750004   0.0721694  -0.4825273  )
        39        Mo     tau(  39) = (   0.2500190   0.1443049   0.0000251  )
        40        S      tau(  40) = (   0.2500004   0.0000006  -0.6064556  )
        41        S      tau(  41) = (   0.3750395   0.0721655  -0.1240658  )
        42        S      tau(  42) = (   0.2492498   0.1434297   0.3583124  )
        43        S      tau(  43) = (   0.2500004   0.0000005  -0.3584711  )
        44        S      tau(  44) = (   0.3749990   0.0721134   0.1242290  )
        45        S      tau(  45) = (   0.2505186   0.1425747   0.6070242  )
        46        Mo     tau(  46) = (   0.2489619   0.4303408   0.4857216  )
        47        Mo     tau(  47) = (   0.2500001   0.2886759  -0.4825273  )
        48        Mo     tau(  48) = (   0.1250526   0.3607813   0.0000840  )
        49        S      tau(  49) = (   0.1250001   0.2165071  -0.6064556  )
        50        S      tau(  50) = (   0.2500419   0.2886606  -0.1240379  )
        51        S      tau(  51) = (   0.1261759   0.3597087   0.3613462  )
        52        S      tau(  52) = (   0.1250002   0.2165070  -0.3584711  )
        53        S      tau(  53) = (   0.2500376   0.2886120   0.1243390  )
        54        S      tau(  54) = (   0.1185564   0.3555008   0.6138384  )
        55        Mo     tau(  55) = (   0.1202279   0.6507949   0.4802728  )
        56        Mo     tau(  56) = (   0.1249998   0.5051824  -0.4825273  )
        57        Mo     tau(  57) = (   0.0000374   0.5772595   0.0000671  )
        58        S      tau(  58) = (  -0.0000002   0.4330136  -0.6064556  )
        59        S      tau(  59) = (   0.1250566   0.5051315  -0.1240039  )
        60        S      tau(  60) = (  -0.0017492   0.5751181   0.3561394  )
        61        S      tau(  61) = (  -0.0000001   0.4330135  -0.3584711  )
        62        S      tau(  62) = (   0.1250592   0.5050887   0.1243806  )
        63        S      tau(  63) = (  -0.0025886   0.5770810   0.6054654  )
        64        Mo     tau(  64) = (   0.4997787  -0.0005006   0.4806072  )
        65        Mo     tau(  65) = (  -0.0000004   0.7216889  -0.4825273  )
        66        Mo     tau(  66) = (  -0.1249578   0.7938077  -0.0000124  )
        67        S      tau(  67) = (  -0.1250004   0.6495201  -0.6064556  )
        68        S      tau(  68) = (   0.0000912   0.7216231  -0.1240278  )
        69        S      tau(  69) = (  -0.1257861   0.7933803   0.3568273  )
        70        S      tau(  70) = (  -0.1250004   0.6495200  -0.3584711  )
        71        S      tau(  71) = (  -0.0000101   0.7216131   0.1242707  )
        72        S      tau(  72) = (  -0.1247631   0.7926968   0.6053221  )
        73        Mo     tau(  73) = (   0.6254983   0.2150747   0.4816248  )
        74        Mo     tau(  74) = (   0.6250004   0.0721694  -0.4825273  )
        75        Mo     tau(  75) = (   0.5000176   0.1443256   0.0000522  )
        76        S      tau(  76) = (   0.5000004   0.0000006  -0.6064556  )
        77        S      tau(  77) = (   0.6250309   0.0721123  -0.1240107  )
        78        S      tau(  78) = (   0.5001073   0.1438670   0.3568675  )
        79        S      tau(  79) = (   0.5000004   0.0000005  -0.3584711  )
        80        S      tau(  80) = (   0.6250184   0.0721649   0.1242372  )
        81        S      tau(  81) = (   0.5008579   0.1421657   0.6061011  )
        82        Mo     tau(  82) = (   0.5020927   0.4305259   0.4835992  )
        83        Mo     tau(  83) = (   0.5000001   0.2886759  -0.4825273  )
        84        Mo     tau(  84) = (   0.3750096   0.3608300   0.0000853  )
        85        S      tau(  85) = (   0.3750001   0.2165071  -0.6064556  )
        86        S      tau(  86) = (   0.5000130   0.2886647  -0.1240153  )
        87        S      tau(  87) = (   0.3740918   0.3603366   0.3614179  )
        88        S      tau(  88) = (   0.3750002   0.2165070  -0.3584711  )
        89        S      tau(  89) = (   0.4999600   0.2886676   0.1243287  )
        90        S      tau(  90) = (   0.3826295   0.3540684   0.6107884  )
        91        Mo     tau(  91) = (   0.3754347   0.6495598   0.4856131  )
        92        Mo     tau(  92) = (   0.3749998   0.5051824  -0.4825273  )
        93        Mo     tau(  93) = (   0.2500442   0.5772815   0.0001210  )
        94        S      tau(  94) = (   0.2499998   0.4330136  -0.6064556  )
        95        S      tau(  95) = (   0.3750010   0.5051487  -0.1240235  )
        96        S      tau(  96) = (   0.2505704   0.5754266   0.3628441  )
        97        S      tau(  97) = (   0.2499999   0.4330135  -0.3584711  )
        98        S      tau(  98) = (   0.3750559   0.5051422   0.1243805  )
        99        S      tau(  99) = (   0.2381374   0.5825819   0.6067890  )
       100        Mo     tau( 100) = (   0.7497549  -0.0007739   0.4829754  )
       101        Mo     tau( 101) = (   0.2499996   0.7216889  -0.4825273  )
       102        Mo     tau( 102) = (   0.1250535   0.7937975   0.0001168  )
       103        S      tau( 103) = (   0.1249996   0.6495201  -0.6064556  )
       104        S      tau( 104) = (   0.2500248   0.7216238  -0.1239807  )
       105        S      tau( 105) = (   0.1250865   0.7943282   0.3561776  )
       106        S      tau( 106) = (   0.1249996   0.6495200  -0.3584711  )
       107        S      tau( 107) = (   0.2500804   0.7215701   0.1244010  )
       108        S      tau( 108) = (   0.1230625   0.7940424   0.6054764  )
       109        Mo     tau( 109) = (  -0.1247968   0.2149139   0.4827366  )
       110        Mo     tau( 110) = (   0.8750004   0.0721694  -0.4825273  )
       111        Mo     tau( 111) = (   0.7500535   0.1442576   0.0000659  )
       112        S      tau( 112) = (   0.7500004   0.0000006  -0.6064556  )
       113        S      tau( 113) = (   0.8750311   0.0720720  -0.1240212  )
       114        S      tau( 114) = (   0.7507437   0.1426622   0.3580001  )
       115        S      tau( 115) = (   0.7500004   0.0000005  -0.3584711  )
       116        S      tau( 116) = (   0.8750679   0.0720215   0.1243391  )
       117        S      tau( 117) = (   0.7495917   0.1435798   0.6069484  )
       118        Mo     tau( 118) = (  -0.2495513   0.4315827   0.4815648  )
       119        Mo     tau( 119) = (   0.7500001   0.2886759  -0.4825273  )
       120        Mo     tau( 120) = (   0.6250173   0.3607849   0.0000853  )
       121        S      tau( 121) = (   0.6250001   0.2165071  -0.6064556  )
       122        S      tau( 122) = (   0.7500100   0.2885948  -0.1240341  )
       123        S      tau( 123) = (   0.6253146   0.3594994   0.3574324  )
       124        S      tau( 124) = (   0.6250002   0.2165070  -0.3584711  )
       125        S      tau( 125) = (   0.7500616   0.2885920   0.1242759  )
       126        S      tau( 126) = (   0.6276913   0.3582815   0.6066892  )
       127        Mo     tau( 127) = (  -0.3734392   0.6486538   0.4825126  )
       128        Mo     tau( 128) = (   0.6249998   0.5051824  -0.4825273  )
       129        Mo     tau( 129) = (   0.5000108   0.5772931   0.0000391  )
       130        S      tau( 130) = (   0.4999998   0.4330136  -0.6064556  )
       131        S      tau( 131) = (   0.6249933   0.5050874  -0.1240675  )
       132        S      tau( 132) = (   0.4990505   0.5765481   0.3615193  )
       133        S      tau( 133) = (   0.4999999   0.4330135  -0.3584711  )
       134        S      tau( 134) = (   0.6249857   0.5051595   0.1242674  )
       135        S      tau( 135) = (   0.5084858   0.5722242   0.6106609  )
       136        Mo     tau( 136) = (   0.0003958  -0.0008070   0.4838665  )
       137        Mo     tau( 137) = (   0.4999996   0.7216889  -0.4825273  )
       138        Mo     tau( 138) = (   0.3750498   0.7937581   0.0000905  )
       139        S      tau( 139) = (   0.3749996   0.6495201  -0.6064556  )
       140        S      tau( 140) = (   0.5000109   0.7216246  -0.1240696  )
       141        S      tau( 141) = (   0.3755073   0.7912798   0.3612018  )
       142        S      tau( 142) = (   0.3749996   0.6495200  -0.3584711  )
       143        S      tau( 143) = (   0.5000873   0.7215932   0.1243026  )
       144        S      tau( 144) = (   0.3753273   0.8000111   0.6138078  )
       145        Pt     tau( 145) = (   0.2576892   0.4411371   0.7122167  )
       146        Pt     tau( 146) = (   0.3705587   0.6371970   0.7119237  )
       147        Pd     tau( 147) = (   0.3141418   0.5391460   0.8786934  )

     --------------------------------------------
     DFT-D3 Dispersion Correction (3-body terms):
     --------------------------------------------
       Reference C6 values for interpolation: 

         atom   Coordination number   C6
         S          0.000           268.01
         S          0.995           261.99
         S          1.990           251.62
         Mo         0.000          1691.79
         Mo         1.942          1004.01
         Mo        11.056           674.22
         Pd         0.000          1217.01
         Pd         1.863           573.90
         Pd         5.710           531.75
         Pt         0.000           782.29
         Pt         1.919           692.72
         Pt         6.667           673.75

       Values used:

         atom   Coordination number  R0_AB[au]  C6      C8
         Mo        10.221            3.547    674.22  77634.20
         Mo        10.189            3.547    674.22  77634.20
         Mo        10.201            3.547    674.22  77634.20
         S          3.753            3.128    251.62  12327.25
         S          3.858            3.128    251.62  12327.25
         S          3.859            3.128    251.62  12327.25
         S          3.858            3.128    251.62  12327.25
         S          3.859            3.128    251.62  12327.25
         S          3.815            3.128    251.62  12327.25
         Mo        10.208            3.547    674.22  77634.20
         Mo        10.189            3.547    674.22  77634.20
         Mo        10.200            3.547    674.22  77634.20
         S          3.753            3.128    251.62  12327.25
         S          3.858            3.128    251.62  12327.25
         S          3.858            3.128    251.62  12327.25
         S          3.858            3.128    251.62  12327.25
         S          3.854            3.128    251.62  12327.25
         S          3.807            3.128    251.62  12327.25
         Mo        10.273            3.547    674.22  77634.20
         Mo        10.189            3.547    674.22  77634.20
         Mo        10.200            3.547    674.22  77634.20
         S          3.753            3.128    251.62  12327.25
         S          3.858            3.128    251.62  12327.25
         S          3.855            3.128    251.62  12327.25
         S          3.858            3.128    251.62  12327.25
         S          3.864            3.128    251.62  12327.25
         S          3.819            3.128    251.62  12327.25
         Mo        10.240            3.547    674.22  77634.20
         Mo        10.189            3.547    674.22  77634.20
         Mo        10.201            3.547    674.22  77634.20
         S          3.753            3.128    251.62  12327.25
         S          3.857            3.128    251.62  12327.25
         S          3.867            3.128    251.62  12327.25
         S          3.858            3.128    251.62  12327.25
         S          3.862            3.128    251.62  12327.25
         S          3.762            3.128    251.62  12327.25
         Mo        10.206            3.547    674.22  77634.20
         Mo        10.189            3.547    674.22  77634.20
         Mo        10.201            3.547    674.22  77634.20
         S          3.753            3.128    251.62  12327.25
         S          3.858            3.128    251.62  12327.25
         S          3.865            3.128    251.62  12327.25
         S          3.858            3.128    251.62  12327.25
         S          3.862            3.128    251.62  12327.25
         S          3.762            3.128    251.62  12327.25
         Mo        10.822            3.547    674.22  77634.20
         Mo        10.189            3.547    674.22  77634.20
         Mo        10.202            3.547    674.22  77634.20
         S          3.753            3.128    251.62  12327.25
         S          3.858            3.128    251.62  12327.25
         S          3.845            3.128    251.62  12327.25
         S          3.858            3.128    251.62  12327.25
         S          3.853            3.128    251.62  12327.25
         S          4.627            3.128    251.62  12327.25
         Mo        10.153            3.547    674.22  77634.20
         Mo        10.189            3.547    674.22  77634.20
         Mo        10.200            3.547    674.22  77634.20
         S          3.753            3.128    251.62  12327.25
         S          3.858            3.128    251.62  12327.25
         S          3.837            3.128    251.62  12327.25
         S          3.858            3.128    251.62  12327.25
         S          3.851            3.128    251.62  12327.25
         S          3.837            3.128    251.62  12327.25
         Mo        10.271            3.547    674.22  77634.20
         Mo        10.189            3.547    674.22  77634.20
         Mo        10.199            3.547    674.22  77634.20
         S          3.753            3.128    251.62  12327.25
         S          3.858            3.128    251.62  12327.25
         S          3.856            3.128    251.62  12327.25
         S          3.858            3.128    251.62  12327.25
         S          3.862            3.128    251.62  12327.25
         S          3.791            3.128    251.62  12327.25
         Mo        10.245            3.547    674.22  77634.20
         Mo        10.189            3.547    674.22  77634.20
         Mo        10.200            3.547    674.22  77634.20
         S          3.753            3.128    251.62  12327.25
         S          3.858            3.128    251.62  12327.25
         S          3.854            3.128    251.62  12327.25
         S          3.858            3.128    251.62  12327.25
         S          3.863            3.128    251.62  12327.25
         S          3.817            3.128    251.62  12327.25
         Mo        10.140            3.547    674.22  77634.20
         Mo        10.189            3.547    674.22  77634.20
         Mo        10.202            3.547    674.22  77634.20
         S          3.753            3.128    251.62  12327.25
         S          3.858            3.128    251.62  12327.25
         S          3.856            3.128    251.62  12327.25
         S          3.858            3.128    251.62  12327.25
         S          3.857            3.128    251.62  12327.25
         S          4.675            3.128    251.62  12327.25
         Mo        10.820            3.547    674.22  77634.20
         Mo        10.189            3.547    674.22  77634.20
         Mo        10.202            3.547    674.22  77634.20
         S          3.753            3.128    251.62  12327.25
         S          3.858            3.128    251.62  12327.25
         S          3.873            3.128    251.62  12327.25
         S          3.858            3.128    251.62  12327.25
         S          3.848            3.128    251.62  12327.25
         S          5.700            3.128    251.62  12327.25
         Mo        10.209            3.547    674.22  77634.20
         Mo        10.189            3.547    674.22  77634.20
         Mo        10.200            3.547    674.22  77634.20
         S          3.753            3.128    251.62  12327.25
         S          3.858            3.128    251.62  12327.25
         S          3.837            3.128    251.62  12327.25
         S          3.858            3.128    251.62  12327.25
         S          3.851            3.128    251.62  12327.25
         S          3.837            3.128    251.62  12327.25
         Mo        10.229            3.547    674.22  77634.20
         Mo        10.189            3.547    674.22  77634.20
         Mo        10.200            3.547    674.22  77634.20
         S          3.753            3.128    251.62  12327.25
         S          3.858            3.128    251.62  12327.25
         S          3.858            3.128    251.62  12327.25
         S          3.858            3.128    251.62  12327.25
         S          3.854            3.128    251.62  12327.25
         S          3.806            3.128    251.62  12327.25
         Mo        10.244            3.547    674.22  77634.20
         Mo        10.189            3.547    674.22  77634.20
         Mo        10.201            3.547    674.22  77634.20
         S          3.753            3.128    251.62  12327.25
         S          3.858            3.128    251.62  12327.25
         S          3.846            3.128    251.62  12327.25
         S          3.858            3.128    251.62  12327.25
         S          3.859            3.128    251.62  12327.25
         S          3.836            3.128    251.62  12327.25
         Mo        10.204            3.547    674.22  77634.20
         Mo        10.189            3.547    674.22  77634.20
         Mo        10.202            3.547    674.22  77634.20
         S          3.753            3.128    251.62  12327.25
         S          3.858            3.128    251.62  12327.25
         S          3.857            3.128    251.62  12327.25
         S          3.858            3.128    251.62  12327.25
         S          3.858            3.128    251.62  12327.25
         S          4.676            3.128    251.62  12327.25
         Mo        10.221            3.547    674.22  77634.20
         Mo        10.189            3.547    674.22  77634.20
         Mo        10.202            3.547    674.22  77634.20
         S          3.753            3.128    251.62  12327.25
         S          3.858            3.128    251.62  12327.25
         S          3.843            3.128    251.62  12327.25
         S          3.858            3.128    251.62  12327.25
         S          3.853            3.128    251.62  12327.25
         S          4.628            3.128    251.62  12327.25
         Pt         5.494            3.168    673.75  70061.90
         Pt         5.498            3.168    673.75  70061.90
         Pd         1.897            3.168    573.90  52583.11

         Molecular C6 ( Ry / a.u.^6 ) =   8082342.13


     number of k points=     4  Gaussian smearing, width (Ry)=  0.0100
                       cart. coord. in units 2pi/alat
        k(    1) = (   0.0000000   0.0000000   0.0000000), wk =   0.5000000
        k(    2) = (   0.0000000  -0.5773499   0.0000000), wk =   0.5000000
        k(    3) = (  -0.5000000  -0.2886755   0.0000000), wk =   0.5000000
        k(    4) = (  -0.5000000  -0.8660254   0.0000000), wk =   0.5000000

     Dense  grid:  5955087 G-vectors     FFT dimensions: ( 180, 180, 432)

     Smooth grid:  2572543 G-vectors     FFT dimensions: ( 135, 135, 320)

     Estimated max dynamical RAM per process >       3.09 GB

     Estimated total dynamical RAM >     111.14 GB

     Initial potential from superposition of free atoms

     starting charge    1329.9539, renormalised to    1330.0000

     negative rho (up, down):  8.446E-04 0.000E+00
     Starting wfcs are  908 randomized atomic wfcs
     Checking if some PAW data can be deallocated... 

     total cpu time spent up to now is      102.8 secs

     Self-consistent Calculation

     iteration #  1     ecut=    77.00 Ry     beta= 0.20
     Davidson diagonalization with overlap
     ethr =  1.00E-02,  avg # of iterations =  2.0

     Threshold (ethr) on eigenvalues was too large:
     Diagonalizing with lowered threshold

     Davidson diagonalization with overlap
     ethr =  1.93E-04,  avg # of iterations = 17.2

     negative rho (up, down):  2.845E-04 0.000E+00

     total cpu time spent up to now is     1143.6 secs

     total energy              =  -27706.38627342 Ry
     estimated scf accuracy    <       5.01216005 Ry

     iteration #  2     ecut=    77.00 Ry     beta= 0.20
     Davidson diagonalization with overlap
     ethr =  3.77E-04,  avg # of iterations =  6.0

     negative rho (up, down):  5.512E-05 0.000E+00

     total cpu time spent up to now is     1382.2 secs

     total energy              =  -27705.55407475 Ry
     estimated scf accuracy    <       2.46792058 Ry

     iteration #  3     ecut=    77.00 Ry     beta= 0.20
     Davidson diagonalization with overlap
     ethr =  1.86E-04,  avg # of iterations = 14.0

     negative rho (up, down):  5.225E-05 0.000E+00

     total cpu time spent up to now is     1654.0 secs

     total energy              =  -27705.70976449 Ry
     estimated scf accuracy    <       1.83646103 Ry

     iteration #  4     ecut=    77.00 Ry     beta= 0.20
     Davidson diagonalization with overlap
     ethr =  1.38E-04,  avg # of iterations =  8.5

     negative rho (up, down):  2.910E-05 0.000E+00

     total cpu time spent up to now is     1897.0 secs

     total energy              =  -27705.72939323 Ry
     estimated scf accuracy    <       0.66900951 Ry

     iteration #  5     ecut=    77.00 Ry     beta= 0.20
     Davidson diagonalization with overlap
     ethr =  5.03E-05,  avg # of iterations = 13.2

     negative rho (up, down):  3.932E-05 0.000E+00

     total cpu time spent up to now is     2575.0 secs

     total energy              =  -27706.36914374 Ry
     estimated scf accuracy    <       0.57895716 Ry

     iteration #  6     ecut=    77.00 Ry     beta= 0.20
     Davidson diagonalization with overlap
     ethr =  4.35E-05,  avg # of iterations =  2.0

     negative rho (up, down):  6.349E-05 0.000E+00

     total cpu time spent up to now is     2802.9 secs

     total energy              =  -27706.37086458 Ry
     estimated scf accuracy    <       0.30879049 Ry

     iteration #  7     ecut=    77.00 Ry     beta= 0.20
     Davidson diagonalization with overlap
     ethr =  2.32E-05,  avg # of iterations =  3.5

     negative rho (up, down):  1.776E-04 0.000E+00

     total cpu time spent up to now is     3035.8 secs

     total energy              =  -27706.31821520 Ry
     estimated scf accuracy    <       0.18112711 Ry

     iteration #  8     ecut=    77.00 Ry     beta= 0.20
     Davidson diagonalization with overlap
     c_bands:  3 eigenvalues not converged
     ethr =  1.36E-05,  avg # of iterations = 19.2

     negative rho (up, down):  2.129E-04 0.000E+00

     total cpu time spent up to now is     3430.3 secs

     total energy              =  -27706.37455465 Ry
     estimated scf accuracy    <       2.04404626 Ry

     iteration #  9     ecut=    77.00 Ry     beta= 0.20
     Davidson diagonalization with overlap
     ethr =  1.36E-05,  avg # of iterations = 11.2

     negative rho (up, down):  2.663E-04 0.000E+00

     total cpu time spent up to now is     3726.2 secs

     total energy              =  -27706.41363197 Ry
     estimated scf accuracy    <       0.09497101 Ry

     iteration # 10     ecut=    77.00 Ry     beta= 0.20
     Davidson diagonalization with overlap
     c_bands:  3 eigenvalues not converged
     c_bands:  4 eigenvalues not converged
     ethr =  7.14E-06,  avg # of iterations = 28.5

     negative rho (up, down):  2.858E-04 0.000E+00

     total cpu time spent up to now is     4188.7 secs

     total energy              =  -27706.42857645 Ry
     estimated scf accuracy    <       0.01095729 Ry

     iteration # 11     ecut=    77.00 Ry     beta= 0.20
     Davidson diagonalization with overlap
     c_bands:  4 eigenvalues not converged
     c_bands:  1 eigenvalues not converged
     c_bands:  3 eigenvalues not converged
     c_bands:  3 eigenvalues not converged
     ethr =  8.24E-07,  avg # of iterations = 50.0

     negative rho (up, down):  3.340E-04 0.000E+00

     total cpu time spent up to now is     5687.5 secs

     total energy              =  -27706.46076801 Ry
     estimated scf accuracy    <       0.02213664 Ry

     iteration # 12     ecut=    77.00 Ry     beta= 0.20
     Davidson diagonalization with overlap
     ethr =  8.24E-07,  avg # of iterations =  2.5

     negative rho (up, down):  4.442E-04 0.000E+00

     total cpu time spent up to now is     5914.7 secs

     total energy              =  -27706.45714686 Ry
     estimated scf accuracy    <       0.01543795 Ry

     iteration # 13     ecut=    77.00 Ry     beta= 0.20
     Davidson diagonalization with overlap
     ethr =  8.24E-07,  avg # of iterations =  3.5

     negative rho (up, down):  7.053E-04 0.000E+00

     total cpu time spent up to now is     6145.3 secs

     total energy              =  -27706.45557493 Ry
     estimated scf accuracy    <       0.00556142 Ry

     iteration # 14     ecut=    77.00 Ry     beta= 0.20
     Davidson diagonalization with overlap
     ethr =  4.18E-07,  avg # of iterations = 11.2

     negative rho (up, down):  6.445E-04 0.000E+00

     total cpu time spent up to now is     6531.4 secs

     total energy              =  -27706.45886763 Ry
     estimated scf accuracy    <       0.00301826 Ry

     iteration # 15     ecut=    77.00 Ry     beta= 0.20
     Davidson diagonalization with overlap
     ethr =  2.27E-07,  avg # of iterations =  5.5

     negative rho (up, down):  6.723E-04 0.000E+00

     total cpu time spent up to now is     6766.9 secs

     total energy              =  -27706.45865222 Ry
     estimated scf accuracy    <       0.00202885 Ry

     iteration # 16     ecut=    77.00 Ry     beta= 0.20
     Davidson diagonalization with overlap
     ethr =  1.53E-07,  avg # of iterations =  6.5

     negative rho (up, down):  8.082E-04 0.000E+00

     total cpu time spent up to now is     7016.8 secs

     total energy              =  -27706.45872362 Ry
     estimated scf accuracy    <       0.00114875 Ry

     iteration # 17     ecut=    77.00 Ry     beta= 0.20
     Davidson diagonalization with overlap
     ethr =  8.64E-08,  avg # of iterations = 12.8

     negative rho (up, down):  8.795E-04 0.000E+00

     total cpu time spent up to now is     7501.6 secs

     total energy              =  -27706.45901286 Ry
     estimated scf accuracy    <       0.00252430 Ry

     iteration # 18     ecut=    77.00 Ry     beta= 0.20
     Davidson diagonalization with overlap
     ethr =  8.64E-08,  avg # of iterations =  9.0

     negative rho (up, down):  8.533E-04 0.000E+00

     total cpu time spent up to now is     7760.4 secs

     total energy              =  -27706.45908038 Ry
     estimated scf accuracy    <       0.00050301 Ry

     iteration # 19     ecut=    77.00 Ry     beta= 0.20
     Davidson diagonalization with overlap
     ethr =  3.78E-08,  avg # of iterations = 15.0

     negative rho (up, down):  8.610E-04 0.000E+00

     total cpu time spent up to now is     8136.6 secs

     total energy              =  -27706.45925624 Ry
     estimated scf accuracy    <       0.00012045 Ry

     iteration # 20     ecut=    77.00 Ry     beta= 0.20
     Davidson diagonalization with overlap
     c_bands:  2 eigenvalues not converged
     ethr =  9.06E-09,  avg # of iterations = 18.0

     negative rho (up, down):  8.758E-04 0.000E+00

     total cpu time spent up to now is     8800.8 secs

     total energy              =  -27706.45948892 Ry
     estimated scf accuracy    <       0.00005324 Ry

     iteration # 21     ecut=    77.00 Ry     beta= 0.20
     Davidson diagonalization with overlap
     ethr =  4.00E-09,  avg # of iterations = 15.2

     negative rho (up, down):  8.801E-04 0.000E+00

     total cpu time spent up to now is     9276.6 secs

     total energy              =  -27706.45947157 Ry
     estimated scf accuracy    <       0.00007510 Ry

     iteration # 22     ecut=    77.00 Ry     beta= 0.20
     Davidson diagonalization with overlap
     ethr =  4.00E-09,  avg # of iterations =  6.8

     negative rho (up, down):  8.865E-04 0.000E+00

     total cpu time spent up to now is     9550.9 secs

     total energy              =  -27706.45948613 Ry
     estimated scf accuracy    <       0.00000386 Ry

     iteration # 23     ecut=    77.00 Ry     beta= 0.20
     Davidson diagonalization with overlap
     ethr =  2.90E-10,  avg # of iterations = 26.8

     negative rho (up, down):  8.886E-04 0.000E+00

     total cpu time spent up to now is    11197.1 secs

     total energy              =  -27706.45948285 Ry
     estimated scf accuracy    <       0.00011786 Ry

     iteration # 24     ecut=    77.00 Ry     beta= 0.20
     Davidson diagonalization with overlap
     ethr =  2.90E-10,  avg # of iterations = 11.5

     negative rho (up, down):  8.902E-04 0.000E+00

     total cpu time spent up to now is    11753.8 secs

     total energy              =  -27706.45948746 Ry
     estimated scf accuracy    <       0.00001511 Ry

     iteration # 25     ecut=    77.00 Ry     beta= 0.20
     Davidson diagonalization with overlap
     ethr =  2.90E-10,  avg # of iterations = 12.0

     negative rho (up, down):  8.954E-04 0.000E+00

     total cpu time spent up to now is    12239.3 secs

     End of self-consistent calculation

          k = 0.0000 0.0000 0.0000 (321495 PWs)   bands (ev):

  -103.2301-103.2262 -87.4356 -71.6247 -71.6237 -71.6207 -71.6200 -71.5661
   -71.5650 -71.5166 -71.5156 -71.4925 -71.4912 -71.4906 -71.4898 -71.4766
   -71.4755 -66.7012 -66.6802 -66.6802 -66.6802 -66.6801 -66.6801 -66.6801
   -66.6590 -66.6590 -66.6590 -66.6590 -66.6590 -66.6590 -66.6589 -66.6589
   -66.6589 -66.6357 -66.6169 -66.6152 -66.6150 -66.6149 -66.6144 -66.6142
   -66.6141 -66.5941 -66.5941 -66.5939 -66.5937 -66.5936 -66.5934 -66.5930
   -66.5929 -66.5922 -66.5700 -66.5589 -66.5572 -66.5469 -66.5427 -66.5390
   -66.5235 -66.5223 -66.5159 -66.5068 -66.5012 -66.4981 -66.4960 -66.4914
   -66.4832 -57.5525 -57.5124 -57.5101 -57.4651 -57.2463 -57.2132 -53.4365
   -53.3262 -52.8859 -41.0276 -41.0276 -41.0276 -40.9611 -40.9609 -40.9607
   -40.9529 -40.9528 -40.9528 -40.9528 -40.9528 -40.9528 -40.9000 -40.8992
   -40.8865 -40.8864 -40.8862 -40.8861 -40.8860 -40.8859 -40.8857 -40.8614
   -40.8361 -40.8298 -40.8273 -40.8273 -40.8273 -40.8273 -40.8273 -40.8272
   -40.8200 -40.8200 -40.8199 -40.8199 -40.8199 -40.8199 -40.8093 -40.8092
   -40.7963 -40.7937 -40.7924 -40.7924 -40.7924 -40.7924 -40.7924 -40.7924
   -40.7856 -40.7783 -40.7783 -40.7783 -40.7783 -40.7782 -40.7782 -40.7782
   -40.7782 -40.7782 -40.7781 -40.7610 -40.7609 -40.7609 -40.7605 -40.7605
   -40.7604 -40.7555 -40.7553 -40.7552 -40.7547 -40.7545 -40.7545 -40.7329
   -40.7262 -40.7262 -40.7260 -40.7258 -40.7257 -40.7256 -40.7188 -40.7146
   -40.7146 -40.7146 -40.7140 -40.7138 -40.7137 -40.7137 -40.7135 -40.7133
   -40.7129 -40.7128 -40.7122 -40.7106 -40.7085 -40.7006 -40.7002 -40.6902
   -40.6867 -40.6839 -40.6794 -40.6751 -40.6728 -40.6701 -40.6678 -40.6678
   -40.6678 -40.6678 -40.6678 -40.6678 -40.6674 -40.6604 -40.6569 -40.6565
   -40.6552 -40.6506 -40.6483 -40.6482 -40.6481 -40.6474 -40.6458 -40.6401
   -40.6341 -40.6317 -40.6240 -40.6205 -40.6205 -40.6205 -40.6155 -40.6018
   -40.6017 -40.6017 -40.6012 -40.6011 -40.6010 -40.5815 -40.5634 -40.5611
   -40.5542 -40.5541 -40.5305 -40.5270 -40.5155 -40.5101 -40.5096 -40.5014
   -40.4680 -40.4496 -20.3094 -20.1222 -19.9674 -19.7557 -19.3073 -19.2994
   -19.2692 -19.2681 -19.2660 -19.2601 -19.2462 -19.2435 -19.1778 -19.1750
   -19.1544 -19.1184 -19.1006 -19.0986 -19.0658 -19.0650 -19.0307 -18.8951
   -18.7962 -18.7291 -18.5614 -18.5591 -18.5305 -18.5268 -18.4810 -18.4702
   -18.4512 -18.4306 -18.4041 -18.4014 -18.3649 -18.3200 -18.2963 -18.2942
   -18.2382 -18.2311 -18.2205 -18.1830 -18.1791 -18.1730 -18.1609 -18.1607
   -18.1603 -18.1603 -18.1599 -18.1598 -18.1204 -18.1202 -18.1201 -18.0962
   -18.0904 -18.0844 -18.0808 -18.0778 -18.0753 -18.0702 -18.0504 -18.0481
   -18.0456 -18.0326 -18.0068 -18.0011 -17.9912 -17.9874 -17.9768 -17.9667
   -17.9633 -17.9622 -17.9565 -17.9430 -17.9388 -17.9357 -17.9333 -17.9326
   -17.9119 -17.9049 -17.9011 -17.8928 -17.8807 -17.8691 -17.8687 -17.8647
   -17.8638 -17.8435 -17.8378 -17.8336 -17.8187 -17.8038 -17.7963 -17.7876
   -17.7820 -17.7810 -12.4194 -12.3182 -11.9613 -11.9026 -11.7932 -11.7749
   -11.7726 -11.7685 -11.6926 -11.6878 -11.6868 -11.5267 -11.4953 -11.3937
   -11.3225 -11.2858 -11.2357 -11.2300 -11.2236 -11.2234 -11.2067 -11.1965
   -11.1600 -11.1539 -11.1497 -11.1462 -11.1439 -11.1413 -11.1260 -11.1212
   -11.0643 -11.0275 -11.0195 -11.0156 -11.0105 -11.0023 -11.0017 -10.9691
   -10.9539 -10.9385 -10.9382 -10.9355 -10.9145 -10.9073 -10.9012 -10.9008
   -10.8770 -10.8603 -10.8584 -10.8522 -10.8520 -10.8512 -10.8496 -10.8441
   -10.8426 -10.8235 -10.8230 -10.8219 -10.8073 -10.8065 -10.8043 -10.8017
   -10.7983 -10.7961 -10.7608 -10.7575 -10.7414 -10.7281 -10.7172 -10.6873
   -10.6595 -10.6476 -10.6415 -10.6242 -10.6191 -10.5705 -10.4459 -10.3405
   -10.2230 -10.0707 -10.0695 -10.0672 -10.0562  -9.9358  -9.9323  -9.9074
    -9.8414  -9.8259  -9.8124  -9.8005  -9.7988  -9.7901  -9.7777  -9.7665
    -9.7444  -9.7379  -9.7311  -9.7160  -9.7059  -9.7006  -9.6885  -9.6585
    -9.6510  -9.6475  -9.6455  -9.6416  -9.6397  -9.6285  -9.6209  -9.6045
    -9.5966  -9.5953  -9.5944  -9.5920  -9.5911  -9.5894  -9.5668  -9.5645
    -9.5619  -9.5407  -9.4921  -9.4811  -9.4809  -9.4610  -9.4584  -9.4572
    -9.4498  -9.4025  -9.3967  -9.3794  -9.3754  -9.3650  -9.3492  -9.3399
    -9.3248  -9.2910  -9.2853  -9.2597  -9.2551  -9.2399  -9.2368  -9.2225
    -9.2212  -9.2109  -9.1913  -9.1821  -9.1430  -9.1194  -9.0914  -9.0534
    -9.0462  -9.0427  -9.0413  -9.0390  -9.0390  -9.0375  -9.0264  -8.9935
    -8.9629  -8.9624  -8.9577  -8.9424  -8.9039  -8.9034  -8.8900  -8.8790
    -8.8530  -8.8420  -8.8262  -8.8202  -8.8171  -8.8160  -8.8126  -8.8091
    -8.7944  -8.7881  -8.7803  -8.7768  -8.7616  -8.7472  -8.7374  -8.7313
    -8.7303  -8.7280  -8.5958  -8.5487  -8.4634  -8.4504  -8.4504  -8.4254
    -8.4003  -8.3779  -8.3778  -8.3387  -8.3384  -8.3382  -8.3381  -8.3380
    -8.3380  -8.3230  -8.3214  -8.3103  -8.2757  -8.2663  -8.2660  -8.2615
    -8.2614  -8.2589  -8.2467  -8.2377  -8.2026  -8.1066  -8.0340  -7.9909
    -7.9616  -7.9496  -7.9436  -7.8573  -7.7668  -7.7495  -7.7336  -7.7052
    -7.6383  -7.6338  -7.6029  -7.6027  -7.6026  -7.6024  -7.6021  -7.6016
    -7.5575  -7.5571  -7.5566  -7.5563  -7.5559  -7.5558  -7.5499  -7.5404
    -7.5368  -7.5363  -7.5274  -7.5243  -7.5233  -7.5222  -7.5184  -7.4997
    -7.4970  -7.4898  -7.4844  -7.4838  -7.4824  -7.4788  -7.4726  -7.4702
    -7.4474  -7.4460  -7.4397  -7.4381  -7.4365  -7.4229  -7.4205  -7.4003
    -7.3439  -7.3424  -7.3408  -7.3215  -7.3214  -7.3147  -7.2573  -7.2520
    -7.2512  -7.2445  -7.2181  -7.2122  -7.1846  -7.1474  -7.0728  -7.0588
    -7.0453  -6.9344  -6.9333  -6.9131  -6.8961  -6.8669  -6.8512  -6.8284
    -6.8225  -6.8182  -6.7804  -6.7516  -6.7251  -6.7144  -6.6892  -6.6645
    -6.6629  -6.6437  -6.6415  -6.6386  -6.6320  -6.6228  -6.6113  -6.5565
    -6.5535  -6.5459  -6.5398  -6.5378  -6.5294  -6.5250  -6.5205  -6.5044
    -6.4851  -6.4829  -6.4677  -6.4572  -6.4494  -6.4447  -6.4440  -6.4397
    -6.3983  -6.3766  -6.3695  -6.3694  -6.3694  -6.3694  -6.3694  -6.3693
    -6.3479  -6.3316  -6.3094  -6.3017  -6.2932  -6.2927  -6.2920  -6.2915
    -6.2845  -6.2830  -6.2364  -6.2322  -6.2219  -6.2053  -6.1400  -5.9543
    -5.9514  -5.7044  -5.6127  -5.3322  -5.2866  -5.1872  -5.1342  -5.0715
    -5.0135  -4.5856  -3.8698  -3.8560  -3.8555  -3.8541  -3.8499  -3.8353
    -3.8247  -3.8228  -3.8223  -3.8198  -3.8180  -3.8070  -3.7070  -3.6353
    -3.6305  -3.6255  -3.6081  -3.6076  -3.6037  -3.5925  -3.5908  -3.5858
    -3.5853  -3.5101  -3.5101  -3.5101  -3.4996  -3.4948  -3.4930  -3.4903
    -3.4899  -3.4889  -3.4873  -3.4497  -3.4435  -3.4430  -3.4427  -3.4312
    -3.4132  -3.4063  -3.4042  -3.3971  -3.3943  -3.3881  -3.3817  -3.3767
    -3.3727  -3.3676  -3.3650  -3.3541  -3.3461  -3.3343  -3.3237  -3.2976
    -3.2925  -3.2824  -3.2704  -3.2675  -3.2482  -3.2184  -3.2116  -3.1679
    -3.1530  -3.0449  -3.0443  -3.0438  -3.0387  -3.0383  -3.0220  -2.9821
    -2.9728  -2.9719  -2.9715  -2.9713  -2.9712  -2.9711  -2.9709  -2.9660
    -2.9586  -2.9536  -2.9466  -2.9437  -2.9356  -2.9208  -2.9196  -2.9146
    -2.9100  -2.9054  -2.9004  -2.8991  -2.8967  -2.8902  -2.8882  -2.8834
    -2.8788  -2.8633  -2.8421  -2.8379  -2.8370  -2.8111  -2.8059  -2.7887
    -2.7817  -2.7759  -2.7612  -2.7603  -2.7599  -2.7590  -2.7586  -2.7473
    -2.7134  -2.7122  -2.7010  -2.6885  -2.6785  -2.6541  -2.6494  -2.6283
    -2.6189  -2.6144  -2.5806  -2.5701  -2.5572  -2.5519  -2.5439  -2.5417
    -2.5127  -2.4983  -2.4930  -2.4727  -2.4617  -2.4552

          k = 0.0000-0.5773 0.0000 (321564 PWs)   bands (ev):

  -103.2301-103.2262 -87.4356 -71.6247 -71.6237 -71.6207 -71.6200 -71.5661
   -71.5650 -71.5166 -71.5156 -71.4925 -71.4912 -71.4906 -71.4898 -71.4766
   -71.4755 -66.6951 -66.6951 -66.6845 -66.6845 -66.6696 -66.6696 -66.6696
   -66.6696 -66.6652 -66.6652 -66.6590 -66.6590 -66.6589 -66.6589 -66.6546
   -66.6546 -66.6297 -66.6295 -66.6190 -66.6190 -66.6168 -66.6042 -66.6041
   -66.6041 -66.6039 -66.5997 -66.5996 -66.5937 -66.5934 -66.5934 -66.5933
   -66.5890 -66.5889 -66.5674 -66.5657 -66.5516 -66.5459 -66.5457 -66.5388
   -66.5242 -66.5214 -66.5156 -66.5067 -66.5012 -66.4988 -66.4956 -66.4915
   -66.4831 -57.5525 -57.5124 -57.5101 -57.4651 -57.2463 -57.2132 -53.4365
   -53.3262 -52.8859 -40.9962 -40.9962 -40.9962 -40.9962 -40.9696 -40.9696
   -40.9577 -40.9577 -40.9297 -40.9295 -40.9294 -40.9294 -40.9072 -40.9072
   -40.9072 -40.9072 -40.9029 -40.9028 -40.8910 -40.8909 -40.8811 -40.8755
   -40.8582 -40.8526 -40.8493 -40.8493 -40.8457 -40.8406 -40.8406 -40.8405
   -40.8405 -40.8393 -40.8393 -40.8332 -40.8285 -40.8285 -40.8110 -40.7991
   -40.7991 -40.7991 -40.7991 -40.7944 -40.7905 -40.7904 -40.7844 -40.7843
   -40.7842 -40.7783 -40.7783 -40.7782 -40.7782 -40.7782 -40.7782 -40.7728
   -40.7727 -40.7696 -40.7696 -40.7650 -40.7636 -40.7635 -40.7540 -40.7484
   -40.7475 -40.7475 -40.7475 -40.7475 -40.7453 -40.7343 -40.7343 -40.7341
   -40.7340 -40.7283 -40.7256 -40.7254 -40.7198 -40.7164 -40.7136 -40.7133
   -40.7132 -40.7131 -40.7130 -40.7130 -40.7130 -40.7130 -40.7118 -40.7117
   -40.7055 -40.7047 -40.7046 -40.7010 -40.7009 -40.6931 -40.6880 -40.6863
   -40.6818 -40.6818 -40.6813 -40.6811 -40.6809 -40.6809 -40.6802 -40.6775
   -40.6716 -40.6649 -40.6649 -40.6600 -40.6572 -40.6526 -40.6467 -40.6466
   -40.6466 -40.6465 -40.6449 -40.6421 -40.6375 -40.6346 -40.6344 -40.6344
   -40.6344 -40.6337 -40.6317 -40.6203 -40.6177 -40.6155 -40.6152 -40.6081
   -40.6037 -40.5985 -40.5984 -40.5974 -40.5747 -40.5708 -40.5682 -40.5679
   -40.5611 -40.5567 -40.5480 -40.5389 -40.5359 -40.5256 -40.5023 -40.4911
   -40.4823 -40.4710 -20.2631 -19.8987 -19.8884 -19.8006 -19.7387 -19.6797
   -19.5649 -19.4683 -19.4537 -19.3992 -19.3132 -19.2745 -19.1429 -18.8639
   -18.8238 -18.7639 -18.7586 -18.7535 -18.7506 -18.7404 -18.7352 -18.6989
   -18.6584 -18.6350 -18.6300 -18.6209 -18.6147 -18.5719 -18.5694 -18.5547
   -18.5131 -18.5053 -18.4969 -18.4750 -18.4551 -18.4356 -18.4179 -18.4122
   -18.3939 -18.3478 -18.3320 -18.3077 -18.2761 -18.2608 -18.2444 -18.2345
   -18.2069 -18.1919 -18.1791 -18.1441 -18.1409 -18.1407 -18.1406 -18.1403
   -18.1248 -18.1198 -18.0923 -18.0899 -18.0724 -18.0669 -18.0639 -18.0597
   -18.0565 -18.0465 -18.0253 -18.0139 -18.0103 -18.0024 -17.9939 -17.9804
   -17.9639 -17.9592 -17.9576 -17.9480 -17.9370 -17.9318 -17.9038 -17.8989
   -17.8855 -17.8774 -17.8774 -17.8730 -17.8396 -17.8348 -17.8209 -17.8184
   -17.8176 -17.8036 -17.8019 -17.7972 -17.7846 -17.7707 -17.7587 -17.7578
   -17.7047 -17.7015 -12.3955 -12.2349 -11.7859 -11.7664 -11.6950 -11.6241
   -11.5830 -11.4896 -11.4870 -11.4852 -11.4844 -11.4650 -11.4594 -11.4265
   -11.4012 -11.3913 -11.3889 -11.3767 -11.3654 -11.3381 -11.3302 -11.3068
   -11.3003 -11.2911 -11.2802 -11.2703 -11.2703 -11.2444 -11.2266 -11.2245
   -11.2202 -11.1771 -11.1712 -11.1676 -11.1651 -11.1094 -11.0868 -11.0575
   -11.0348 -10.9988 -10.9867 -10.9828 -10.9733 -10.9510 -10.9296 -10.9225
   -10.9199 -10.9013 -10.8895 -10.8706 -10.8652 -10.8505 -10.8442 -10.8435
   -10.8432 -10.8412 -10.8352 -10.8332 -10.8108 -10.7942 -10.7813 -10.7764
   -10.7702 -10.7688 -10.6912 -10.6653 -10.6018 -10.5807 -10.5233 -10.5082
   -10.4962 -10.4338 -10.3877 -10.3534 -10.2945 -10.2637 -10.1520 -10.1456
   -10.1321 -10.1316 -10.0851 -10.0701 -10.0378 -10.0348  -9.9868  -9.9782
    -9.9636  -9.9573  -9.9511  -9.9435  -9.9366  -9.9236  -9.9194  -9.9151
    -9.8995  -9.8953  -9.8764  -9.8319  -9.8182  -9.8009  -9.7783  -9.7735
    -9.7626  -9.7519  -9.7336  -9.7249  -9.7182  -9.7164  -9.7113  -9.6837
    -9.6758  -9.6675  -9.6512  -9.6398  -9.6281  -9.6198  -9.5913  -9.5798
    -9.5707  -9.5497  -9.5404  -9.5336  -9.5214  -9.4952  -9.4834  -9.4730
    -9.4424  -9.4125  -9.3687  -9.3371  -9.2964  -9.2702  -9.2353  -9.2238
    -9.2085  -9.1966  -9.1886  -9.1656  -9.1589  -9.1420  -9.1304  -9.1300
    -9.1181  -9.1085  -9.0945  -9.0594  -9.0589  -9.0505  -9.0441  -9.0279
    -9.0074  -9.0064  -8.9929  -8.9848  -8.9762  -8.9634  -8.9537  -8.9494
    -8.9460  -8.9446  -8.9288  -8.9181  -8.8964  -8.8916  -8.8890  -8.8739
    -8.8708  -8.8667  -8.8608  -8.8546  -8.8530  -8.8518  -8.8420  -8.8345
    -8.8296  -8.8175  -8.8005  -8.7816  -8.7758  -8.7651  -8.7459  -8.7383
    -8.7248  -8.6424  -8.5943  -8.5597  -8.5281  -8.5255  -8.5251  -8.4710
    -8.4477  -8.4413  -8.4325  -8.3864  -8.2810  -8.2387  -8.2157  -8.2068
    -8.2068  -8.1413  -8.1349  -8.1342  -8.0979  -8.0733  -8.0088  -7.9521
    -7.9453  -7.9350  -7.8996  -7.8779  -7.8756  -7.8671  -7.8664  -7.8634
    -7.8609  -7.8600  -7.8600  -7.8586  -7.8378  -7.8160  -7.8148  -7.8136
    -7.8130  -7.8008  -7.7901  -7.7885  -7.7845  -7.7787  -7.7712  -7.7627
    -7.7561  -7.7468  -7.7394  -7.7358  -7.7329  -7.7260  -7.7148  -7.7056
    -7.7010  -7.6855  -7.6799  -7.6748  -7.6747  -7.6706  -7.6679  -7.6450
    -7.6378  -7.6285  -7.6193  -7.6068  -7.6024  -7.5923  -7.5844  -7.5787
    -7.5553  -7.5276  -7.5238  -7.5104  -7.4846  -7.4105  -7.3852  -7.3380
    -7.3216  -7.2857  -7.2564  -7.2543  -7.2468  -7.2386  -7.1996  -7.1605
    -7.1390  -7.1310  -7.0977  -7.0972  -7.0676  -7.0341  -7.0261  -7.0239
    -7.0175  -6.9949  -6.9658  -6.9604  -6.9479  -6.9310  -6.9204  -6.9138
    -6.8868  -6.8775  -6.8455  -6.8397  -6.8245  -6.7847  -6.7396  -6.7288
    -6.7067  -6.6830  -6.6718  -6.6717  -6.6716  -6.6715  -6.6481  -6.6303
    -6.6191  -6.6043  -6.6037  -6.6030  -6.5995  -6.5742  -6.5621  -6.5347
    -6.5248  -6.5095  -6.4811  -6.4484  -6.4114  -6.3437  -6.3404  -6.3403
    -6.3401  -6.3343  -6.2800  -6.2788  -6.2705  -6.2622  -6.2617  -6.2550
    -6.2437  -6.2404  -6.2277  -6.2189  -6.1910  -6.1830  -6.1512  -6.0613
    -6.0228  -5.9916  -5.9916  -5.9186  -5.9158  -5.8693  -5.8373  -5.7864
    -5.7751  -5.6761  -5.5941  -5.5890  -5.2825  -5.2407  -5.1430  -5.0778
    -5.0296  -4.5761  -4.0365  -4.0339  -4.0264  -4.0122  -3.9072  -3.9072
    -3.8914  -3.8753  -3.8428  -3.8427  -3.8189  -3.7985  -3.7972  -3.7870
    -3.7798  -3.7386  -3.6931  -3.6525  -3.6190  -3.6124  -3.6099  -3.6076
    -3.6009  -3.5925  -3.5922  -3.5727  -3.5680  -3.5378  -3.5205  -3.5127
    -3.5084  -3.4961  -3.4934  -3.4890  -3.4820  -3.4765  -3.4726  -3.4468
    -3.4319  -3.4019  -3.3850  -3.3749  -3.3736  -3.3659  -3.3605  -3.3593
    -3.3341  -3.3292  -3.3275  -3.3200  -3.3142  -3.2941  -3.2850  -3.2840
    -3.2829  -3.2820  -3.2619  -3.2552  -3.2485  -3.2429  -3.2391  -3.2253
    -3.2191  -3.2123  -3.2086  -3.2041  -3.2004  -3.1733  -3.1453  -3.1407
    -3.1356  -3.1233  -3.1093  -3.0804  -3.0788  -3.0757  -3.0576  -3.0403
    -3.0384  -3.0212  -3.0204  -3.0200  -3.0197  -3.0126  -2.9910  -2.9798
    -2.9725  -2.9716  -2.9563  -2.9531  -2.9453  -2.9362  -2.9339  -2.9263
    -2.9176  -2.9100  -2.9007  -2.8910  -2.8847  -2.8722  -2.8622  -2.8520
    -2.8380  -2.8349  -2.8191  -2.8137  -2.8080  -2.7972  -2.7563  -2.7454
    -2.7228  -2.7179  -2.6838  -2.6584  -2.6576  -2.6534  -2.6479  -2.6376
    -2.5822  -2.5752  -2.5420  -2.5257  -2.5127  -2.5027  -2.4965  -2.4893
    -2.3862  -2.3815  -2.3589  -2.3205  -2.3126  -2.2560

          k =-0.5000-0.2887 0.0000 (321564 PWs)   bands (ev):

  -103.2301-103.2262 -87.4356 -71.6247 -71.6237 -71.6207 -71.6200 -71.5661
   -71.5650 -71.5166 -71.5156 -71.4925 -71.4912 -71.4906 -71.4898 -71.4766
   -71.4755 -66.6951 -66.6951 -66.6845 -66.6845 -66.6696 -66.6696 -66.6696
   -66.6696 -66.6652 -66.6651 -66.6590 -66.6590 -66.6589 -66.6589 -66.6546
   -66.6546 -66.6297 -66.6295 -66.6191 -66.6190 -66.6168 -66.6042 -66.6041
   -66.6041 -66.6039 -66.5997 -66.5996 -66.5937 -66.5934 -66.5933 -66.5933
   -66.5890 -66.5889 -66.5674 -66.5657 -66.5516 -66.5461 -66.5455 -66.5388
   -66.5244 -66.5211 -66.5158 -66.5067 -66.5012 -66.4988 -66.4956 -66.4915
   -66.4831 -57.5525 -57.5124 -57.5101 -57.4651 -57.2463 -57.2132 -53.4365
   -53.3262 -52.8859 -40.9963 -40.9962 -40.9962 -40.9962 -40.9696 -40.9696
   -40.9577 -40.9577 -40.9297 -40.9295 -40.9294 -40.9294 -40.9072 -40.9072
   -40.9072 -40.9072 -40.9030 -40.9028 -40.8910 -40.8909 -40.8810 -40.8758
   -40.8586 -40.8526 -40.8493 -40.8493 -40.8453 -40.8407 -40.8406 -40.8405
   -40.8405 -40.8393 -40.8393 -40.8330 -40.8285 -40.8285 -40.8107 -40.7991
   -40.7991 -40.7991 -40.7991 -40.7945 -40.7905 -40.7904 -40.7847 -40.7843
   -40.7842 -40.7783 -40.7783 -40.7783 -40.7782 -40.7782 -40.7782 -40.7728
   -40.7727 -40.7696 -40.7696 -40.7648 -40.7636 -40.7635 -40.7541 -40.7483
   -40.7476 -40.7475 -40.7475 -40.7475 -40.7458 -40.7343 -40.7343 -40.7341
   -40.7340 -40.7283 -40.7256 -40.7254 -40.7198 -40.7162 -40.7136 -40.7133
   -40.7132 -40.7131 -40.7130 -40.7130 -40.7130 -40.7130 -40.7118 -40.7117
   -40.7055 -40.7047 -40.7046 -40.7010 -40.7009 -40.6931 -40.6882 -40.6862
   -40.6818 -40.6818 -40.6813 -40.6811 -40.6810 -40.6808 -40.6803 -40.6774
   -40.6715 -40.6649 -40.6649 -40.6601 -40.6574 -40.6523 -40.6467 -40.6466
   -40.6466 -40.6465 -40.6447 -40.6423 -40.6377 -40.6346 -40.6344 -40.6344
   -40.6344 -40.6338 -40.6317 -40.6203 -40.6174 -40.6155 -40.6152 -40.6083
   -40.6029 -40.5985 -40.5984 -40.5969 -40.5756 -40.5702 -40.5682 -40.5679
   -40.5615 -40.5569 -40.5481 -40.5386 -40.5352 -40.5258 -40.5031 -40.4920
   -40.4819 -40.4705 -20.2630 -19.8988 -19.8884 -19.8010 -19.7386 -19.6800
   -19.5635 -19.4685 -19.4537 -19.3995 -19.3132 -19.2745 -19.1435 -18.8630
   -18.8243 -18.7645 -18.7586 -18.7535 -18.7506 -18.7405 -18.7352 -18.7001
   -18.6572 -18.6350 -18.6299 -18.6204 -18.6151 -18.5718 -18.5694 -18.5547
   -18.5127 -18.5051 -18.4968 -18.4751 -18.4548 -18.4356 -18.4179 -18.4118
   -18.3936 -18.3476 -18.3320 -18.3079 -18.2761 -18.2601 -18.2445 -18.2346
   -18.2069 -18.1921 -18.1788 -18.1442 -18.1410 -18.1408 -18.1407 -18.1404
   -18.1246 -18.1196 -18.0929 -18.0895 -18.0730 -18.0677 -18.0647 -18.0603
   -18.0566 -18.0464 -18.0251 -18.0135 -18.0102 -18.0021 -17.9944 -17.9813
   -17.9639 -17.9597 -17.9582 -17.9482 -17.9371 -17.9327 -17.9033 -17.8991
   -17.8856 -17.8774 -17.8774 -17.8733 -17.8382 -17.8334 -17.8201 -17.8179
   -17.8170 -17.8029 -17.8011 -17.7970 -17.7843 -17.7707 -17.7577 -17.7572
   -17.7074 -17.7030 -12.3955 -12.2347 -11.7866 -11.7661 -11.6948 -11.6249
   -11.5818 -11.4899 -11.4871 -11.4852 -11.4844 -11.4649 -11.4595 -11.4276
   -11.4011 -11.3913 -11.3889 -11.3762 -11.3649 -11.3379 -11.3308 -11.3063
   -11.3004 -11.2901 -11.2804 -11.2703 -11.2702 -11.2446 -11.2264 -11.2246
   -11.2208 -11.1773 -11.1713 -11.1675 -11.1651 -11.1088 -11.0865 -11.0566
   -11.0366 -10.9990 -10.9857 -10.9832 -10.9731 -10.9509 -10.9293 -10.9228
   -10.9196 -10.9010 -10.8890 -10.8706 -10.8656 -10.8508 -10.8443 -10.8436
   -10.8433 -10.8414 -10.8354 -10.8334 -10.8119 -10.7947 -10.7818 -10.7766
   -10.7699 -10.7685 -10.6901 -10.6664 -10.6018 -10.5807 -10.5234 -10.5075
   -10.4961 -10.4344 -10.3870 -10.3524 -10.2948 -10.2634 -10.1524 -10.1452
   -10.1324 -10.1318 -10.0850 -10.0695 -10.0383 -10.0347  -9.9876  -9.9785
    -9.9644  -9.9580  -9.9525  -9.9438  -9.9368  -9.9227  -9.9179  -9.9129
    -9.8988  -9.8951  -9.8756  -9.8328  -9.8203  -9.7999  -9.7792  -9.7742
    -9.7608  -9.7492  -9.7332  -9.7254  -9.7179  -9.7165  -9.7114  -9.6840
    -9.6763  -9.6666  -9.6533  -9.6400  -9.6293  -9.6202  -9.5917  -9.5803
    -9.5708  -9.5498  -9.5404  -9.5346  -9.5217  -9.4945  -9.4834  -9.4727
    -9.4420  -9.4126  -9.3688  -9.3371  -9.2979  -9.2728  -9.2332  -9.2234
    -9.2087  -9.1972  -9.1882  -9.1658  -9.1580  -9.1416  -9.1303  -9.1299
    -9.1184  -9.1087  -9.0935  -9.0589  -9.0570  -9.0513  -9.0448  -9.0267
    -9.0068  -9.0058  -8.9918  -8.9847  -8.9760  -8.9623  -8.9527  -8.9485
    -8.9457  -8.9435  -8.9289  -8.9170  -8.8963  -8.8918  -8.8888  -8.8746
    -8.8709  -8.8671  -8.8617  -8.8546  -8.8530  -8.8518  -8.8420  -8.8337
    -8.8304  -8.8184  -8.8021  -8.7813  -8.7761  -8.7653  -8.7458  -8.7392
    -8.7267  -8.6425  -8.5952  -8.5602  -8.5267  -8.5254  -8.5249  -8.4723
    -8.4474  -8.4412  -8.4315  -8.3869  -8.2819  -8.2389  -8.2169  -8.2068
    -8.2068  -8.1419  -8.1349  -8.1342  -8.0978  -8.0762  -8.0081  -7.9524
    -7.9453  -7.9356  -7.8995  -7.8787  -7.8759  -7.8660  -7.8642  -7.8609
    -7.8600  -7.8600  -7.8588  -7.8558  -7.8372  -7.8163  -7.8146  -7.8135
    -7.8129  -7.8015  -7.7902  -7.7886  -7.7838  -7.7788  -7.7710  -7.7647
    -7.7559  -7.7463  -7.7389  -7.7353  -7.7327  -7.7258  -7.7156  -7.7057
    -7.7020  -7.6857  -7.6805  -7.6748  -7.6747  -7.6704  -7.6678  -7.6474
    -7.6389  -7.6302  -7.6201  -7.6068  -7.6028  -7.5918  -7.5841  -7.5790
    -7.5529  -7.5263  -7.5203  -7.5072  -7.4795  -7.4112  -7.3878  -7.3407
    -7.3213  -7.2867  -7.2584  -7.2557  -7.2471  -7.2391  -7.2005  -7.1597
    -7.1397  -7.1304  -7.0989  -7.0968  -7.0680  -7.0340  -7.0265  -7.0237
    -7.0176  -6.9950  -6.9669  -6.9595  -6.9480  -6.9312  -6.9202  -6.9134
    -6.8870  -6.8765  -6.8450  -6.8397  -6.8241  -6.7858  -6.7394  -6.7301
    -6.7073  -6.6837  -6.6718  -6.6717  -6.6716  -6.6716  -6.6485  -6.6323
    -6.6207  -6.6045  -6.6043  -6.6030  -6.5995  -6.5748  -6.5624  -6.5350
    -6.5244  -6.5090  -6.4809  -6.4491  -6.4114  -6.3430  -6.3404  -6.3403
    -6.3401  -6.3326  -6.2795  -6.2787  -6.2705  -6.2626  -6.2618  -6.2547
    -6.2428  -6.2366  -6.2265  -6.2170  -6.1895  -6.1810  -6.1518  -6.0640
    -6.0204  -5.9916  -5.9916  -5.9181  -5.9155  -5.8702  -5.8379  -5.7877
    -5.7756  -5.6767  -5.5953  -5.5904  -5.2826  -5.2407  -5.1429  -5.0778
    -5.0295  -4.5760  -4.0365  -4.0337  -4.0263  -4.0118  -3.9072  -3.9069
    -3.8917  -3.8758  -3.8427  -3.8424  -3.8190  -3.7987  -3.7967  -3.7867
    -3.7802  -3.7377  -3.6936  -3.6539  -3.6189  -3.6121  -3.6096  -3.6075
    -3.6007  -3.5924  -3.5921  -3.5725  -3.5682  -3.5371  -3.5199  -3.5134
    -3.5087  -3.4961  -3.4929  -3.4881  -3.4817  -3.4765  -3.4728  -3.4460
    -3.4320  -3.4029  -3.3853  -3.3737  -3.3728  -3.3668  -3.3606  -3.3593
    -3.3330  -3.3289  -3.3273  -3.3201  -3.3145  -3.2934  -3.2849  -3.2840
    -3.2829  -3.2820  -3.2606  -3.2552  -3.2483  -3.2426  -3.2395  -3.2259
    -3.2187  -3.2128  -3.2082  -3.2044  -3.2000  -3.1725  -3.1443  -3.1402
    -3.1356  -3.1230  -3.1091  -3.0800  -3.0784  -3.0763  -3.0574  -3.0405
    -3.0382  -3.0211  -3.0204  -3.0199  -3.0194  -3.0136  -2.9903  -2.9793
    -2.9723  -2.9716  -2.9580  -2.9534  -2.9455  -2.9369  -2.9339  -2.9264
    -2.9184  -2.9104  -2.9014  -2.8900  -2.8837  -2.8712  -2.8619  -2.8516
    -2.8366  -2.8338  -2.8164  -2.8116  -2.8053  -2.7960  -2.7533  -2.7429
    -2.7206  -2.7130  -2.6837  -2.6577  -2.6572  -2.6526  -2.6473  -2.6372
    -2.5817  -2.5747  -2.5422  -2.5263  -2.5144  -2.5045  -2.4984  -2.4902
    -2.3811  -2.3784  -2.3482  -2.3233  -2.3037  -2.2031

          k =-0.5000-0.8660 0.0000 (321564 PWs)   bands (ev):

  -103.2301-103.2262 -87.4356 -71.6247 -71.6237 -71.6207 -71.6200 -71.5661
   -71.5650 -71.5166 -71.5156 -71.4925 -71.4912 -71.4906 -71.4898 -71.4766
   -71.4755 -66.6951 -66.6951 -66.6845 -66.6845 -66.6696 -66.6696 -66.6696
   -66.6696 -66.6652 -66.6651 -66.6590 -66.6590 -66.6589 -66.6589 -66.6546
   -66.6546 -66.6300 -66.6291 -66.6191 -66.6190 -66.6168 -66.6045 -66.6042
   -66.6038 -66.6037 -66.6001 -66.5992 -66.5940 -66.5939 -66.5936 -66.5923
   -66.5891 -66.5890 -66.5695 -66.5596 -66.5574 -66.5468 -66.5427 -66.5392
   -66.5232 -66.5224 -66.5143 -66.5080 -66.5019 -66.4981 -66.4955 -66.4914
   -66.4831 -57.5525 -57.5124 -57.5101 -57.4651 -57.2463 -57.2132 -53.4365
   -53.3262 -52.8859 -40.9963 -40.9962 -40.9962 -40.9962 -40.9696 -40.9696
   -40.9577 -40.9577 -40.9299 -40.9298 -40.9296 -40.9286 -40.9072 -40.9072
   -40.9072 -40.9072 -40.9032 -40.9025 -40.8910 -40.8909 -40.8865 -40.8858
   -40.8597 -40.8493 -40.8493 -40.8410 -40.8407 -40.8406 -40.8405 -40.8405
   -40.8393 -40.8393 -40.8285 -40.8285 -40.8278 -40.8146 -40.8119 -40.8073
   -40.7991 -40.7991 -40.7991 -40.7991 -40.7905 -40.7904 -40.7853 -40.7846
   -40.7839 -40.7783 -40.7783 -40.7783 -40.7782 -40.7782 -40.7782 -40.7728
   -40.7727 -40.7696 -40.7696 -40.7685 -40.7677 -40.7636 -40.7635 -40.7607
   -40.7475 -40.7475 -40.7475 -40.7475 -40.7431 -40.7346 -40.7344 -40.7339
   -40.7339 -40.7303 -40.7259 -40.7251 -40.7203 -40.7138 -40.7137 -40.7135
   -40.7130 -40.7130 -40.7130 -40.7130 -40.7122 -40.7120 -40.7118 -40.7117
   -40.7047 -40.7046 -40.7036 -40.7010 -40.7009 -40.7006 -40.6959 -40.6828
   -40.6818 -40.6818 -40.6817 -40.6815 -40.6809 -40.6802 -40.6753 -40.6718
   -40.6673 -40.6649 -40.6649 -40.6614 -40.6580 -40.6521 -40.6483 -40.6467
   -40.6466 -40.6466 -40.6465 -40.6404 -40.6385 -40.6349 -40.6344 -40.6344
   -40.6341 -40.6329 -40.6273 -40.6227 -40.6200 -40.6159 -40.6148 -40.6133
   -40.5985 -40.5984 -40.5892 -40.5812 -40.5746 -40.5722 -40.5685 -40.5676
   -40.5642 -40.5545 -40.5474 -40.5402 -40.5363 -40.5201 -40.5122 -40.5098
   -40.4922 -40.4521 -20.2630 -19.9001 -19.8879 -19.8052 -19.7367 -19.6828
   -19.5421 -19.4711 -19.4532 -19.4063 -19.3140 -19.2770 -19.1610 -18.8541
   -18.7853 -18.7772 -18.7673 -18.7536 -18.7504 -18.7414 -18.7318 -18.7203
   -18.6569 -18.6339 -18.6252 -18.6230 -18.6155 -18.5689 -18.5608 -18.5595
   -18.5099 -18.5051 -18.4923 -18.4707 -18.4518 -18.4443 -18.4195 -18.4123
   -18.3879 -18.3514 -18.3245 -18.3214 -18.2995 -18.2532 -18.2402 -18.2348
   -18.2082 -18.1974 -18.1617 -18.1497 -18.1413 -18.1409 -18.1407 -18.1404
   -18.1326 -18.1158 -18.0992 -18.0837 -18.0703 -18.0683 -18.0670 -18.0597
   -18.0585 -18.0335 -18.0324 -18.0086 -18.0057 -18.0025 -17.9931 -17.9891
   -17.9653 -17.9557 -17.9545 -17.9455 -17.9421 -17.9317 -17.9066 -17.8926
   -17.8827 -17.8780 -17.8773 -17.8773 -17.8388 -17.8314 -17.8180 -17.8178
   -17.8134 -17.8071 -17.8019 -17.8012 -17.7821 -17.7763 -17.7590 -17.7563
   -17.7104 -17.6989 -12.3872 -12.2757 -11.7614 -11.7370 -11.6758 -11.5935
   -11.5653 -11.4906 -11.4892 -11.4863 -11.4852 -11.4667 -11.4561 -11.4309
   -11.4094 -11.3997 -11.3905 -11.3808 -11.3517 -11.3338 -11.3267 -11.3263
   -11.2983 -11.2939 -11.2837 -11.2702 -11.2702 -11.2560 -11.2298 -11.2254
   -11.2222 -11.1897 -11.1680 -11.1661 -11.1571 -11.1535 -11.1022 -11.0347
   -11.0321 -11.0127 -10.9876 -10.9850 -10.9703 -10.9384 -10.9313 -10.9287
   -10.9254 -10.8974 -10.8926 -10.8912 -10.8654 -10.8516 -10.8446 -10.8436
   -10.8427 -10.8421 -10.8298 -10.8138 -10.8055 -10.7894 -10.7839 -10.7758
   -10.7748 -10.7667 -10.7262 -10.6483 -10.6080 -10.5992 -10.5336 -10.5103
   -10.5019 -10.4219 -10.3754 -10.2991 -10.2631 -10.2303 -10.1931 -10.1555
   -10.1393 -10.1224 -10.1192 -10.0910 -10.0541 -10.0193 -10.0115  -9.9962
    -9.9657  -9.9546  -9.9462  -9.9455  -9.9446  -9.9306  -9.9240  -9.9065
    -9.8993  -9.8975  -9.8563  -9.8495  -9.8185  -9.8091  -9.7843  -9.7624
    -9.7566  -9.7439  -9.7332  -9.7317  -9.7191  -9.7148  -9.6982  -9.6850
    -9.6827  -9.6746  -9.6666  -9.6344  -9.6312  -9.6176  -9.6170  -9.5692
    -9.5581  -9.5472  -9.5410  -9.5275  -9.5003  -9.4838  -9.4803  -9.4570
    -9.3960  -9.3583  -9.3469  -9.3314  -9.2998  -9.2953  -9.2545  -9.2266
    -9.2222  -9.2148  -9.1694  -9.1590  -9.1578  -9.1523  -9.1387  -9.1338
    -9.1268  -9.1172  -9.0733  -9.0693  -9.0522  -9.0500  -9.0460  -9.0270
    -9.0193  -9.0013  -8.9961  -8.9875  -8.9652  -8.9628  -8.9573  -8.9568
    -8.9455  -8.9418  -8.9314  -8.9162  -8.9018  -8.9002  -8.8858  -8.8743
    -8.8732  -8.8688  -8.8594  -8.8590  -8.8529  -8.8522  -8.8365  -8.8361
    -8.8099  -8.8038  -8.7931  -8.7767  -8.7750  -8.7602  -8.7510  -8.7486
    -8.7420  -8.6556  -8.6258  -8.5559  -8.5304  -8.5255  -8.5217  -8.4534
    -8.4425  -8.4344  -8.4026  -8.3375  -8.3257  -8.2853  -8.2068  -8.2068
    -8.1798  -8.1359  -8.1339  -8.1183  -8.0988  -8.0920  -8.0642  -7.9783
    -7.9463  -7.9448  -7.8969  -7.8804  -7.8763  -7.8676  -7.8626  -7.8620
    -7.8600  -7.8600  -7.8573  -7.8569  -7.8486  -7.8197  -7.8148  -7.8134
    -7.8130  -7.8109  -7.7907  -7.7898  -7.7751  -7.7740  -7.7709  -7.7554
    -7.7506  -7.7441  -7.7385  -7.7349  -7.7279  -7.7227  -7.7187  -7.7055
    -7.6974  -7.6870  -7.6866  -7.6748  -7.6747  -7.6639  -7.6620  -7.6489
    -7.6403  -7.6376  -7.6113  -7.6083  -7.6024  -7.5925  -7.5872  -7.5626
    -7.5508  -7.5419  -7.4904  -7.4867  -7.4530  -7.4237  -7.3723  -7.3713
    -7.3196  -7.2855  -7.2527  -7.2436  -7.2361  -7.2220  -7.2135  -7.1562
    -7.1301  -7.1070  -7.1046  -7.0815  -7.0685  -7.0423  -7.0361  -7.0245
    -7.0228  -6.9782  -6.9662  -6.9601  -6.9559  -6.9246  -6.9243  -6.9173
    -6.8989  -6.8564  -6.8506  -6.8420  -6.8369  -6.7818  -6.7590  -6.7574
    -6.7123  -6.6815  -6.6734  -6.6717  -6.6717  -6.6717  -6.6701  -6.6375
    -6.6132  -6.6106  -6.6037  -6.6034  -6.6018  -6.6003  -6.5655  -6.5449
    -6.5233  -6.5047  -6.4909  -6.4560  -6.4046  -6.3899  -6.3406  -6.3404
    -6.3402  -6.3397  -6.2818  -6.2748  -6.2734  -6.2651  -6.2609  -6.2566
    -6.2462  -6.2173  -6.2125  -6.2062  -6.1916  -6.1751  -6.1622  -6.0283
    -5.9918  -5.9916  -5.9871  -5.9168  -5.9148  -5.8752  -5.8576  -5.7941
    -5.7571  -5.6717  -5.6032  -5.5751  -5.2770  -5.2493  -5.1457  -5.0824
    -5.0071  -4.5473  -4.0365  -4.0281  -4.0253  -4.0107  -3.9072  -3.9070
    -3.8983  -3.8814  -3.8428  -3.8424  -3.8289  -3.7998  -3.7889  -3.7743
    -3.7670  -3.7344  -3.7104  -3.6639  -3.6219  -3.6138  -3.6085  -3.6077
    -3.5980  -3.5928  -3.5921  -3.5754  -3.5601  -3.5318  -3.5176  -3.5154
    -3.5089  -3.5062  -3.4956  -3.4953  -3.4842  -3.4785  -3.4730  -3.4593
    -3.4459  -3.4314  -3.3930  -3.3791  -3.3775  -3.3603  -3.3600  -3.3530
    -3.3310  -3.3300  -3.3235  -3.3213  -3.3028  -3.2859  -3.2849  -3.2835
    -3.2834  -3.2766  -3.2744  -3.2572  -3.2524  -3.2426  -3.2404  -3.2279
    -3.2197  -3.2110  -3.2077  -3.1958  -3.1943  -3.1749  -3.1504  -3.1488
    -3.1227  -3.1217  -3.1074  -3.0808  -3.0805  -3.0769  -3.0491  -3.0424
    -3.0398  -3.0312  -3.0210  -3.0200  -3.0192  -3.0107  -3.0027  -2.9900
    -2.9724  -2.9721  -2.9622  -2.9597  -2.9420  -2.9390  -2.9319  -2.9281
    -2.9127  -2.9122  -2.8929  -2.8925  -2.8858  -2.8797  -2.8607  -2.8452
    -2.8414  -2.8271  -2.8146  -2.8142  -2.8076  -2.7726  -2.7512  -2.7420
    -2.7217  -2.7151  -2.6649  -2.6573  -2.6562  -2.6526  -2.6479  -2.6403
    -2.5852  -2.5731  -2.5306  -2.5219  -2.5111  -2.5074  -2.5040  -2.4650
    -2.3793  -2.3760  -2.3501  -2.3260  -2.3096  -2.2982

     the Fermi energy is    -4.7931 ev

!    total energy              =  -27706.45948908 Ry
     total all-electron energy =   -549111.721928 Ry
     estimated scf accuracy    <       0.00000048 Ry
     smearing contrib. (-TS)   =      -0.00085220 Ry
     internal energy E=F+TS    =  -27706.45863689 Ry

     The total energy is F=E-TS. E is the sum of the following terms:
     one-electron contribution =  528981.95368920 Ry
     hartree contribution      = -264672.84414383 Ry
     xc contribution           =   -1610.10753146 Ry
     ewald contribution        = -273621.77235629 Ry
     DFT-D3 Dispersion         =      -4.04485563 Ry
     one-center paw contrib.   =  -16779.64343888 Ry

     convergence has been achieved in  25 iterations

     negative rho (up, down):  8.954E-04 0.000E+00

     Forces acting on atoms (cartesian axes, Ry/au):

     atom    1 type  1   force =     0.00084173    0.00113655   -0.00217873
     atom    2 type  1   force =    -0.00001564    0.00000710    0.00189797
     atom    3 type  1   force =     0.00005103   -0.00001505    0.00008492
     atom    4 type  2   force =     0.00000256    0.00000073   -0.00337857
     atom    5 type  2   force =    -0.00002934   -0.00002918   -0.00007732
     atom    6 type  2   force =     0.00005798    0.00033046   -0.00103754
     atom    7 type  2   force =     0.00000266   -0.00000394    0.00161244
     atom    8 type  2   force =     0.00002812   -0.00004165    0.00013175
     atom    9 type  2   force =    -0.00042831    0.00039374    0.00121850
     atom   10 type  1   force =     0.00234573    0.00042634   -0.00213163
     atom   11 type  1   force =    -0.00000146   -0.00000372    0.00189918
     atom   12 type  1   force =     0.00000663   -0.00003216    0.00008840
     atom   13 type  2   force =     0.00000285   -0.00000111   -0.00338182
     atom   14 type  2   force =     0.00000764   -0.00001580   -0.00006988
     atom   15 type  2   force =     0.00021801    0.00032427   -0.00056108
     atom   16 type  2   force =     0.00000620   -0.00000391    0.00162326
     atom   17 type  2   force =     0.00005370    0.00001433    0.00013075
     atom   18 type  2   force =    -0.00033541    0.00000882    0.00084578
     atom   19 type  1   force =    -0.00022940    0.00053161   -0.00052011
     atom   20 type  1   force =     0.00001439   -0.00001416    0.00190176
     atom   21 type  1   force =    -0.00000957   -0.00001007    0.00003518
     atom   22 type  2   force =     0.00000564   -0.00000105   -0.00338938
     atom   23 type  2   force =     0.00000179   -0.00003921   -0.00002167
     atom   24 type  2   force =     0.00013766   -0.00002918   -0.00018644
     atom   25 type  2   force =     0.00000673   -0.00000698    0.00161793
     atom   26 type  2   force =    -0.00002270   -0.00000574    0.00013598
     atom   27 type  2   force =     0.00041202   -0.00071086    0.00051001
     atom   28 type  1   force =     0.00055504   -0.00065704   -0.00137634
     atom   29 type  1   force =     0.00000553   -0.00000764    0.00189994
     atom   30 type  1   force =    -0.00004545   -0.00002702   -0.00004376
     atom   31 type  2   force =     0.00000324    0.00000062   -0.00338054
     atom   32 type  2   force =    -0.00002281   -0.00001570   -0.00003693
     atom   33 type  2   force =    -0.00055205    0.00022903   -0.00008624
     atom   34 type  2   force =     0.00000079   -0.00000532    0.00161914
     atom   35 type  2   force =    -0.00009083   -0.00004050    0.00013221
     atom   36 type  2   force =     0.00034825    0.00074188    0.00134298
     atom   37 type  1   force =    -0.00059276   -0.00006528   -0.00162823
     atom   38 type  1   force =     0.00000532   -0.00000327    0.00189485
     atom   39 type  1   force =    -0.00001396   -0.00003716   -0.00009643
     atom   40 type  2   force =     0.00000146   -0.00000068   -0.00338525
     atom   41 type  2   force =     0.00002504   -0.00009189   -0.00011796
     atom   42 type  2   force =     0.00043474    0.00040636    0.00037412
     atom   43 type  2   force =     0.00000425    0.00000041    0.00161624
     atom   44 type  2   force =    -0.00002296   -0.00000115    0.00002999
     atom   45 type  2   force =    -0.00018988   -0.00097890    0.00113879
     atom   46 type  1   force =     0.00107797    0.00164232    0.00831898
     atom   47 type  1   force =    -0.00001530   -0.00000006    0.00189063
     atom   48 type  1   force =     0.00001065   -0.00002045    0.00004377
     atom   49 type  2   force =     0.00000146    0.00000001   -0.00337826
     atom   50 type  2   force =    -0.00004542   -0.00001847   -0.00009347
     atom   51 type  2   force =    -0.00078396   -0.00029022   -0.00127703
     atom   52 type  2   force =     0.00000670    0.00000121    0.00160719
     atom   53 type  2   force =     0.00003513   -0.00007166    0.00002835
     atom   54 type  2   force =    -0.00057119   -0.00061559    0.00144327
     atom   55 type  1   force =    -0.00364921    0.00270342    0.00050590
     atom   56 type  1   force =    -0.00000266   -0.00000925    0.00189561
     atom   57 type  1   force =     0.00000502   -0.00005998   -0.00003726
     atom   58 type  2   force =     0.00000084   -0.00000125   -0.00337965
     atom   59 type  2   force =    -0.00001353   -0.00003990   -0.00004372
     atom   60 type  2   force =     0.00115602    0.00019180    0.00066046
     atom   61 type  2   force =     0.00001296   -0.00001061    0.00161614
     atom   62 type  2   force =     0.00000589    0.00001125    0.00004722
     atom   63 type  2   force =    -0.00146712   -0.00078071    0.00106194
     atom   64 type  1   force =    -0.00097641   -0.00023112   -0.00055561
     atom   65 type  1   force =     0.00001254   -0.00000820    0.00189487
     atom   66 type  1   force =    -0.00003982   -0.00003664    0.00010612
     atom   67 type  2   force =     0.00000190   -0.00000125   -0.00338426
     atom   68 type  2   force =    -0.00002019   -0.00002235   -0.00004251
     atom   69 type  2   force =    -0.00009933   -0.00042113   -0.00037464
     atom   70 type  2   force =     0.00001174   -0.00000304    0.00161400
     atom   71 type  2   force =     0.00006967   -0.00006051    0.00021348
     atom   72 type  2   force =    -0.00040469    0.00004189    0.00047520
     atom   73 type  1   force =    -0.00049105   -0.00017068   -0.00004870
     atom   74 type  1   force =     0.00001749   -0.00000689    0.00189642
     atom   75 type  1   force =     0.00001666   -0.00006604   -0.00004629
     atom   76 type  2   force =     0.00000270   -0.00000013   -0.00338346
     atom   77 type  2   force =     0.00002307   -0.00004135   -0.00010320
     atom   78 type  2   force =    -0.00055422    0.00004264    0.00025679
     atom   79 type  2   force =     0.00000310   -0.00000704    0.00162105
     atom   80 type  2   force =     0.00001351   -0.00002494    0.00005714
     atom   81 type  2   force =     0.00052002    0.00008451    0.00023841
     atom   82 type  1   force =     0.00030935    0.00004188    0.00135115
     atom   83 type  1   force =     0.00000543   -0.00001159    0.00189521
     atom   84 type  1   force =    -0.00004977   -0.00002191   -0.00009294
     atom   85 type  2   force =     0.00000089   -0.00000148   -0.00338260
     atom   86 type  2   force =     0.00000416   -0.00002812   -0.00011389
     atom   87 type  2   force =     0.00070886   -0.00030816   -0.00157281
     atom   88 type  2   force =     0.00000049   -0.00000038    0.00161703
     atom   89 type  2   force =     0.00001308   -0.00002909    0.00002744
     atom   90 type  2   force =     0.00058420   -0.00358829   -0.00555916
     atom   91 type  1   force =     0.00000438   -0.00106427    0.00845424
     atom   92 type  1   force =    -0.00001104    0.00000755    0.00189248
     atom   93 type  1   force =     0.00002014   -0.00004738    0.00003165
     atom   94 type  2   force =    -0.00000033   -0.00000127   -0.00338647
     atom   95 type  2   force =    -0.00001755   -0.00004423   -0.00014980
     atom   96 type  2   force =    -0.00026492    0.00063057   -0.00295192
     atom   97 type  2   force =    -0.00000112   -0.00000342    0.00161755
     atom   98 type  2   force =    -0.00000055   -0.00008398   -0.00003663
     atom   99 type  2   force =     0.01219076   -0.00600669   -0.01342764
     atom  100 type  1   force =     0.00054407   -0.00216139   -0.00209349
     atom  101 type  1   force =     0.00000573    0.00000519    0.00189214
     atom  102 type  1   force =     0.00003534   -0.00002505   -0.00008411
     atom  103 type  2   force =     0.00000055    0.00000115   -0.00338376
     atom  104 type  2   force =     0.00000856   -0.00004079   -0.00006825
     atom  105 type  2   force =     0.00028494   -0.00078370    0.00062621
     atom  106 type  2   force =     0.00000879   -0.00000752    0.00162353
     atom  107 type  2   force =    -0.00004773   -0.00000933    0.00005393
     atom  108 type  2   force =    -0.00047499    0.00201358    0.00084962
     atom  109 type  1   force =     0.00055807    0.00012388   -0.00017570
     atom  110 type  1   force =     0.00000044    0.00000163    0.00189639
     atom  111 type  1   force =     0.00000261   -0.00001922    0.00002288
     atom  112 type  2   force =     0.00000110    0.00000191   -0.00337908
     atom  113 type  2   force =     0.00002812   -0.00001778   -0.00005340
     atom  114 type  2   force =     0.00015380    0.00000513   -0.00020430
     atom  115 type  2   force =     0.00000476   -0.00000638    0.00162486
     atom  116 type  2   force =     0.00001382   -0.00004990    0.00009955
     atom  117 type  2   force =     0.00011878    0.00039741    0.00051258
     atom  118 type  1   force =    -0.00009164    0.00029393    0.00005651
     atom  119 type  1   force =     0.00002243   -0.00001352    0.00190073
     atom  120 type  1   force =     0.00003701   -0.00003943   -0.00002606
     atom  121 type  2   force =     0.00000340   -0.00000300   -0.00338687
     atom  122 type  2   force =     0.00002576   -0.00002655   -0.00007972
     atom  123 type  2   force =    -0.00040704    0.00018901   -0.00062227
     atom  124 type  2   force =     0.00000181   -0.00000935    0.00162136
     atom  125 type  2   force =    -0.00003752   -0.00002161    0.00005449
     atom  126 type  2   force =     0.00036344   -0.00097234    0.00036134
     atom  127 type  1   force =    -0.00078913    0.00028858   -0.00154423
     atom  128 type  1   force =     0.00001268    0.00000091    0.00189890
     atom  129 type  1   force =    -0.00006304    0.00000064   -0.00005124
     atom  130 type  2   force =     0.00000337   -0.00000048   -0.00339183
     atom  131 type  2   force =    -0.00001346   -0.00000791   -0.00009607
     atom  132 type  2   force =    -0.00017616   -0.00065228   -0.00202909
[...]
     atom   72 type  2   force =    -0.00021055    0.00014241   -0.00054402
     atom   73 type  1   force =     0.00003230   -0.00017079   -0.00028770
     atom   74 type  1   force =    -0.00000017   -0.00000365    0.00189941
     atom   75 type  1   force =    -0.00000508    0.00001639    0.00000193
     atom   76 type  2   force =    -0.00000312    0.00000160   -0.00328254
     atom   77 type  2   force =    -0.00001782   -0.00005460    0.00002148
     atom   78 type  2   force =     0.00014956   -0.00027363   -0.00043669
     atom   79 type  2   force =     0.00000880   -0.00002066    0.00150766
     atom   80 type  2   force =     0.00001933    0.00004198   -0.00007327
     atom   81 type  2   force =     0.00019233   -0.00056983   -0.00028360
     atom   82 type  1   force =     0.00018954   -0.00008514   -0.00020009
     atom   83 type  1   force =    -0.00000017   -0.00000300    0.00189741
     atom   84 type  1   force =    -0.00001614    0.00001879   -0.00001793
     atom   85 type  2   force =    -0.00000274    0.00000171   -0.00328165
     atom   86 type  2   force =    -0.00001429   -0.00004119   -0.00001645
     atom   87 type  2   force =     0.00044491   -0.00051408   -0.00032911
     atom   88 type  2   force =     0.00000199   -0.00001058    0.00151385
     atom   89 type  2   force =     0.00001533   -0.00001321   -0.00001977
     atom   90 type  2   force =    -0.00007988    0.00023612    0.00033093
     atom   91 type  1   force =    -0.00040507   -0.00025712    0.00066795
     atom   92 type  1   force =    -0.00000430   -0.00000307    0.00189211
     atom   93 type  1   force =    -0.00000760    0.00000108    0.00001684
     atom   94 type  2   force =    -0.00000245    0.00000192   -0.00328338
     atom   95 type  2   force =    -0.00003048    0.00000414    0.00003491
     atom   96 type  2   force =    -0.00078953    0.00045778    0.00070381
     atom   97 type  2   force =    -0.00000149   -0.00001520    0.00149470
     atom   98 type  2   force =     0.00000109   -0.00000479   -0.00001955
     atom   99 type  2   force =    -0.00066588    0.00030200   -0.00075910
     atom  100 type  1   force =     0.00000812    0.00001979    0.00002671
     atom  101 type  1   force =     0.00000104   -0.00000512    0.00189335
     atom  102 type  1   force =    -0.00000468   -0.00000745    0.00000207
     atom  103 type  2   force =    -0.00000288    0.00000182   -0.00328210
     atom  104 type  2   force =    -0.00005384    0.00000582    0.00001236
     atom  105 type  2   force =    -0.00002951   -0.00018485    0.00064036
     atom  106 type  2   force =     0.00000862   -0.00002329    0.00150840
     atom  107 type  2   force =     0.00001456   -0.00000493   -0.00003022
     atom  108 type  2   force =    -0.00007100   -0.00090715   -0.00029801
     atom  109 type  1   force =    -0.00014841    0.00010648    0.00033138
     atom  110 type  1   force =    -0.00000301   -0.00000487    0.00189582
     atom  111 type  1   force =     0.00000604   -0.00000476   -0.00002156
     atom  112 type  2   force =    -0.00000304    0.00000132   -0.00328268
     atom  113 type  2   force =    -0.00001451   -0.00004837    0.00000361
     atom  114 type  2   force =     0.00027833   -0.00001143    0.00010918
     atom  115 type  2   force =     0.00000840   -0.00001883    0.00151348
     atom  116 type  2   force =     0.00001978   -0.00001225   -0.00000888
     atom  117 type  2   force =    -0.00028574    0.00010143    0.00010147
     atom  118 type  1   force =     0.00020578    0.00008368   -0.00028277
     atom  119 type  1   force =    -0.00000265   -0.00000372    0.00189626
     atom  120 type  1   force =     0.00000050   -0.00000238   -0.00003348
     atom  121 type  2   force =    -0.00000346    0.00000169   -0.00328330
     atom  122 type  2   force =     0.00001351   -0.00003520   -0.00000787
     atom  123 type  2   force =     0.00046662   -0.00021789   -0.00054976
     atom  124 type  2   force =     0.00000583   -0.00001509    0.00151077
     atom  125 type  2   force =    -0.00000126   -0.00000744   -0.00008819
     atom  126 type  2   force =     0.00037017   -0.00011660   -0.00040782
     atom  127 type  1   force =    -0.00001357    0.00004544   -0.00019139
     atom  128 type  1   force =    -0.00000220   -0.00000629    0.00189611
     atom  129 type  1   force =    -0.00001131    0.00000100   -0.00002216
     atom  130 type  2   force =    -0.00000345    0.00000200   -0.00328251
     atom  131 type  2   force =     0.00001790   -0.00000164   -0.00002662
     atom  132 type  2   force =     0.00074518   -0.00003473   -0.00023700
     atom  133 type  2   force =    -0.00000067   -0.00001602    0.00149828
     atom  134 type  2   force =     0.00001430   -0.00002610   -0.00004219
     atom  135 type  2   force =    -0.00019419    0.00002370    0.00024872
     atom  136 type  1   force =    -0.00027739   -0.00001651   -0.00000683
     atom  137 type  1   force =    -0.00000638   -0.00000400    0.00189453
     atom  138 type  1   force =    -0.00001302   -0.00001521    0.00001136
     atom  139 type  2   force =    -0.00000288    0.00000136   -0.00328342
     atom  140 type  2   force =    -0.00001097   -0.00000186    0.00001583
     atom  141 type  2   force =    -0.00027795    0.00009964    0.00031292
     atom  142 type  2   force =    -0.00000187   -0.00001803    0.00149271
     atom  143 type  2   force =    -0.00001102   -0.00003156   -0.00002232
     atom  144 type  2   force =    -0.00028162   -0.00023306    0.00045766
     atom  145 type  3   force =     0.00084072    0.00007069   -0.00023507
     atom  146 type  3   force =     0.00053985   -0.00040845   -0.00053152
     atom  147 type  4   force =     0.00041343   -0.00046170   -0.00088383

     Total force =     0.004114     Total SCF correction =     0.000518
     SCF correction compared to forces is large: reduce conv_thr to get better values
     Energy error            =      2.8E-05 Ry
     Gradient error          =      9.1E-04 Ry/Bohr

     bfgs converged in  27 scf cycles and  26 bfgs steps
     (criteria: energy <  1.0E-04 Ry, force <  1.0E-03 Ry/Bohr)

     End of BFGS Geometry Optimization

     Final energy             =  -27706.4664264110 Ry

     File ./outdir/pwscf.bfgs deleted, as requested
Begin final coordinates

ATOMIC_POSITIONS (angstrom)
Mo               1.5739341403        2.7073702463        6.0840057755
Mo               1.5769197498        0.9104407117       -6.0872367793    0   0   0
Mo               0.0006029936        1.8174246828        0.0012072729
S                0.0000044503        0.0000077495       -7.6506323570    0   0   0
S                1.5764615214        0.9075863884       -1.5659819038
S                0.0058705768        1.8041793887        4.5058602869
S                0.0000053241        0.0000068460       -4.5222282367    0   0   0
S                1.5784788820        0.9063337703        1.5663443781
S               -0.0019255961        1.8088116992        7.6519399583
Mo              -0.0092608928        5.4495431258        6.0836667154
Mo               0.0000011799        3.6417399547       -6.0872367793    0   0   0
Mo              -1.5763649601        4.5487522658        0.0012692010
S               -1.5769141197        2.7313069925       -7.6506323570    0   0   0
S                0.0003166264        3.6383857996       -1.5642090547
S               -1.5752207415        4.5383747433        4.5064437881
S               -1.5769132459        2.7313060890       -4.5222282367    0   0   0
S                0.0016446965        3.6386829143        1.5685433949
S               -1.5905696101        4.5346227394        7.6439485309
Mo              -1.5831022756        8.1780052603        6.0680069069
Mo              -1.5769173901        6.3730391977       -6.0872367793    0   0   0
Mo              -3.1535568370        7.2800066727       -0.0003280697
S               -3.1538326896        5.4626062355       -7.6506323570    0   0   0
S               -1.5763375321        6.3689904525       -1.5650769375
S               -3.1584364389        7.2684801625        4.5027705475
S               -3.1538318159        5.4626053320       -4.5222282367    0   0   0
S               -1.5766326631        6.3702105268        1.5669302681
S               -3.1437346369        7.2658506040        7.6460621737
Mo               3.1555420190       -0.0145692932        6.0741339332
Mo              -3.1538359601        9.1043384407       -6.0872367793    0   0   0
Mo              -4.7303394027       10.0113715532       -0.0010332396
S               -4.7307512596        8.1939054785       -7.6506323570    0   0   0
S               -3.1532422116        9.1007068549       -1.5663340132
S               -4.7310476973       10.0021491056        4.5089306304
S               -4.7307503859        8.1939045750       -4.5222282367    0   0   0
S               -3.1533883353        9.1011564402        1.5659313300
S               -4.7206652477       10.0046496686        7.6488042125
Mo               4.7348753881        2.6995842309        6.0803685145
Mo               4.7307503218        0.9104407117       -6.0872367793    0   0   0
Mo               3.1542860036        1.8174385588       -0.0011830959
S                3.1538350223        0.0000077495       -7.6506323570    0   0   0
S                4.7314631913        0.9069575123       -1.5665743808
S                3.1531406672        1.8072780396        4.5089782403
S                3.1538358961        0.0000068460       -4.5222282367    0   0   0
S                4.7310310019        0.9067863339        1.5656871433
S                3.1557733549        1.7968649992        7.6485542824
Mo               3.1399979287        5.4199857962        6.1294860308
Mo               3.1538317519        3.6417399547       -6.0872367793    0   0   0
Mo               1.5778929970        4.5488174576        0.0005719166
S                1.5769164523        2.7313069925       -7.6506323570    0   0   0
S                3.1539827740        3.6386951994       -1.5660620736
S                1.5913924687        4.5424590491        4.5450340602
S                1.5769173261        2.7313060890       -4.5222282367    0   0   0
S                3.1550038472        3.6377219540        1.5670932092
S                1.4636385279        4.4683729443        7.7375205351
Mo               1.5305344057        8.2075147666        6.0748351628
Mo               1.5769131819        6.3730391977       -6.0872367793    0   0   0
Mo               0.0009355820        7.2796772939        0.0000753355
S               -0.0000021176        5.4626062355       -7.6506323570    0   0   0
S                1.5777344422        6.3693316983       -1.5652868164
S               -0.0086962965        7.2646900121        4.4990943063
S               -0.0000012439        5.4626053320       -4.5222282367    0   0   0
S                1.5786025969        6.3697999778        1.5681322576
S               -0.0274154097        7.2721962595        7.6446694352
Mo               6.3065206517       -0.0067732751        6.0681241688
Mo              -0.0000053881        9.1043384407       -6.0872367793    0   0   0
Mo              -1.5761546902       10.0111287234       -0.0010631877
S               -1.5769206876        8.1939054785       -7.6506323570    0   0   0
S                0.0011821960        9.1004727870       -1.5657812265
S               -1.5783273048       10.0021574270        4.5024847119
S               -1.5769198139        8.1939045750       -4.5222282367    0   0   0
S                0.0008153401        9.1007612757        1.5664221022
S               -1.5762124797       10.0007425494        7.6382734836
Mo               7.8850181072        2.7196692589        6.0724221344
Mo               7.8845808939        0.9104407117       -6.0872367793    0   0   0
Mo               6.3080972028        1.8175907446       -0.0007478035
S                6.3076655943        0.0000077495       -7.6506323570    0   0   0
S                7.8858164750        0.9073894737       -1.5655072556
S                6.3064929207        1.8124426118        4.5029937824
S                6.3076664681        0.0000068460       -4.5222282367    0   0   0
S                7.8843524602        0.9067785706        1.5665204343
S                6.3159265074        1.8008963070        7.6460719108
Mo               6.3262337120        5.4383701321        6.1038071106
Mo               6.3076623239        3.6417399547       -6.0872367793    0   0   0
Mo               4.7309874063        4.5489626528       -0.0006399898
S                4.7307470244        2.7313069925       -7.6506323570    0   0   0
S                6.3085298552        3.6388913174       -1.5655480880
S                4.7187936616        4.5488713194        4.5552830725
S                4.7307478981        2.7313060890       -4.5222282367    0   0   0
S                6.3066425812        3.6383540586        1.5672518607
S                4.7985189490        4.4725174450        7.6992685218
Mo               4.7494861260        8.2072394251        6.1299743120
Mo               4.7307437539        6.3730391977       -6.0872367793    0   0   0
Mo               3.1548010588        7.2798027627       -0.0000717638
S                3.1538284544        5.4626062355       -7.6506323570    0   0   0
S                4.7312317082        6.3697402794       -1.5662669292
S                3.1709109036        7.2606984131        4.5812967127
S                3.1538293281        5.4626053320       -4.5222282367    0   0   0
S                4.7314154194        6.3693090109        1.5672603035
S                3.0645647309        7.3218034446        7.6395772771
Mo               9.4565454587       -0.0054087337        6.0840948164
Mo               3.1538251839        9.1043384407       -6.0872367793    0   0   0
Mo               1.5779488037       10.0111741095       -0.0002206961
S                1.5769098844        8.1939054785       -7.6506323570    0   0   0
S                3.1548706759        9.1008677534       -1.5654707324
S                1.5774015730       10.0122159860        4.4992475816
S                1.5769107581        8.1939045750       -4.5222282367    0   0   0
S                3.1546301455        9.0998512590        1.5679355678
S                1.5610986110       10.0241370054        7.6449465656
Mo              -1.5741244278        2.7163156488        6.0728454052
Mo              11.0384114659        0.9104407117       -6.0872367793    0   0   0
Mo               9.4620377848        1.8174563153        0.0009711126
S                9.4614961663        0.0000077495       -7.6506323570    0   0   0
S               11.0389966399        0.9074178437       -1.5644123085
S                9.4627419970        1.8060981833        4.5066880423
S                9.4614970401        0.0000068460       -4.5222282367    0   0   0
S               11.0389636164        0.9057826059        1.5683304638
S                9.4582755977        1.8214829276        7.6442060140
Mo              -3.1552560256        5.4477599704        6.0723113510
Mo               9.4614928959        3.6417399547       -6.0872367793    0   0   0
Mo               7.8846983703        4.5489537281        0.0009698401
S                7.8845775964        2.7313069925       -7.6506323570    0   0   0
S                9.4620151596        3.6385881574       -1.5641753942
S                7.8751288319        4.5440617668        4.5098174766
S                7.8845784701        2.7313060890       -4.5222282367    0   0   0
S                9.4614911034        3.6383741202        1.5683027399
S                7.9087560684        4.5244938416        7.6558786800
Mo              -4.7126807014        8.1858217949        6.0803303071
Mo               7.8845743259        6.3730391977       -6.0872367793    0   0   0
Mo               6.3077606610        7.2801517212       -0.0004995261
S                6.3076590264        5.4626062355       -7.6506323570    0   0   0
S                7.8848791984        6.3692807989       -1.5653216803
S                6.2928874987        7.2752809435        4.5552871013
S                6.3076599001        5.4626053320       -4.5222282367    0   0   0
S                7.8839796459        6.3705937516        1.5674966726
S                6.3990014316        7.2441340839        7.6996078461
Mo               0.0078429674       -0.0053504289        6.0842280142
Mo               6.3076557559        9.1043384407       -6.0872367793    0   0   0
Mo               4.7313970754       10.0109872879        0.0003984618
S                4.7307404564        8.1939054785       -7.6506323570    0   0   0
S                6.3077881945        9.1011052446       -1.5660142850
S                4.7349453116        9.9869762300        4.5456547172
S                4.7307413301        8.1939045750       -4.5222282367    0   0   0
S                6.3086730120        9.1005563326        1.5671525654
S                4.7352253213       10.1351425710        7.7380571955
Pt               3.1259468612        5.5429935250        9.0095141574
Pt               4.6352602436        8.1573182749        9.0099875404
Pd               4.1160190797        6.7150129931       11.0493318279
End final coordinates



     Writing all to output data dir ./outdir/pwscf.save/ :
     XML data file, charge density, pseudopotentials, collected wavefunctions
 
     init_run     :     98.08s CPU    100.67s WALL (       1 calls)
     electrons    : 126960.00s CPU 128889.83s WALL (      27 calls)
     update_pot   :     42.18s CPU     43.27s WALL (      26 calls)
     forces       :   1981.33s CPU   2024.96s WALL (      27 calls)
     force_dftd3  :     10.34s CPU     10.88s WALL (      27 calls)

     Called by init_run:
     wfcinit      :     79.79s CPU     80.82s WALL (       1 calls)
     potinit      :      1.38s CPU      1.59s WALL (       1 calls)
     hinit0       :      9.20s CPU      9.30s WALL (       1 calls)

     Called by electrons:
     c_bands      : 110913.42s CPU 112078.93s WALL (     365 calls)
     sum_band     :  13699.71s CPU  14099.48s WALL (     365 calls)
     v_of_rho     :    106.67s CPU    120.09s WALL (     371 calls)
     newd         :   1894.57s CPU   2250.79s WALL (     371 calls)
     PAW_pot      :    420.48s CPU    423.36s WALL (     397 calls)
     mix_rho      :     28.75s CPU     33.02s WALL (     365 calls)
     energy_dftd3 :      5.99s CPU      6.03s WALL (      27 calls)

     Called by c_bands:
     init_us_2    :    519.97s CPU    522.31s WALL (    3136 calls)
     init_us_2:cp :    519.95s CPU    522.29s WALL (    3136 calls)
     cegterg      : 108672.76s CPU 109828.71s WALL (    1477 calls)

     Called by *egterg:
     cdiaghg      :   5968.97s CPU   6207.50s WALL (   18365 calls)
     h_psi        :  55717.82s CPU  56120.29s WALL (   18557 calls)
     s_psi        :  12122.14s CPU  12173.37s WALL (   18557 calls)
     g_psi        :    123.20s CPU    123.76s WALL (   17076 calls)

     Called by h_psi:
     h_psi:calbec :  11741.44s CPU  11785.40s WALL (   18557 calls)
     vloc_psi     :  31522.35s CPU  31736.44s WALL (   18557 calls)
     add_vuspsi   :  12187.85s CPU  12244.97s WALL (   18557 calls)

     General routines
     calbec       :  16617.68s CPU  16677.37s WALL (   20553 calls)
     fft          :     78.94s CPU     90.55s WALL (    5113 calls)
     ffts         :      4.66s CPU      4.87s WALL (     736 calls)
     fftw         :  23415.63s CPU  23566.06s WALL ( 8310344 calls)
     interpolate  :      8.70s CPU      9.58s WALL (     371 calls)
 
     Parallel routines
 
     PWSCF        :   1d12h 2m CPU   1d12h36m WALL

 
   This run was terminated on:  22: 0:25  28Mar2024            

=------------------------------------------------------------------------------=
   JOB DONE.
=------------------------------------------------------------------------------=
