
     Program PWSCF v.7.3 starts on 19Mar2024 at 15:35: 9 

     This program is part of the open-source Quantum ESPRESSO suite
     for quantum simulation of materials; please cite
         "P. Giannozzi et al., J. Phys.:Condens. Matter 21 395502 (2009);
         "P. Giannozzi et al., J. Phys.:Condens. Matter 29 465901 (2017);
         "P. Giannozzi et al., J. Chem. Phys. 152 154105 (2020);
          URL http://www.quantum-espresso.org", 
     in publications or presentations arising from this work. More details at
     http://www.quantum-espresso.org/quote

     Parallel version (MPI & OpenMP), running on      36 processor cores
     Number of MPI processes:                36
     Threads/MPI process:                     1

     MPI processes distributed on     1 nodes
     560427 MiB available memory on the printing compute node when the environment starts
 
     Waiting for input...
     Reading input from standard input
Warning: card &CELL ignored
Warning: card / ignored

     Current dimensions of program PWSCF are:
     Max number of different atomic species (ntypx) = 10
     Max number of k-points (npk) =  40000
     Max angular momentum in pseudopotentials (lmaxx) =  4
     file Mo.pbe-spn-kjpaw_psl.1.0.0.UPF: wavefunction(s)  4S 4D renormalized
     file S.pbe-n-kjpaw_psl.1.0.0.UPF: wavefunction(s)  3S 3P renormalized
     file Pt.pbe-spfn-kjpaw_psl.1.0.0.UPF: wavefunction(s)  5P 4F renormalized
     file Pd.pbe-spn-kjpaw_psl.1.0.0.UPF: wavefunction(s)  4S 5S 4D renormalized
 
     R & G space division:  proc/nbgrp/npool/nimage =      36
     Subspace diagonalization in iterative solution of the eigenvalue problem:
     one sub-group per band group will be used
     scalapack distributed-memory algorithm (size of sub-group:  6*  6 procs)

 
     Parallelization info
     --------------------
     sticks:   dense  smooth     PW     G-vecs:    dense   smooth      PW
     Min         585     334     89               198743    85850   11735
     Max         586     335     90               198750    85861   11748
     Sum       21073   12049   3205              7154885  3090769  422587
 
     Using Slab Decomposition
 


     bravais-lattice index     =            0
     lattice parameter (alat)  =      23.8199  a.u.
     unit-cell volume          =   33861.0370 (a.u.)^3
     number of atoms/cell      =          194
     number of atomic types    =            4
     number of electrons       =      1714.00
     number of Kohn-Sham states=         1028
     kinetic-energy cutoff     =      77.0000  Ry
     charge density cutoff     =     539.0000  Ry
     scf convergence threshold =      1.0E-06
     mixing beta               =       0.2000
     number of iterations used =            8  plain     mixing
     energy convergence thresh.=      1.0E-04
     force convergence thresh. =      1.0E-03
     Exchange-correlation= SLA  PW   PBX  PBC
                           (   1   4   3   4   0   0   0)
     nstep                     =         1000


     Effective Screening Medium Method
     =================================
     Boundary Conditions: Vacuum-Slab-Vacuum
     total charge in unit cell        =   0.0000
     grid points for fit at edges     =        4 
 

     celldm(1)=  23.819920  celldm(2)=   0.000000  celldm(3)=   0.000000
     celldm(4)=   0.000000  celldm(5)=   0.000000  celldm(6)=   0.000000

     crystal axes: (cart. coord. in units of alat)
               a(1) = (   1.000000   0.000000   0.000000 )  
               a(2) = (  -0.499999   0.866026   0.000000 )  
               a(3) = (   0.000000   0.000000   2.893000 )  

     reciprocal axes: (cart. coord. in units 2 pi/alat)
               b(1) = (  1.000000  0.577349  0.000000 )  
               b(2) = (  0.000000  1.154700  0.000000 )  
               b(3) = (  0.000000  0.000000  0.345662 )  


     PseudoPot. # 1 for Mo read from file:
     ./pseudo/Mo.pbe-spn-kjpaw_psl.1.0.0.UPF
     MD5 check sum: 317bf72632116215fd98f72de1686f13
     Pseudo is Projector augmented-wave + core cor, Zval = 14.0
     Generated using 'atomic' code by A. Dal Corso  v.7.2
     Shape of augmentation charge: PSQ
     Using radial grid of 1229 points,  6 beta functions with: 
                l(1) =   0
                l(2) =   0
                l(3) =   1
                l(4) =   1
                l(5) =   2
                l(6) =   2
     Q(r) pseudized with 0 coefficients 


     PseudoPot. # 2 for S  read from file:
     ./pseudo/S.pbe-n-kjpaw_psl.1.0.0.UPF
     MD5 check sum: 8b7b5302570d38d5e87fed6a1065abda
     Pseudo is Projector augmented-wave + core cor, Zval =  6.0
     Generated using 'atomic' code by A. Dal Corso  v.7.2
     Shape of augmentation charge: PSQ
     Using radial grid of 1151 points,  6 beta functions with: 
                l(1) =   0
                l(2) =   0
                l(3) =   1
                l(4) =   1
                l(5) =   2
                l(6) =   2
     Q(r) pseudized with 0 coefficients 


     PseudoPot. # 3 for Pt read from file:
     ./pseudo/Pt.pbe-spfn-kjpaw_psl.1.0.0.UPF
     MD5 check sum: 620096ebf4e6ebacc94de60fd67efcb5
     Pseudo is Projector augmented-wave + core cor, Zval = 32.0
     Generated using 'atomic' code by A. Dal Corso  v.7.2
     Shape of augmentation charge: PSQ
     Using radial grid of 1277 points,  8 beta functions with: 
                l(1) =   0
                l(2) =   0
                l(3) =   1
                l(4) =   1
                l(5) =   2
                l(6) =   2
                l(7) =   3
                l(8) =   3
     Q(r) pseudized with 0 coefficients 


     PseudoPot. # 4 for Pd read from file:
     ./pseudo/Pd.pbe-spn-kjpaw_psl.1.0.0.UPF
     MD5 check sum: a60571a671f2502b8a6a4569d20a6edb
     Pseudo is Projector augmented-wave + core cor, Zval = 18.0
     Generated using 'atomic' code by A. Dal Corso  v.7.2
     Shape of augmentation charge: PSQ
     Using radial grid of 1235 points,  6 beta functions with: 
                l(1) =   0
                l(2) =   0
                l(3) =   1
                l(4) =   1
                l(5) =   2
                l(6) =   2
     Q(r) pseudized with 0 coefficients 


     atomic species   valence    mass     pseudopotential
     Mo               14.00    95.95000     Mo( 1.00)
     S                 6.00    32.06000     S ( 1.00)
     Pt               32.00   195.08400     Pt( 1.00)
     Pd               18.00   106.42000     Pd( 1.00)

     No symmetry found



   Cartesian axes

     site n.     atom                  positions (alat units)
         1        Mo     tau(   1) = (   0.0000010   0.1443372  -0.7272732  )
         2        Mo     tau(   2) = (   0.1249995   0.0721706  -0.2424038  )
         3        S      tau(   3) = (   0.0000015   0.1443386  -0.3667807  )
         4        S      tau(   4) = (   0.1250010   0.0721682  -0.6030489  )
         5        S      tau(   5) = (   0.1250010   0.0721683  -0.8514963  )
         6        S      tau(   6) = (   0.0000015   0.1443389  -0.1180260  )
         7        Mo     tau(   7) = (   0.0000014   0.1443616   0.2424356  )
         8        Mo     tau(   8) = (   0.1250042   0.0720311   0.7263989  )
         9        S      tau(   9) = (   0.0000639   0.1447004   0.6020022  )
        10        S      tau(  10) = (   0.1250030   0.0721650   0.3667578  )
        11        S      tau(  11) = (   0.1250031   0.0721991   0.1180453  )
        12        S      tau(  12) = (  -0.0005532   0.1426765   0.8513101  )
        13        Mo     tau(  13) = (  -0.1249989   0.3608437  -0.7272732  )
        14        Mo     tau(  14) = (   0.0000030   0.2886752  -0.2424042  )
        15        S      tau(  15) = (  -0.1249977   0.3608450  -0.3667802  )
        16        S      tau(  16) = (   0.0000012   0.2886747  -0.6030489  )
        17        S      tau(  17) = (   0.0000012   0.2886748  -0.8514963  )
        18        S      tau(  18) = (  -0.1249977   0.3608454  -0.1180274  )
        19        Mo     tau(  19) = (  -0.1249758   0.3608563   0.2424461  )
        20        Mo     tau(  20) = (  -0.0009250   0.2875651   0.7279418  )
        21        S      tau(  21) = (  -0.1248723   0.3609173   0.6030853  )
        22        S      tau(  22) = (   0.0000474   0.2887247   0.3668317  )
        23        S      tau(  23) = (   0.0000000   0.2886879   0.1180554  )
        24        S      tau(  24) = (  -0.1255989   0.3604976   0.8519229  )
        25        Mo     tau(  25) = (  -0.2499987   0.5773502  -0.7272732  )
        26        Mo     tau(  26) = (  -0.1249977   0.5051839  -0.2424055  )
        27        S      tau(  27) = (  -0.2499981   0.5773518  -0.3667809  )
        28        S      tau(  28) = (  -0.1249986   0.5051812  -0.6030489  )
        29        S      tau(  29) = (  -0.1249986   0.5051813  -0.8514963  )
        30        S      tau(  30) = (  -0.2499979   0.5773512  -0.1180266  )
        31        Mo     tau(  31) = (  -0.2499765   0.5773372   0.2424355  )
        32        Mo     tau(  32) = (  -0.1264232   0.5049348   0.7279418  )
        33        S      tau(  33) = (  -0.2496528   0.5772237   0.6020023  )
        34        S      tau(  34) = (  -0.1249318   0.5051954   0.3668318  )
        35        S      tau(  35) = (  -0.1249873   0.5051727   0.1180553  )
        36        S      tau(  36) = (  -0.2517142   0.5777014   0.8513102  )
        37        Mo     tau(  37) = (  -0.3749985   0.7938567  -0.7272732  )
        38        Mo     tau(  38) = (  -0.2500001   0.7216874  -0.2424031  )
        39        S      tau(  39) = (  -0.3749980   0.7938584  -0.3667800  )
        40        S      tau(  40) = (  -0.2499984   0.7216877  -0.6030489  )
        41        S      tau(  41) = (  -0.2499984   0.7216878  -0.8514963  )
        42        S      tau(  42) = (  -0.3749982   0.7938585  -0.1180264  )
        43        Mo     tau(  43) = (  -0.3749961   0.7938572   0.2423820  )
        44        Mo     tau(  44) = (  -0.2501160   0.7217599   0.7263989  )
        45        S      tau(  45) = (  -0.3749948   0.7938592   0.6019084  )
        46        S      tau(  46) = (  -0.2499995   0.7216903   0.3667578  )
        47        S      tau(  47) = (  -0.2499699   0.7216732   0.1180452  )
        48        S      tau(  48) = (  -0.3749951   0.7938590   0.8508262  )
        49        Mo     tau(  49) = (   0.2500010   0.1443372  -0.7272732  )
        50        Mo     tau(  50) = (   0.3750034   0.0721723  -0.2424032  )
        51        S      tau(  51) = (   0.2500017   0.1443391  -0.3667788  )
        52        S      tau(  52) = (   0.3750010   0.0721682  -0.6030489  )
        53        S      tau(  53) = (   0.3750010   0.0721683  -0.8514963  )
        54        S      tau(  54) = (   0.2500016   0.1443391  -0.1180271  )
        55        Mo     tau(  55) = (   0.2500050   0.1443618   0.2424356  )
        56        Mo     tau(  56) = (   0.3749291   0.0721273   0.7261578  )
        57        S      tau(  57) = (   0.2499446   0.1447002   0.6020022  )
        58        S      tau(  58) = (   0.3750312   0.0721852   0.3667808  )
        59        S      tau(  59) = (   0.3749943   0.0721639   0.1180502  )
        60        S      tau(  60) = (   0.2505615   0.1426764   0.8513103  )
        61        Mo     tau(  61) = (   0.1250012   0.3608437  -0.7272732  )
        62        Mo     tau(  62) = (   0.2500029   0.2886782  -0.2424031  )
        63        S      tau(  63) = (   0.1250024   0.3608455  -0.3667794  )
        64        S      tau(  64) = (   0.2500012   0.2886747  -0.6030489  )
        65        S      tau(  65) = (   0.2500012   0.2886748  -0.8514963  )
        66        S      tau(  66) = (   0.1250021   0.3608455  -0.1180270  )
        67        Mo     tau(  67) = (   0.1250036   0.3608788   0.2424134  )
        68        Mo     tau(  68) = (   0.2509342   0.2875650   0.7279417  )
        69        S      tau(  69) = (   0.1250047   0.3631022   0.6070003  )
        70        S      tau(  70) = (   0.2499595   0.2887248   0.3668321  )
        71        S      tau(  71) = (   0.2500069   0.2886879   0.1180551  )
        72        S      tau(  72) = (   0.1250048   0.3485809   0.8580653  )
        73        Mo     tau(  73) = (   0.0000014   0.5773502  -0.7272732  )
        74        Mo     tau(  74) = (   0.1250045   0.5051840  -0.2424036  )
        75        S      tau(  75) = (   0.0000030   0.5773520  -0.3667799  )
        76        S      tau(  76) = (   0.1250014   0.5051812  -0.6030489  )
        77        S      tau(  77) = (   0.1250014   0.5051813  -0.8514963  )
        78        S      tau(  78) = (   0.0000026   0.5773517  -0.1180274  )
        79        Mo     tau(  79) = (   0.0000336   0.5773337   0.2424134  )
        80        Mo     tau(  80) = (   0.1250049   0.5051837   0.7323431  )
        81        S      tau(  81) = (   0.0019589   0.5762246   0.6070004  )
        82        S      tau(  82) = (   0.1250038   0.5051820   0.3668453  )
        83        S      tau(  83) = (   0.1250038   0.5051819   0.1180162  )
        84        S      tau(  84) = (  -0.0106172   0.5834855   0.8580649  )
        85        Mo     tau(  85) = (  -0.1249984   0.7938567  -0.7272732  )
        86        Mo     tau(  86) = (   0.0000069   0.7216896  -0.2424039  )
        87        S      tau(  87) = (  -0.1249975   0.7938582  -0.3667782  )
        88        S      tau(  88) = (   0.0000016   0.7216877  -0.6030489  )
        89        S      tau(  89) = (   0.0000016   0.7216878  -0.8514963  )
        90        S      tau(  90) = (  -0.1249973   0.7938582  -0.1180279  )
        91        Mo     tau(  91) = (  -0.1249742   0.7938470   0.2424356  )
        92        Mo     tau(  92) = (  -0.0004933   0.7230516   0.7279416  )
        93        S      tau(  93) = (  -0.1247124   0.7936270   0.6020023  )
        94        S      tau(  94) = (   0.0000246   0.7216257   0.3668322  )
        95        S      tau(  95) = (   0.0000165   0.7216852   0.1180552  )
        96        S      tau(  96) = (  -0.1261568   0.7951731   0.8513104  )
        97        Mo     tau(  97) = (   0.5000010   0.1443372  -0.7272732  )
        98        Mo     tau(  98) = (   0.6250001   0.0721662  -0.2424040  )
        99        S      tau(  99) = (   0.5000017   0.1443386  -0.3667801  )
       100        S      tau( 100) = (   0.6250010   0.0721682  -0.6030489  )
       101        S      tau( 101) = (   0.6250010   0.0721683  -0.8514963  )
       102        S      tau( 102) = (   0.5000020   0.1443388  -0.1180261  )
       103        Mo     tau( 103) = (   0.5000076   0.1443402   0.2423934  )
       104        Mo     tau( 104) = (   0.6250040   0.0723531   0.7270557  )
       105        S      tau( 105) = (   0.5002419   0.1444767   0.6022126  )
       106        S      tau( 106) = (   0.6250031   0.0721699   0.3667634  )
       107        S      tau( 107) = (   0.6250031   0.0721381   0.1180360  )
       108        S      tau( 108) = (   0.4998195   0.1442328   0.8511552  )
       109        Mo     tau( 109) = (   0.3750012   0.3608437  -0.7272732  )
       110        Mo     tau( 110) = (   0.4999991   0.2886761  -0.2424038  )
       111        S      tau( 111) = (   0.3750012   0.3608452  -0.3667804  )
       112        S      tau( 112) = (   0.5000012   0.2886747  -0.6030489  )
       113        S      tau( 113) = (   0.5000012   0.2886748  -0.8514963  )
       114        S      tau( 114) = (   0.3750014   0.3608455  -0.1180261  )
       115        Mo     tau( 115) = (   0.3749823   0.3608562   0.2424462  )
       116        Mo     tau( 116) = (   0.5001624   0.2885857   0.7270558  )
       117        S      tau( 117) = (   0.3748813   0.3609171   0.6030850  )
       118        S      tau( 118) = (   0.5000041   0.2886750   0.3667632  )
       119        S      tau( 119) = (   0.4999767   0.2886908   0.1180361  )
       120        S      tau( 120) = (   0.3756080   0.3604978   0.8519227  )
       121        Mo     tau( 121) = (   0.2500014   0.5773502  -0.7272732  )
       122        Mo     tau( 122) = (   0.3749983   0.5051825  -0.2424043  )
       123        S      tau( 123) = (   0.2500017   0.5773519  -0.3667810  )
       124        S      tau( 124) = (   0.3750014   0.5051812  -0.6030489  )
       125        S      tau( 125) = (   0.3750014   0.5051813  -0.8514963  )
       126        S      tau( 126) = (   0.2500018   0.5773519  -0.1180256  )
       127        Mo     tau( 127) = (   0.2499737   0.5773335   0.2424135  )
       128        Mo     tau( 128) = (   0.3764328   0.5049349   0.7279416  )
       129        S      tau( 129) = (   0.2480514   0.5762247   0.6070002  )
       130        S      tau( 130) = (   0.3749389   0.5051953   0.3668317  )
       131        S      tau( 131) = (   0.3749944   0.5051727   0.1180554  )
       132        S      tau( 132) = (   0.2606253   0.5834843   0.8580650  )
       133        Mo     tau( 133) = (   0.1250016   0.7938567  -0.7272732  )
       134        Mo     tau( 134) = (   0.2499995   0.7216883  -0.2424036  )
       135        S      tau( 135) = (   0.1250024   0.7938578  -0.3667813  )
       136        S      tau( 136) = (   0.2500016   0.7216877  -0.6030489  )
       137        S      tau( 137) = (   0.2500016   0.7216878  -0.8514963  )
       138        S      tau( 138) = (   0.1250024   0.7938579  -0.1180253  )
       139        Mo     tau( 139) = (   0.1250038   0.7938330   0.2424463  )
       140        Mo     tau( 140) = (   0.2505035   0.7230514   0.7279415  )
       141        S      tau( 141) = (   0.1250048   0.7937168   0.6030849  )
       142        S      tau( 142) = (   0.2499835   0.7216255   0.3668318  )
       143        S      tau( 143) = (   0.2499914   0.7216850   0.1180556  )
       144        S      tau( 144) = (   0.1250053   0.7945558   0.8519227  )
       145        Mo     tau( 145) = (   0.7500010   0.1443372  -0.7272732  )
       146        Mo     tau( 146) = (   0.8750038   0.0721696  -0.2424038  )
       147        S      tau( 147) = (   0.7500016   0.1443382  -0.3667789  )
       148        S      tau( 148) = (   0.8750010   0.0721682  -0.6030489  )
       149        S      tau( 149) = (   0.8750010   0.0721683  -0.8514963  )
       150        S      tau( 150) = (   0.7500016   0.1443384  -0.1180279  )
       151        Mo     tau( 151) = (   0.7499988   0.1443404   0.2423934  )
       152        Mo     tau( 152) = (   0.8750792   0.0721276   0.7261574  )
       153        S      tau( 153) = (   0.7497661   0.1444769   0.6022124  )
       154        S      tau( 154) = (   0.8749753   0.0721851   0.3667807  )
       155        S      tau( 155) = (   0.8750121   0.0721637   0.1180502  )
       156        S      tau( 156) = (   0.7501887   0.1442327   0.8511550  )
       157        Mo     tau( 157) = (   0.6250012   0.3608437  -0.7272732  )
       158        Mo     tau( 158) = (   0.7500028   0.2886769  -0.2424041  )
       159        S      tau( 159) = (   0.6250015   0.3608451  -0.3667792  )
       160        S      tau( 160) = (   0.7500012   0.2886747  -0.6030489  )
       161        S      tau( 161) = (   0.7500012   0.2886748  -0.8514963  )
       162        S      tau( 162) = (   0.6250016   0.3608454  -0.1180280  )
       163        Mo     tau( 163) = (   0.6250035   0.3608392   0.2423934  )
       164        Mo     tau( 164) = (   0.7498463   0.2885859   0.7270559  )
       165        S      tau( 165) = (   0.6250044   0.3605709   0.6022125  )
       166        S      tau( 166) = (   0.7500026   0.2886750   0.3667635  )
       167        S      tau( 167) = (   0.7500299   0.2886908   0.1180357  )
       168        S      tau( 168) = (   0.6250043   0.3610591   0.8511551  )
       169        Mo     tau( 169) = (   0.5000014   0.5773502  -0.7272732  )
       170        Mo     tau( 170) = (   0.6250029   0.5051841  -0.2424047  )
       171        S      tau( 171) = (   0.5000014   0.5773518  -0.3667794  )
       172        S      tau( 172) = (   0.6250014   0.5051812  -0.6030489  )
       173        S      tau( 173) = (   0.6250014   0.5051813  -0.8514963  )
       174        S      tau( 174) = (   0.5000016   0.5773516  -0.1180277  )
       175        Mo     tau( 175) = (   0.4999838   0.5773372   0.2424356  )
       176        Mo     tau( 176) = (   0.6250048   0.5052701   0.7261575  )
       177        S      tau( 177) = (   0.4996630   0.5772238   0.6020019  )
       178        S      tau( 178) = (   0.6250037   0.5051496   0.3667806  )
       179        S      tau( 179) = (   0.6250036   0.5051921   0.1180503  )
       180        S      tau( 180) = (   0.5017240   0.5777016   0.8513099  )
       181        Mo     tau( 181) = (   0.3750016   0.7938567  -0.7272732  )
       182        Mo     tau( 182) = (   0.5000025   0.7216901  -0.2424039  )
       183        S      tau( 183) = (   0.3750019   0.7938578  -0.3667793  )
       184        S      tau( 184) = (   0.5000016   0.7216877  -0.6030489  )
       185        S      tau( 185) = (   0.5000016   0.7216878  -0.8514963  )
       186        S      tau( 186) = (   0.3750020   0.7938579  -0.1180272  )
       187        Mo     tau( 187) = (   0.3749825   0.7938468   0.2424356  )
       188        Mo     tau( 188) = (   0.5001261   0.7217601   0.7263985  )
       189        S      tau( 189) = (   0.3747228   0.7936274   0.6020018  )
       190        S      tau( 190) = (   0.5000073   0.7216903   0.3667579  )
       191        S      tau( 191) = (   0.4999777   0.7216732   0.1180450  )
       192        S      tau( 192) = (   0.3761670   0.7951734   0.8513099  )
       193        Pt     tau( 193) = (   0.1250041   0.5051825   0.9498857  )
       194        Pd     tau( 194) = (   0.2537626   0.4308622   1.0802098  )

     --------------------------------------------
     DFT-D3 Dispersion Correction (3-body terms):
     --------------------------------------------
       Reference C6 values for interpolation: 

         atom   Coordination number   C6
         S          0.000           268.01
         S          0.995           261.99
         S          1.990           251.62
         Mo         0.000          1691.79
         Mo         1.942          1004.01
         Mo        11.056           674.22
         Pd         0.000          1217.01
         Pd         1.863           573.90
         Pd         5.710           531.75
         Pt         0.000           782.29
         Pt         1.919           692.72
         Pt         6.667           673.75

       Values used:

         atom   Coordination number  R0_AB[au]  C6      C8
         Mo        10.208            3.547    674.22  77634.20
         Mo        10.221            3.547    674.22  77634.20
         S          3.858            3.128    251.62  12327.25
         S          3.859            3.128    251.62  12327.25
         S          3.758            3.128    251.62  12327.25
         S          3.859            3.128    251.62  12327.25
         Mo        10.220            3.547    674.22  77634.20
         Mo        10.236            3.547    674.22  77634.20
         S          3.844            3.128    251.62  12327.25
         S          3.861            3.128    251.62  12327.25
         S          3.859            3.128    251.62  12327.25
         S          3.828            3.128    251.62  12327.25
         Mo        10.208            3.547    674.22  77634.20
         Mo        10.221            3.547    674.21  77634.20
         S          3.858            3.128    251.62  12327.25
         S          3.859            3.128    251.62  12327.25
         S          3.758            3.128    251.62  12327.25
         S          3.859            3.128    251.62  12327.25
         Mo        10.221            3.547    674.22  77634.20
         Mo        10.192            3.547    674.22  77634.20
         S          3.857            3.128    251.62  12327.25
         S          3.855            3.128    251.62  12327.25
         S          3.859            3.128    251.62  12327.25
         S          3.758            3.128    251.62  12327.25
         Mo        10.208            3.547    674.22  77634.20
         Mo        10.221            3.547    674.22  77634.20
         S          3.858            3.128    251.62  12327.25
         S          3.859            3.128    251.62  12327.25
         S          3.758            3.128    251.62  12327.25
         S          3.859            3.128    251.62  12327.25
         Mo        10.220            3.547    674.22  77634.20
         Mo        10.192            3.547    674.22  77634.20
         S          3.844            3.128    251.62  12327.25
         S          3.855            3.128    251.62  12327.25
         S          3.859            3.128    251.62  12327.25
         S          3.828            3.128    251.62  12327.25
         Mo        10.208            3.547    674.22  77634.20
         Mo        10.221            3.547    674.22  77634.20
         S          3.858            3.128    251.62  12327.25
         S          3.859            3.128    251.62  12327.25
         S          3.758            3.128    251.62  12327.25
         S          3.859            3.128    251.62  12327.25
         Mo        10.219            3.547    674.22  77634.20
         Mo        10.236            3.547    674.22  77634.20
         S          3.852            3.128    251.62  12327.25
         S          3.861            3.128    251.62  12327.25
         S          3.859            3.128    251.62  12327.25
         S          3.792            3.128    251.62  12327.25
         Mo        10.208            3.547    674.22  77634.20
         Mo        10.221            3.547    674.22  77634.20
         S          3.858            3.128    251.62  12327.25
         S          3.859            3.128    251.62  12327.25
         S          3.758            3.128    251.62  12327.25
         S          3.859            3.128    251.62  12327.25
         Mo        10.220            3.547    674.22  77634.20
         Mo        10.250            3.547    674.22  77634.20
         S          3.844            3.128    251.62  12327.25
         S          3.860            3.128    251.62  12327.25
         S          3.859            3.128    251.62  12327.25
         S          3.830            3.128    251.62  12327.25
         Mo        10.208            3.547    674.22  77634.20
         Mo        10.221            3.547    674.21  77634.20
         S          3.858            3.128    251.62  12327.25
         S          3.859            3.128    251.62  12327.25
         S          3.758            3.128    251.62  12327.25
         S          3.859            3.128    251.62  12327.25
         Mo        10.222            3.547    674.22  77634.20
         Mo        10.195            3.547    674.22  77634.20
         S          3.865            3.128    251.62  12327.25
         S          3.855            3.128    251.62  12327.25
         S          3.859            3.128    251.62  12327.25
         S          4.716            3.128    251.62  12327.25
         Mo        10.208            3.547    674.22  77634.20
         Mo        10.221            3.547    674.22  77634.20
         S          3.858            3.128    251.62  12327.25
         S          3.859            3.128    251.62  12327.25
         S          3.758            3.128    251.62  12327.25
         S          3.859            3.128    251.62  12327.25
         Mo        10.222            3.547    674.22  77634.20
         Mo        10.912            3.547    674.21  77634.20
         S          3.865            3.128    251.62  12327.25
         S          3.851            3.128    251.62  12327.25
         S          3.859            3.128    251.62  12327.25
         S          4.661            3.128    251.62  12327.25
         Mo        10.208            3.547    674.22  77634.20
         Mo        10.221            3.547    674.22  77634.20
         S          3.858            3.128    251.62  12327.25
         S          3.859            3.128    251.62  12327.25
         S          3.758            3.128    251.62  12327.25
         S          3.859            3.128    251.62  12327.25
         Mo        10.220            3.547    674.22  77634.20
         Mo        10.192            3.547    674.22  77634.20
         S          3.844            3.128    251.62  12327.25
         S          3.855            3.128    251.62  12327.25
         S          3.859            3.128    251.62  12327.25
         S          3.828            3.128    251.62  12327.25
         Mo        10.208            3.547    674.22  77634.20
         Mo        10.221            3.547    674.22  77634.20
         S          3.858            3.128    251.62  12327.25
         S          3.859            3.128    251.62  12327.25
         S          3.758            3.128    251.62  12327.25
         S          3.859            3.128    251.62  12327.25
         Mo        10.220            3.547    674.22  77634.20
         Mo        10.236            3.547    674.22  77634.20
         S          3.860            3.128    251.62  12327.25
         S          3.860            3.128    251.62  12327.25
         S          3.859            3.128    251.62  12327.25
         S          3.769            3.128    251.62  12327.25
         Mo        10.208            3.547    674.22  77634.20
         Mo        10.221            3.547    674.22  77634.20
         S          3.858            3.128    251.62  12327.25
         S          3.859            3.128    251.62  12327.25
         S          3.758            3.128    251.62  12327.25
         S          3.859            3.128    251.62  12327.25
         Mo        10.221            3.547    674.22  77634.20
         Mo        10.236            3.547    674.22  77634.20
         S          3.857            3.128    251.62  12327.25
         S          3.860            3.128    251.62  12327.25
         S          3.859            3.128    251.62  12327.25
         S          3.818            3.128    251.62  12327.25
         Mo        10.208            3.547    674.22  77634.20
         Mo        10.221            3.547    674.22  77634.20
         S          3.858            3.128    251.62  12327.25
         S          3.859            3.128    251.62  12327.25
         S          3.758            3.128    251.62  12327.25
         S          3.859            3.128    251.62  12327.25
         Mo        10.222            3.547    674.22  77634.20
         Mo        10.195            3.547    674.22  77634.20
         S          3.865            3.128    251.62  12327.25
         S          3.855            3.128    251.62  12327.25
         S          3.859            3.128    251.62  12327.25
         S          4.716            3.128    251.62  12327.25
         Mo        10.208            3.547    674.22  77634.20
         Mo        10.221            3.547    674.22  77634.20
         S          3.858            3.128    251.62  12327.25
         S          3.859            3.128    251.62  12327.25
         S          3.758            3.128    251.62  12327.25
         S          3.859            3.128    251.62  12327.25
         Mo        10.221            3.547    674.22  77634.20
         Mo        10.192            3.547    674.22  77634.20
         S          3.857            3.128    251.62  12327.25
         S          3.855            3.128    251.62  12327.25
         S          3.859            3.128    251.62  12327.25
         S          3.758            3.128    251.62  12327.25
         Mo        10.208            3.547    674.22  77634.20
         Mo        10.221            3.547    674.22  77634.20
         S          3.858            3.128    251.62  12327.25
         S          3.859            3.128    251.62  12327.25
         S          3.758            3.128    251.62  12327.25
         S          3.859            3.128    251.62  12327.25
         Mo        10.220            3.547    674.22  77634.20
         Mo        10.250            3.547    674.22  77634.20
         S          3.860            3.128    251.62  12327.25
         S          3.860            3.128    251.62  12327.25
         S          3.859            3.128    251.62  12327.25
         S          3.768            3.128    251.62  12327.25
         Mo        10.208            3.547    674.21  77634.20
         Mo        10.220            3.547    674.22  77634.20
         S          3.858            3.128    251.62  12327.25
         S          3.859            3.128    251.62  12327.25
         S          3.758            3.128    251.62  12327.25
         S          3.859            3.128    251.62  12327.25
         Mo        10.220            3.547    674.22  77634.20
         Mo        10.236            3.547    674.22  77634.20
         S          3.860            3.128    251.62  12327.25
         S          3.860            3.128    251.62  12327.25
         S          3.859            3.128    251.62  12327.25
         S          3.769            3.128    251.62  12327.25
         Mo        10.208            3.547    674.22  77634.20
         Mo        10.221            3.547    674.22  77634.20
         S          3.858            3.128    251.62  12327.25
         S          3.859            3.128    251.62  12327.25
         S          3.758            3.128    251.62  12327.25
         S          3.859            3.128    251.62  12327.25
         Mo        10.220            3.547    674.22  77634.20
         Mo        10.250            3.547    674.22  77634.20
         S          3.844            3.128    251.62  12327.25
         S          3.860            3.128    251.62  12327.25
         S          3.859            3.128    251.62  12327.25
         S          3.830            3.128    251.62  12327.25
         Mo        10.208            3.547    674.22  77634.20
         Mo        10.221            3.547    674.22  77634.20
         S          3.858            3.128    251.62  12327.25
         S          3.859            3.128    251.62  12327.25
         S          3.758            3.128    251.62  12327.25
         S          3.859            3.128    251.62  12327.25
         Mo        10.220            3.547    674.22  77634.20
         Mo        10.236            3.547    674.22  77634.20
         S          3.844            3.128    251.62  12327.25
         S          3.861            3.128    251.62  12327.25
         S          3.859            3.128    251.62  12327.25
         S          3.828            3.128    251.62  12327.25
         Pt         4.970            3.168    673.75  70061.90
         Pd         1.143            3.168    594.46  54466.35

         Molecular C6 ( Ry / a.u.^6 ) =  13986425.76


     number of k points=     4  Gaussian smearing, width (Ry)=  0.0100
                       cart. coord. in units 2pi/alat
        k(    1) = (   0.0000000   0.0000000   0.0000000), wk =   0.5000000
        k(    2) = (   0.0000000  -0.5773499   0.0000000), wk =   0.5000000
        k(    3) = (  -0.5000000  -0.2886744   0.0000000), wk =   0.5000000
        k(    4) = (  -0.5000000  -0.8660242   0.0000000), wk =   0.5000000

     Dense  grid:  7154885 G-vectors     FFT dimensions: ( 180, 180, 512)

     Smooth grid:  3090769 G-vectors     FFT dimensions: ( 135, 135, 400)

     Estimated max dynamical RAM per process >       4.31 GB

     Estimated total dynamical RAM >     155.10 GB

     Atomic positions and unit cell read from directory:
     ./outdir/pwscf.save/
     Atomic positions from file used, from input discarded
 

     The initial density is read from file :
     ./outdir/pwscf.save/charge-density


     negative rho (up, down):  9.094E-04 0.000E+00
     Cannot read wfcs: file not found
     Starting wfcs are 1179 randomized atomic wfcs
     Checking if some PAW data can be deallocated... 

     total cpu time spent up to now is      181.2 secs

     Self-consistent Calculation

     iteration #  1     ecut=    77.00 Ry     beta= 0.20
     Davidson diagonalization with overlap
     c_bands:  4 eigenvalues not converged
     c_bands: 17 eigenvalues not converged
     c_bands: 18 eigenvalues not converged
     c_bands:  9 eigenvalues not converged
     ethr =  1.00E-05,  avg # of iterations =115.0

     negative rho (up, down):  8.441E-04 0.000E+00

     total cpu time spent up to now is    10841.7 secs

     total energy              =  -33980.34254435 Ry
     estimated scf accuracy    <       1.59413620 Ry

     iteration #  2     ecut=    77.00 Ry     beta= 0.20
     Davidson diagonalization with overlap
     ethr =  9.30E-05,  avg # of iterations =  5.2

     negative rho (up, down):  8.116E-04 0.000E+00

     total cpu time spent up to now is    11272.8 secs

     total energy              =  -33980.30848698 Ry
     estimated scf accuracy    <       0.81452134 Ry

     iteration #  3     ecut=    77.00 Ry     beta= 0.20
     Davidson diagonalization with overlap
     ethr =  4.75E-05,  avg # of iterations =  5.0

     negative rho (up, down):  7.595E-04 0.000E+00

     total cpu time spent up to now is    11698.2 secs

     total energy              =  -33980.23716253 Ry
     estimated scf accuracy    <       0.28941956 Ry

     iteration #  4     ecut=    77.00 Ry     beta= 0.20
     Davidson diagonalization with overlap
     ethr =  1.69E-05,  avg # of iterations = 12.2

     negative rho (up, down):  7.466E-04 0.000E+00

     total cpu time spent up to now is    12206.8 secs

     total energy              =  -33980.27809621 Ry
     estimated scf accuracy    <       0.06304101 Ry

     iteration #  5     ecut=    77.00 Ry     beta= 0.20
     Davidson diagonalization with overlap
     c_bands:  5 eigenvalues not converged
     c_bands:  3 eigenvalues not converged
     c_bands:  4 eigenvalues not converged
     c_bands:  2 eigenvalues not converged
     ethr =  3.68E-06,  avg # of iterations = 25.0

     negative rho (up, down):  7.427E-04 0.000E+00

     total cpu time spent up to now is    12827.3 secs

     total energy              =  -33980.26885121 Ry
     estimated scf accuracy    <       0.03013035 Ry

     iteration #  6     ecut=    77.00 Ry     beta= 0.20
     Davidson diagonalization with overlap
     c_bands:  1 eigenvalues not converged
     c_bands:  5 eigenvalues not converged
     c_bands:  4 eigenvalues not converged
     c_bands:  2 eigenvalues not converged
     ethr =  1.76E-06,  avg # of iterations = 40.0

     negative rho (up, down):  7.484E-04 0.000E+00

     total cpu time spent up to now is    13859.1 secs

     total energy              =  -33980.27485360 Ry
     estimated scf accuracy    <       0.01057823 Ry

     iteration #  7     ecut=    77.00 Ry     beta= 0.20
     Davidson diagonalization with overlap
     ethr =  6.17E-07,  avg # of iterations =  9.0

     negative rho (up, down):  7.816E-04 0.000E+00

     total cpu time spent up to now is    14359.1 secs

     total energy              =  -33980.27627783 Ry
     estimated scf accuracy    <       0.00323327 Ry

     iteration #  8     ecut=    77.00 Ry     beta= 0.20
     Davidson diagonalization with overlap
     ethr =  1.89E-07,  avg # of iterations = 13.5

     negative rho (up, down):  8.118E-04 0.000E+00

     total cpu time spent up to now is    15168.5 secs

     total energy              =  -33980.27872330 Ry
     estimated scf accuracy    <       0.00200947 Ry

     iteration #  9     ecut=    77.00 Ry     beta= 0.20
     Davidson diagonalization with overlap
     ethr =  1.17E-07,  avg # of iterations = 10.5

     negative rho (up, down):  8.506E-04 0.000E+00

     total cpu time spent up to now is    15610.5 secs

     total energy              =  -33980.27854824 Ry
     estimated scf accuracy    <       0.00065304 Ry

     iteration # 10     ecut=    77.00 Ry     beta= 0.20
     Davidson diagonalization with overlap
     ethr =  3.81E-08,  avg # of iterations = 17.0

     negative rho (up, down):  8.569E-04 0.000E+00

     total cpu time spent up to now is    16511.7 secs

     total energy              =  -33980.27916770 Ry
     estimated scf accuracy    <       0.00035936 Ry

     iteration # 11     ecut=    77.00 Ry     beta= 0.20
     Davidson diagonalization with overlap
     ethr =  2.10E-08,  avg # of iterations =  9.0

     negative rho (up, down):  8.758E-04 0.000E+00

     total cpu time spent up to now is    16961.3 secs

     total energy              =  -33980.27917824 Ry
     estimated scf accuracy    <       0.00009745 Ry

     iteration # 12     ecut=    77.00 Ry     beta= 0.20
     Davidson diagonalization with overlap
     ethr =  5.69E-09,  avg # of iterations = 17.2

     negative rho (up, down):  8.859E-04 0.000E+00

     total cpu time spent up to now is    18026.9 secs

     total energy              =  -33980.27932392 Ry
     estimated scf accuracy    <       0.00004929 Ry

     iteration # 13     ecut=    77.00 Ry     beta= 0.20
     Davidson diagonalization with overlap
     ethr =  2.88E-09,  avg # of iterations = 11.2

     negative rho (up, down):  8.947E-04 0.000E+00

     total cpu time spent up to now is    18500.0 secs

     total energy              =  -33980.27932369 Ry
     estimated scf accuracy    <       0.00001401 Ry

     iteration # 14     ecut=    77.00 Ry     beta= 0.20
     Davidson diagonalization with overlap
     c_bands:  1 eigenvalues not converged
     ethr =  8.18E-10,  avg # of iterations = 17.8

     negative rho (up, down):  8.982E-04 0.000E+00

     total cpu time spent up to now is    19550.5 secs

     total energy              =  -33980.27934085 Ry
     estimated scf accuracy    <       0.00000855 Ry

     iteration # 15     ecut=    77.00 Ry     beta= 0.20
     Davidson diagonalization with overlap
     ethr =  4.99E-10,  avg # of iterations =  9.5

     negative rho (up, down):  9.047E-04 0.000E+00

     total cpu time spent up to now is    19991.8 secs

     total energy              =  -33980.27933666 Ry
     estimated scf accuracy    <       0.00000322 Ry

     iteration # 16     ecut=    77.00 Ry     beta= 0.20
     Davidson diagonalization with overlap
     ethr =  1.88E-10,  avg # of iterations = 14.0

     negative rho (up, down):  9.059E-04 0.000E+00

     total cpu time spent up to now is    20967.0 secs

     total energy              =  -33980.27933945 Ry
     estimated scf accuracy    <       0.00000257 Ry

     iteration # 17     ecut=    77.00 Ry     beta= 0.20
     Davidson diagonalization with overlap
     ethr =  1.50E-10,  avg # of iterations =  2.0

     negative rho (up, down):  9.099E-04 0.000E+00

     total cpu time spent up to now is    21374.1 secs

     End of self-consistent calculation

          k = 0.0000 0.0000 0.0000 (386245 PWs)   bands (ev):

  -103.0175 -87.6614 -71.3515 -71.3397 -71.3318 -71.3086 -71.3012 -71.2918
   -71.2813 -66.5859 -66.5842 -66.5841 -66.5829 -66.5721 -66.5694 -66.5660
   -66.5630 -66.5630 -66.5630 -66.5630 -66.5629 -66.5629 -66.5629 -66.5629
   -66.5628 -66.5628 -66.5628 -66.5626 -66.5616 -66.5616 -66.5616 -66.5615
   -66.5615 -66.5615 -66.5609 -66.5586 -66.5550 -66.5519 -66.5479 -66.5417
   -66.5416 -66.5416 -66.5416 -66.5416 -66.5416 -66.5415 -66.5415 -66.5415
   -66.5415 -66.5415 -66.5415 -66.5415 -66.5414 -66.5414 -66.5412 -66.5412
   -66.5412 -66.5402 -66.5402 -66.5402 -66.5402 -66.5402 -66.5401 -66.5401
   -66.5401 -66.5401 -66.5372 -66.5319 -66.5280 -66.5171 -66.5163 -66.4866
   -66.4788 -57.2551 -57.2403 -57.2041 -53.6664 -53.4526 -53.2758 -40.9116
   -40.9116 -40.9116 -40.9114 -40.9114 -40.9113 -40.9109 -40.9109 -40.9109
   -40.9055 -40.9030 -40.9018 -40.8363 -40.8363 -40.8363 -40.8363 -40.8363
   -40.8363 -40.8362 -40.8361 -40.8360 -40.8360 -40.8360 -40.8359 -40.8356
   -40.8356 -40.8355 -40.8355 -40.8355 -40.8355 -40.8342 -40.8330 -40.8254
   -40.8186 -40.8109 -40.8106 -40.7771 -40.7438 -40.7437 -40.7433 -40.7431
   -40.7144 -40.7124 -40.7103 -40.7100 -40.7100 -40.7099 -40.7099 -40.7099
   -40.7099 -40.7099 -40.7098 -40.7097 -40.7097 -40.7096 -40.7096 -40.7091
   -40.7091 -40.7091 -40.7091 -40.7091 -40.7091 -40.7076 -40.7060 -40.7053
   -40.7022 -40.7021 -40.7021 -40.7021 -40.7021 -40.7021 -40.7020 -40.7020
   -40.7020 -40.7019 -40.7019 -40.7019 -40.7014 -40.7014 -40.7014 -40.7013
   -40.7013 -40.7013 -40.6999 -40.6952 -40.6937 -40.6905 -40.6758 -40.6749
   -40.6749 -40.6749 -40.6749 -40.6749 -40.6749 -40.6748 -40.6748 -40.6747
   -40.6747 -40.6746 -40.6745 -40.6740 -40.6740 -40.6740 -40.6740 -40.6740
   -40.6740 -40.6732 -40.6723 -40.6708 -40.6671 -40.6656 -40.6638 -40.6635
   -40.6620 -40.6616 -40.6603 -40.6602 -40.6602 -40.6602 -40.6602 -40.6601
   -40.6601 -40.6601 -40.6601 -40.6601 -40.6600 -40.6600 -40.6600 -40.6600
   -40.6600 -40.6599 -40.6598 -40.6598 -40.6594 -40.6594 -40.6594 -40.6593
   -40.6593 -40.6593 -40.6593 -40.6593 -40.6592 -40.6555 -40.6544 -40.6435
   -40.6371 -40.6248 -40.6114 -40.5966 -40.5966 -40.5966 -40.5964 -40.5964
   -40.5963 -40.5956 -40.5956 -40.5956 -40.5875 -40.5874 -40.5846 -40.5495
   -40.5495 -40.5495 -40.5494 -40.5494 -40.5494 -40.5494 -40.5494 -40.5493
   -40.5492 -40.5491 -40.5490 -40.5484 -40.5484 -40.5484 -40.5484 -40.5484
   -40.5484 -40.5388 -40.5379 -40.5354 -40.5277 -40.5274 -40.5190 -40.5018
   -40.5018 -40.5016 -40.5016 -40.5008 -40.5008 -40.4789 -40.4755 -20.0988
   -20.0432 -19.9449 -19.8449 -19.3440 -19.2883 -19.2549 -19.2111 -19.2072
   -19.2065 -19.1937 -19.1914 -19.1874 -19.1587 -19.1467 -19.1455 -19.1040
   -19.1012 -19.0968 -19.0769 -19.0622 -19.0619 -19.0019 -19.0004 -18.9985
   -18.9919 -18.9852 -18.9852 -18.8598 -18.7477 -18.5986 -18.5786 -18.5360
   -18.5032 -18.4764 -18.4433 -18.4285 -18.4283 -18.3954 -18.3947 -18.3802
   -18.3688 -18.3245 -18.3237 -18.2895 -18.2701 -18.2487 -18.2420 -18.2151
   -18.2145 -18.2018 -18.1763 -18.1483 -18.1440 -18.1363 -18.1361 -18.1341
   -18.1263 -18.0891 -18.0825 -18.0809 -18.0804 -18.0787 -18.0781 -18.0731
   -18.0551 -18.0494 -18.0482 -18.0429 -18.0412 -18.0411 -18.0356 -18.0352
   -18.0333 -18.0132 -18.0114 -18.0101 -18.0087 -18.0051 -18.0044 -17.9904
   -17.9897 -17.9882 -17.9712 -17.9688 -17.9651 -17.9613 -17.9594 -17.9580
   -17.9462 -17.9452 -17.9433 -17.9115 -17.9082 -17.9017 -17.8847 -17.8800
   -17.8777 -17.8758 -17.8755 -17.8733 -17.8545 -17.8525 -17.8505 -17.8383
   -17.8347 -17.8307 -17.8275 -17.8251 -17.8229 -17.8175 -17.8172 -17.8172
   -17.8006 -17.8006 -17.7999 -17.7893 -17.7879 -17.7854 -17.7835 -17.7819
   -17.7794 -17.7570 -17.7566 -17.7559 -17.7553 -17.7547 -17.7536 -12.0488
   -11.9262 -11.8160 -11.8011 -11.7614 -11.7411 -11.7326 -11.7148 -11.6380
   -11.6235 -11.6185 -11.5211 -11.5135 -11.5116 -11.4311 -11.3295 -11.2958
   -11.2681 -11.1978 -11.1962 -11.1938 -11.1913 -11.1854 -11.1791 -11.1171
   -11.1170 -11.0932 -11.0924 -11.0909 -11.0894 -11.0848 -11.0674 -11.0545
   -11.0371 -11.0326 -11.0295 -11.0244 -11.0207 -11.0146 -11.0122 -11.0118
   -11.0021 -10.9903 -10.9857 -10.9734 -10.9476 -10.9334 -10.9334 -10.9063
   -10.9032 -10.8943 -10.8812 -10.8660 -10.8638 -10.8528 -10.8432 -10.8401
   -10.8308 -10.8126 -10.8107 -10.8081 -10.8077 -10.8076 -10.7986 -10.7939
   -10.7873 -10.7868 -10.7852 -10.7755 -10.7689 -10.7658 -10.7637 -10.7633
   -10.7626 -10.7622 -10.7582 -10.7405 -10.7402 -10.7338 -10.7328 -10.7299
   -10.7249 -10.7138 -10.7119 -10.7099 -10.6974 -10.6972 -10.6939 -10.6935
   -10.6923 -10.6917 -10.6200 -10.6200 -10.6168 -10.5715 -10.5592 -10.5465
   -10.5403 -10.5381 -10.5373 -10.4356 -10.4308 -10.2524 -10.1218 -10.1210
   -10.0673  -9.9329  -9.9206  -9.9104  -9.8764  -9.7900  -9.7832  -9.7710
    -9.7623  -9.7582  -9.7573  -9.7350  -9.7333  -9.7299  -9.7282  -9.7281
    -9.7213  -9.7209  -9.7184  -9.7156  -9.7069  -9.7068  -9.7011  -9.6973
    -9.6900  -9.6807  -9.6365  -9.6144  -9.5918  -9.5917  -9.5873  -9.5840
    -9.5823  -9.5798  -9.5769  -9.5764  -9.5758  -9.5755  -9.5731  -9.5666
    -9.5626  -9.5624  -9.5521  -9.5101  -9.5019  -9.5014  -9.5012  -9.5007
    -9.5006  -9.5000  -9.4935  -9.4895  -9.4859  -9.4729  -9.4721  -9.4611
    -9.4509  -9.4402  -9.4201  -9.4083  -9.4036  -9.3254  -9.3241  -9.3217
    -9.3155  -9.3047  -9.3017  -9.2953  -9.2892  -9.2828  -9.2729  -9.2696
    -9.2665  -9.2207  -9.2185  -9.2010  -9.1947  -9.1897  -9.1835  -9.1550
    -9.1471  -9.1446  -9.1423  -9.1397  -9.1393  -9.1367  -9.1154  -9.0971
    -9.0907  -9.0814  -9.0787  -9.0675  -9.0583  -9.0121  -8.9826  -8.9426
    -8.9416  -8.9409  -8.9272  -8.9168  -8.9135  -8.9055  -8.9039  -8.8936
    -8.8922  -8.8860  -8.8766  -8.8760  -8.8713  -8.8694  -8.8623  -8.8558
    -8.8334  -8.8206  -8.8158  -8.7813  -8.7810  -8.7808  -8.7802  -8.7801
    -8.7794  -8.7166  -8.7129  -8.7062  -8.7053  -8.7017  -8.6800  -8.6373
    -8.6289  -8.6284  -8.6247  -8.6231  -8.6079  -8.5941  -8.5589  -8.5544
    -8.5520  -8.5518  -8.5495  -8.5420  -8.5193  -8.4625  -8.4028  -8.3261
    -8.3261  -8.3212  -8.3208  -8.3172  -8.3147  -8.3135  -8.3077  -8.2805
    -8.2732  -8.2513  -8.2379  -8.2353  -8.2350  -8.2342  -8.2337  -8.2319
    -8.2177  -8.2090  -8.2082  -8.2067  -8.2058  -8.2047  -8.1935  -8.1810
    -8.1804  -8.1797  -8.1792  -8.1790  -8.1749  -8.1291  -8.0636  -8.0540
    -7.8893  -7.8264  -7.8214  -7.8162  -7.7692  -7.7480  -7.7302  -7.6893
    -7.6669  -7.6549  -7.6251  -7.6082  -7.6039  -7.6018  -7.6007  -7.5892
    -7.5861  -7.5751  -7.5726  -7.5699  -7.5501  -7.5359  -7.5317  -7.5166
    -7.5061  -7.4983  -7.4962  -7.4960  -7.4933  -7.4933  -7.4898  -7.4889
    -7.4881  -7.4742  -7.4688  -7.4661  -7.4658  -7.4657  -7.4628  -7.4509
    -7.4486  -7.4427  -7.4416  -7.4416  -7.4406  -7.4384  -7.4349  -7.4217
    -7.4167  -7.3951  -7.3895  -7.3798  -7.3781  -7.3728  -7.3681  -7.3653
    -7.3646  -7.3578  -7.3192  -7.3092  -7.3001  -7.2895  -7.2810  -7.2684
    -7.2594  -7.2568  -7.2535  -7.2484  -7.2478  -7.2475  -7.2424  -7.2315
    -7.2099  -7.2095  -7.1912  -7.1909  -7.1771  -7.1732  -7.1731  -7.1246
    -7.1137  -7.0706  -7.0613  -7.0484  -7.0248  -7.0041  -6.9600  -6.9071
    -6.8461  -6.8321  -6.8133  -6.8122  -6.8026  -6.7575  -6.7548  -6.7443
    -6.7425  -6.7086  -6.7063  -6.6907  -6.6881  -6.6509  -6.6414  -6.6350
    -6.5972  -6.5852  -6.5790  -6.5786  -6.5748  -6.5740  -6.5668  -6.5638
    -6.5419  -6.5200  -6.5122  -6.5076  -6.5009  -6.5008  -6.4847  -6.4743
    -6.4715  -6.4704  -6.4695  -6.4672  -6.4664  -6.4655  -6.4638  -6.4572
    -6.4569  -6.4568  -6.4565  -6.4561  -6.4561  -6.4485  -6.4265  -6.4173
    -6.4033  -6.3874  -6.3761  -6.3691  -6.3657  -6.3587  -6.3308  -6.3033
    -6.2998  -6.2968  -6.2918  -6.2917  -6.2872  -6.2781  -6.2756  -6.2693
    -6.2537  -6.2528  -6.2462  -6.2410  -6.2410  -6.2367  -6.2156  -6.2146
    -6.2113  -6.2103  -6.2100  -6.2091  -6.1903  -6.1699  -6.1501  -6.0201
    -5.9166  -5.8263  -5.7740  -5.5725  -5.5344  -5.5041  -5.2987  -5.1333
    -5.0861  -4.3999  -3.8438  -3.8120  -3.8086  -3.8036  -3.8035  -3.7887
    -3.7854  -3.7825  -3.7820  -3.7813  -3.7789  -3.7676  -3.7045  -3.6572
    -3.6486  -3.6458  -3.6449  -3.6399  -3.6379  -3.6360  -3.6347  -3.6345
    -3.6297  -3.5501  -3.5004  -3.4735  -3.4698  -3.4666  -3.4598  -3.4531
    -3.4431  -3.4380  -3.4327  -3.4309  -3.4306  -3.4284  -3.4236  -3.4180
    -3.4154  -3.4114  -3.4082  -3.4022  -3.4015  -3.4014  -3.3990  -3.3873
    -3.3871  -3.3866  -3.3780  -3.3756  -3.3724  -3.3713  -3.3703  -3.3689
    -3.3616  -3.3603  -3.3593  -3.3510  -3.3485  -3.3238  -3.3213  -3.3100
    -3.3078  -3.3049  -3.3048  -3.3003  -3.3002  -3.2990  -3.2898  -3.2716
    -3.2684  -3.2591  -3.2478  -3.2437  -3.2416  -3.2408  -3.2266  -3.2244
    -3.1871  -3.1856  -3.1716  -3.1600  -3.1570  -3.0741  -3.0340  -3.0338
    -3.0183  -3.0176  -3.0156  -3.0122  -3.0041  -3.0009  -2.9971  -2.9776
    -2.9597  -2.9446  -2.9350  -2.9334  -2.9316  -2.9298  -2.9287  -2.9267
    -2.9231  -2.9219  -2.9217  -2.9201  -2.9146  -2.9127  -2.9121  -2.9020
    -2.9017  -2.8951  -2.8944  -2.8931  -2.8930  -2.8905  -2.8903  -2.8885
    -2.8879  -2.8778  -2.8770  -2.8684  -2.8459  -2.8398  -2.8333  -2.8276
    -2.8208  -2.8173  -2.8168  -2.7865  -2.7656  -2.7655  -2.7653  -2.7652
    -2.7648  -2.7641  -2.7627  -2.7617  -2.7613  -2.7453  -2.7453  -2.7368
    -2.7210  -2.7074  -2.6949  -2.6936  -2.6893  -2.6832  -2.6816  -2.6373
    -2.6312  -2.6020  -2.5991  -2.5905  -2.5874  -2.5807  -2.5780  -2.5746
    -2.5724  -2.5564  -2.5320  -2.5096  -2.5011  -2.4984  -2.4983  -2.4377
    -2.4228  -2.4030  -2.3989  -2.3904

          k = 0.0000-0.5773 0.0000 (386352 PWs)   bands (ev):

  -103.0175 -87.6614 -71.3515 -71.3397 -71.3319 -71.3086 -71.3012 -71.2918
   -71.2813 -66.5835 -66.5780 -66.5780 -66.5780 -66.5778 -66.5778 -66.5767
   -66.5766 -66.5681 -66.5673 -66.5673 -66.5673 -66.5672 -66.5660 -66.5660
   -66.5657 -66.5585 -66.5579 -66.5558 -66.5522 -66.5522 -66.5522 -66.5522
   -66.5522 -66.5522 -66.5521 -66.5520 -66.5517 -66.5509 -66.5509 -66.5509
   -66.5509 -66.5483 -66.5478 -66.5478 -66.5478 -66.5476 -66.5464 -66.5464
   -66.5416 -66.5416 -66.5415 -66.5415 -66.5415 -66.5414 -66.5413 -66.5413
   -66.5402 -66.5402 -66.5401 -66.5401 -66.5371 -66.5371 -66.5371 -66.5370
   -66.5370 -66.5357 -66.5357 -66.5323 -66.5279 -66.5172 -66.5161 -66.4866
   -66.4788 -57.2551 -57.2403 -57.2041 -53.6664 -53.4527 -53.2758 -40.8868
   -40.8800 -40.8800 -40.8800 -40.8799 -40.8798 -40.8797 -40.8797 -40.8796
   -40.8793 -40.8793 -40.8793 -40.8792 -40.8771 -40.8648 -40.8538 -40.8532
   -40.8531 -40.8530 -40.8529 -40.8525 -40.8524 -40.8524 -40.8478 -40.8411
   -40.8411 -40.8409 -40.8408 -40.8404 -40.8404 -40.8290 -40.8132 -40.7904
   -40.7904 -40.7904 -40.7904 -40.7902 -40.7902 -40.7902 -40.7901 -40.7896
   -40.7896 -40.7896 -40.7896 -40.7793 -40.7773 -40.7756 -40.7707 -40.7637
   -40.7386 -40.7316 -40.7316 -40.7316 -40.7314 -40.7309 -40.7309 -40.7294
   -40.7221 -40.7221 -40.7219 -40.7219 -40.7212 -40.7212 -40.7117 -40.7107
   -40.7107 -40.7107 -40.7106 -40.7100 -40.7100 -40.7090 -40.7028 -40.7005
   -40.6876 -40.6846 -40.6812 -40.6811 -40.6811 -40.6811 -40.6811 -40.6810
   -40.6810 -40.6810 -40.6809 -40.6804 -40.6804 -40.6804 -40.6804 -40.6754
   -40.6724 -40.6724 -40.6724 -40.6722 -40.6716 -40.6716 -40.6713 -40.6663
   -40.6642 -40.6607 -40.6606 -40.6604 -40.6604 -40.6602 -40.6601 -40.6601
   -40.6601 -40.6600 -40.6600 -40.6600 -40.6599 -40.6597 -40.6597 -40.6593
   -40.6593 -40.6593 -40.6593 -40.6574 -40.6537 -40.6514 -40.6514 -40.6514
   -40.6514 -40.6513 -40.6506 -40.6506 -40.6442 -40.6297 -40.6297 -40.6297
   -40.6297 -40.6297 -40.6295 -40.6294 -40.6293 -40.6288 -40.6287 -40.6287
   -40.6287 -40.6276 -40.6237 -40.6232 -40.6157 -40.6136 -40.6106 -40.5950
   -40.5950 -40.5950 -40.5950 -40.5948 -40.5948 -40.5947 -40.5947 -40.5940
   -40.5940 -40.5940 -40.5940 -40.5866 -40.5831 -40.5828 -40.5828 -40.5826
   -40.5826 -40.5818 -40.5818 -40.5764 -40.5744 -40.5706 -40.5635 -40.5635
   -40.5634 -40.5631 -40.5625 -40.5625 -40.5541 -40.5510 -40.5465 -40.5465
   -40.5463 -40.5463 -40.5455 -40.5455 -40.5414 -40.5282 -40.5159 -40.5158
   -40.5157 -40.5156 -40.5148 -40.5148 -40.5143 -40.5035 -40.4829 -19.8999
   -19.8455 -19.8197 -19.7860 -19.7195 -19.6955 -19.6142 -19.6059 -19.4280
   -19.4165 -19.3762 -19.3673 -19.2845 -19.2786 -19.1863 -19.1844 -18.8952
   -18.8373 -18.7653 -18.7286 -18.7140 -18.6974 -18.6806 -18.6791 -18.6764
   -18.6730 -18.6345 -18.6169 -18.6071 -18.6014 -18.5876 -18.5763 -18.5393
   -18.5350 -18.5233 -18.5126 -18.5064 -18.5049 -18.4882 -18.4716 -18.4500
   -18.4416 -18.4349 -18.4286 -18.4238 -18.3938 -18.3697 -18.3665 -18.3576
   -18.3352 -18.3244 -18.3198 -18.2896 -18.2857 -18.2704 -18.2392 -18.2110
   -18.2050 -18.1942 -18.1876 -18.1569 -18.1496 -18.1315 -18.1134 -18.0847
   -18.0776 -18.0730 -18.0675 -18.0604 -18.0595 -18.0564 -18.0556 -18.0342
   -18.0329 -18.0306 -18.0260 -18.0254 -18.0219 -18.0101 -18.0070 -18.0065
   -17.9991 -17.9923 -17.9903 -17.9680 -17.9665 -17.9607 -17.9597 -17.9564
   -17.9557 -17.9498 -17.9478 -17.9454 -17.9357 -17.9046 -17.9010 -17.8955
   -17.8925 -17.8811 -17.8782 -17.8507 -17.8478 -17.8371 -17.8343 -17.8074
   -17.8058 -17.8007 -17.7982 -17.7897 -17.7817 -17.7783 -17.7774 -17.7766
   -17.7764 -17.7759 -17.7723 -17.7617 -17.7607 -17.7421 -17.7411 -17.7195
   -17.7179 -17.7011 -17.6988 -17.6862 -17.6849 -17.6782 -17.6780 -11.9230
   -11.6858 -11.6705 -11.6282 -11.5947 -11.4820 -11.4769 -11.4718 -11.4574
   -11.4553 -11.4401 -11.4377 -11.4240 -11.4107 -11.3955 -11.3608 -11.3502
   -11.3468 -11.3194 -11.3130 -11.2965 -11.2834 -11.2784 -11.2692 -11.2488
   -11.2337 -11.2279 -11.2252 -11.2178 -11.2165 -11.2100 -11.2035 -11.1967
   -11.1719 -11.1616 -11.1500 -11.1479 -11.1423 -11.1270 -11.1246 -11.1236
   -11.1142 -11.1128 -11.1040 -11.0993 -11.0709 -11.0432 -11.0395 -11.0240
   -11.0139 -11.0037 -10.9493 -10.9452 -10.9138 -10.9035 -10.8888 -10.8760
   -10.8671 -10.8599 -10.8521 -10.8410 -10.8315 -10.7989 -10.7937 -10.7897
   -10.7837 -10.7725 -10.7706 -10.7698 -10.7693 -10.7677 -10.7637 -10.7552
   -10.7535 -10.7513 -10.7500 -10.7492 -10.7475 -10.7424 -10.7410 -10.7382
   -10.7229 -10.7025 -10.7020 -10.7013 -10.6991 -10.6138 -10.5832 -10.5039
   -10.4979 -10.4947 -10.4855 -10.4476 -10.4223 -10.3653 -10.3305 -10.2683
   -10.2073 -10.1697 -10.1359 -10.1079 -10.0976 -10.0917 -10.0709 -10.0652
   -10.0507 -10.0444 -10.0150 -10.0098 -10.0061  -9.9923  -9.9884  -9.9829
    -9.9780  -9.9701  -9.9611  -9.9356  -9.9096  -9.8904  -9.8828  -9.8743
    -9.8675  -9.8621  -9.8537  -9.8510  -9.8287  -9.8147  -9.8074  -9.8056
    -9.7895  -9.7580  -9.7514  -9.7345  -9.7325  -9.7234  -9.7071  -9.6890
    -9.6799  -9.6663  -9.6606  -9.6431  -9.6316  -9.6110  -9.6055  -9.5805
    -9.5739  -9.5733  -9.5452  -9.5356  -9.5251  -9.5069  -9.5014  -9.4977
    -9.4939  -9.4833  -9.4697  -9.4476  -9.4464  -9.4404  -9.4333  -9.4286
    -9.4229  -9.4163  -9.4134  -9.4032  -9.3940  -9.3870  -9.3850  -9.3369
    -9.3184  -9.2762  -9.2656  -9.2411  -9.2186  -9.2092  -9.1787  -9.1679
    -9.1670  -9.1572  -9.1418  -9.1329  -9.1171  -9.1027  -9.1019  -9.0856
    -9.0742  -9.0593  -9.0532  -9.0368  -9.0193  -9.0071  -8.9966  -8.9924
    -8.9906  -8.9861  -8.9778  -8.9522  -8.9406  -8.9300  -8.9145  -8.9066
    -8.9052  -8.9002  -8.8831  -8.8770  -8.8575  -8.8487  -8.8481  -8.8468
    -8.8425  -8.8384  -8.8374  -8.8351  -8.8290  -8.8277  -8.8265  -8.8225
    -8.8152  -8.8092  -8.8015  -8.7987  -8.7983  -8.7978  -8.7859  -8.7691
    -8.7651  -8.7509  -8.7488  -8.7479  -8.7428  -8.7413  -8.7402  -8.7210
    -8.7175  -8.6934  -8.6910  -8.6880  -8.6854  -8.6812  -8.6641  -8.6592
    -8.6139  -8.6086  -8.5894  -8.5752  -8.5351  -8.4660  -8.4623  -8.4484
    -8.4053  -8.3929  -8.3795  -8.3226  -8.3101  -8.2641  -8.2521  -8.2085
    -8.1397  -8.0934  -8.0861  -8.0855  -8.0767  -8.0755  -8.0656  -8.0650
    -8.0379  -8.0262  -7.9996  -7.9983  -7.9480  -7.9284  -7.9263  -7.8765
    -7.8440  -7.8137  -7.8022  -7.7993  -7.7971  -7.7899  -7.7809  -7.7772
    -7.7701  -7.7648  -7.7611  -7.7610  -7.7559  -7.7528  -7.7485  -7.7454
    -7.7442  -7.7404  -7.7388  -7.7366  -7.7303  -7.7273  -7.7270  -7.7243
    -7.7230  -7.7219  -7.7166  -7.7165  -7.7157  -7.7032  -7.6991  -7.6954
    -7.6909  -7.6846  -7.6814  -7.6761  -7.6709  -7.6553  -7.6543  -7.6536
    -7.6524  -7.6259  -7.6249  -7.6230  -7.6229  -7.6223  -7.6143  -7.6038
    -7.5979  -7.5866  -7.5708  -7.5666  -7.5646  -7.5633  -7.5585  -7.5552
    -7.5526  -7.5434  -7.5419  -7.5224  -7.5221  -7.5178  -7.5148  -7.5046
    -7.4987  -7.4957  -7.4235  -7.4213  -7.4165  -7.4128  -7.4088  -7.3716
    -7.3376  -7.2838  -7.2062  -7.1548  -7.1380  -7.1337  -7.1272  -7.1197
    -7.1177  -7.0951  -7.0796  -7.0763  -7.0609  -7.0578  -7.0469  -7.0233
    -7.0104  -7.0017  -6.9803  -6.9802  -6.9745  -6.9539  -6.9390  -6.9346
    -6.9067  -6.8974  -6.8742  -6.8668  -6.8617  -6.8491  -6.8370  -6.8324
    -6.8184  -6.8125  -6.8018  -6.7832  -6.7615  -6.7459  -6.7232  -6.7192
    -6.7028  -6.6618  -6.6476  -6.6318  -6.6050  -6.5943  -6.5836  -6.5776
    -6.5719  -6.5658  -6.5638  -6.5625  -6.5605  -6.5499  -6.5465  -6.5453
    -6.5442  -6.5387  -6.5375  -6.5373  -6.5371  -6.5325  -6.4947  -6.4746
    -6.4408  -6.4295  -6.3913  -6.3657  -6.3477  -6.3122  -6.2855  -6.2840
    -6.2804  -6.2707  -6.2617  -6.2479  -6.2396  -6.2358  -6.2344  -6.2323
    -6.2311  -6.2294  -6.2135  -6.2110  -6.1977  -6.1929  -6.1880  -6.1670
    -6.1620  -6.1607  -6.1564  -6.1555  -6.0185  -5.9795  -5.9605  -5.9428
    -5.9308  -5.8959  -5.8762  -5.8546  -5.8350  -5.8170  -5.8021  -5.7942
    -5.7672  -5.6846  -5.6367  -5.5681  -5.5570  -5.5140  -5.5019  -5.4804
    -5.1021  -4.4117  -4.0585  -4.0478  -4.0419  -4.0251  -3.9125  -3.8909
    -3.8808  -3.8732  -3.8626  -3.8234  -3.7996  -3.7986  -3.7845  -3.7817
    -3.7687  -3.7660  -3.7578  -3.7555  -3.7507  -3.7144  -3.6679  -3.6422
    -3.6392  -3.6041  -3.5704  -3.5612  -3.5579  -3.5562  -3.5555  -3.5217
    -3.5114  -3.5096  -3.4952  -3.4869  -3.4777  -3.4735  -3.4724  -3.4680
    -3.4475  -3.4412  -3.4392  -3.4342  -3.4312  -3.4287  -3.4267  -3.4181
    -3.4057  -3.4053  -3.3918  -3.3823  -3.3759  -3.3712  -3.3684  -3.3562
    -3.3171  -3.3103  -3.3066  -3.3036  -3.3020  -3.3003  -3.2973  -3.2946
    -3.2726  -3.2611  -3.2516  -3.2504  -3.2444  -3.2418  -3.2379  -3.2340
    -3.2323  -3.2295  -3.2106  -3.2055  -3.2010  -3.1970  -3.1921  -3.1875
    -3.1798  -3.1718  -3.1692  -3.1658  -3.1609  -3.1485  -3.1423  -3.1344
    -3.1315  -3.1271  -3.1260  -3.1189  -3.1189  -3.1147  -3.1008  -3.0889
    -3.0547  -3.0425  -3.0346  -3.0292  -3.0241  -3.0203  -3.0166  -2.9918
    -2.9829  -2.9801  -2.9790  -2.9788  -2.9773  -2.9757  -2.9708  -2.9681
    -2.9670  -2.9618  -2.9591  -2.9489  -2.9478  -2.9421  -2.9363  -2.9337
    -2.9320  -2.9249  -2.9219  -2.9193  -2.9132  -2.9055  -2.9049  -2.9013
    -2.8995  -2.8921  -2.8882  -2.8857  -2.8713  -2.8599  -2.8547  -2.8433
    -2.8394  -2.8379  -2.8319  -2.8250  -2.8106  -2.7581  -2.7549  -2.7455
    -2.7423  -2.7149  -2.6847  -2.6712  -2.6652  -2.5936  -2.5691  -2.5618
    -2.5448  -2.5304  -2.5177  -2.5103  -2.5018  -2.4888  -2.4845  -2.4825
    -2.4810  -2.4776  -2.4698  -2.4562  -2.4118  -2.3648  -2.3512  -2.3443
    -2.3359  -2.3275  -2.3038  -2.3020

          k =-0.5000-0.2887 0.0000 (386352 PWs)   bands (ev):

  -103.0175 -87.6614 -71.3515 -71.3397 -71.3319 -71.3086 -71.3012 -71.2918
   -71.2813 -66.5835 -66.5780 -66.5780 -66.5780 -66.5778 -66.5778 -66.5767
   -66.5766 -66.5681 -66.5673 -66.5673 -66.5673 -66.5672 -66.5660 -66.5660
   -66.5657 -66.5585 -66.5579 -66.5558 -66.5522 -66.5522 -66.5522 -66.5522
   -66.5522 -66.5522 -66.5521 -66.5520 -66.5517 -66.5509 -66.5509 -66.5509
   -66.5509 -66.5483 -66.5478 -66.5478 -66.5478 -66.5476 -66.5464 -66.5464
   -66.5416 -66.5416 -66.5415 -66.5415 -66.5415 -66.5414 -66.5414 -66.5413
   -66.5402 -66.5401 -66.5401 -66.5401 -66.5371 -66.5371 -66.5371 -66.5370
   -66.5370 -66.5357 -66.5357 -66.5323 -66.5279 -66.5172 -66.5161 -66.4866
   -66.4788 -57.2551 -57.2403 -57.2041 -53.6664 -53.4527 -53.2758 -40.8868
   -40.8800 -40.8800 -40.8800 -40.8799 -40.8798 -40.8797 -40.8797 -40.8796
   -40.8793 -40.8793 -40.8793 -40.8792 -40.8771 -40.8649 -40.8538 -40.8532
   -40.8531 -40.8530 -40.8529 -40.8525 -40.8524 -40.8524 -40.8478 -40.8411
   -40.8411 -40.8409 -40.8408 -40.8404 -40.8404 -40.8290 -40.8132 -40.7904
   -40.7904 -40.7904 -40.7904 -40.7902 -40.7902 -40.7902 -40.7901 -40.7896
   -40.7896 -40.7896 -40.7896 -40.7793 -40.7773 -40.7756 -40.7707 -40.7637
   -40.7386 -40.7316 -40.7316 -40.7315 -40.7314 -40.7309 -40.7309 -40.7294
   -40.7221 -40.7221 -40.7219 -40.7219 -40.7212 -40.7212 -40.7117 -40.7107
   -40.7107 -40.7107 -40.7106 -40.7100 -40.7100 -40.7090 -40.7029 -40.7005
   -40.6876 -40.6846 -40.6812 -40.6811 -40.6811 -40.6811 -40.6811 -40.6810
   -40.6810 -40.6810 -40.6809 -40.6804 -40.6804 -40.6804 -40.6804 -40.6754
   -40.6724 -40.6724 -40.6724 -40.6722 -40.6716 -40.6716 -40.6713 -40.6663
   -40.6642 -40.6607 -40.6606 -40.6604 -40.6604 -40.6602 -40.6601 -40.6601
   -40.6601 -40.6600 -40.6600 -40.6600 -40.6599 -40.6597 -40.6597 -40.6593
   -40.6593 -40.6593 -40.6593 -40.6574 -40.6537 -40.6514 -40.6514 -40.6514
   -40.6514 -40.6513 -40.6506 -40.6506 -40.6442 -40.6298 -40.6297 -40.6297
   -40.6297 -40.6297 -40.6295 -40.6294 -40.6293 -40.6288 -40.6287 -40.6287
   -40.6287 -40.6276 -40.6237 -40.6232 -40.6157 -40.6136 -40.6106 -40.5950
   -40.5950 -40.5950 -40.5949 -40.5948 -40.5948 -40.5947 -40.5947 -40.5940
   -40.5940 -40.5940 -40.5940 -40.5866 -40.5831 -40.5828 -40.5828 -40.5826
   -40.5826 -40.5818 -40.5818 -40.5764 -40.5744 -40.5706 -40.5635 -40.5635
   -40.5634 -40.5631 -40.5625 -40.5625 -40.5541 -40.5510 -40.5465 -40.5465
   -40.5463 -40.5463 -40.5455 -40.5455 -40.5414 -40.5282 -40.5159 -40.5158
   -40.5157 -40.5156 -40.5148 -40.5148 -40.5143 -40.5035 -40.4829 -19.8999
   -19.8455 -19.8197 -19.7860 -19.7195 -19.6955 -19.6142 -19.6059 -19.4280
   -19.4165 -19.3762 -19.3673 -19.2845 -19.2786 -19.1863 -19.1844 -18.8952
   -18.8373 -18.7653 -18.7286 -18.7140 -18.6974 -18.6806 -18.6791 -18.6764
   -18.6730 -18.6345 -18.6169 -18.6071 -18.6014 -18.5876 -18.5763 -18.5393
   -18.5350 -18.5233 -18.5126 -18.5064 -18.5049 -18.4882 -18.4716 -18.4500
   -18.4416 -18.4349 -18.4286 -18.4238 -18.3938 -18.3697 -18.3665 -18.3576
   -18.3352 -18.3244 -18.3198 -18.2896 -18.2857 -18.2704 -18.2392 -18.2110
   -18.2050 -18.1942 -18.1876 -18.1569 -18.1496 -18.1315 -18.1134 -18.0847
   -18.0776 -18.0730 -18.0675 -18.0604 -18.0595 -18.0564 -18.0556 -18.0342
   -18.0329 -18.0306 -18.0260 -18.0254 -18.0219 -18.0101 -18.0070 -18.0065
   -17.9991 -17.9923 -17.9903 -17.9680 -17.9666 -17.9607 -17.9597 -17.9564
   -17.9557 -17.9498 -17.9478 -17.9454 -17.9357 -17.9046 -17.9010 -17.8955
   -17.8925 -17.8811 -17.8782 -17.8506 -17.8478 -17.8371 -17.8343 -17.8074
   -17.8058 -17.8007 -17.7982 -17.7897 -17.7817 -17.7783 -17.7775 -17.7766
   -17.7764 -17.7759 -17.7724 -17.7617 -17.7607 -17.7421 -17.7411 -17.7195
   -17.7179 -17.7011 -17.6988 -17.6862 -17.6849 -17.6782 -17.6780 -11.9230
   -11.6858 -11.6705 -11.6282 -11.5947 -11.4820 -11.4769 -11.4718 -11.4574
   -11.4553 -11.4401 -11.4377 -11.4240 -11.4107 -11.3955 -11.3608 -11.3502
   -11.3468 -11.3194 -11.3130 -11.2965 -11.2834 -11.2784 -11.2692 -11.2488
   -11.2337 -11.2279 -11.2252 -11.2178 -11.2165 -11.2100 -11.2035 -11.1967
   -11.1719 -11.1616 -11.1500 -11.1479 -11.1423 -11.1270 -11.1246 -11.1236
   -11.1141 -11.1128 -11.1040 -11.0993 -11.0709 -11.0432 -11.0395 -11.0240
   -11.0139 -11.0037 -10.9493 -10.9452 -10.9138 -10.9035 -10.8888 -10.8760
   -10.8671 -10.8599 -10.8521 -10.8411 -10.8315 -10.7989 -10.7937 -10.7897
   -10.7837 -10.7725 -10.7706 -10.7698 -10.7693 -10.7677 -10.7637 -10.7552
   -10.7535 -10.7513 -10.7500 -10.7492 -10.7475 -10.7424 -10.7410 -10.7382
   -10.7229 -10.7025 -10.7020 -10.7013 -10.6991 -10.6137 -10.5832 -10.5039
   -10.4979 -10.4947 -10.4855 -10.4476 -10.4223 -10.3653 -10.3305 -10.2683
   -10.2073 -10.1697 -10.1359 -10.1078 -10.0976 -10.0917 -10.0709 -10.0652
   -10.0507 -10.0444 -10.0150 -10.0098 -10.0061  -9.9923  -9.9884  -9.9829
    -9.9780  -9.9701  -9.9611  -9.9356  -9.9096  -9.8904  -9.8828  -9.8743
    -9.8675  -9.8621  -9.8537  -9.8510  -9.8287  -9.8147  -9.8074  -9.8056
    -9.7895  -9.7580  -9.7514  -9.7345  -9.7325  -9.7234  -9.7071  -9.6890
    -9.6799  -9.6663  -9.6606  -9.6431  -9.6316  -9.6110  -9.6055  -9.5805
    -9.5739  -9.5733  -9.5452  -9.5356  -9.5251  -9.5069  -9.5014  -9.4977
    -9.4939  -9.4833  -9.4697  -9.4476  -9.4464  -9.4404  -9.4333  -9.4286
    -9.4228  -9.4163  -9.4134  -9.4032  -9.3940  -9.3870  -9.3850  -9.3369
    -9.3184  -9.2762  -9.2656  -9.2411  -9.2186  -9.2092  -9.1787  -9.1679
    -9.1671  -9.1572  -9.1418  -9.1329  -9.1171  -9.1027  -9.1019  -9.0856
    -9.0742  -9.0593  -9.0532  -9.0368  -9.0193  -9.0071  -8.9966  -8.9924
    -8.9906  -8.9861  -8.9778  -8.9522  -8.9406  -8.9301  -8.9145  -8.9066
    -8.9052  -8.9002  -8.8831  -8.8770  -8.8575  -8.8487  -8.8481  -8.8468
    -8.8425  -8.8384  -8.8374  -8.8351  -8.8290  -8.8277  -8.8265  -8.8225
    -8.8152  -8.8092  -8.8015  -8.7987  -8.7983  -8.7978  -8.7859  -8.7691
    -8.7651  -8.7509  -8.7488  -8.7479  -8.7428  -8.7413  -8.7402  -8.7210
    -8.7175  -8.6934  -8.6910  -8.6880  -8.6854  -8.6812  -8.6641  -8.6592
    -8.6139  -8.6086  -8.5894  -8.5752  -8.5351  -8.4660  -8.4623  -8.4484
    -8.4053  -8.3929  -8.3795  -8.3226  -8.3101  -8.2641  -8.2521  -8.2085
    -8.1397  -8.0934  -8.0861  -8.0855  -8.0767  -8.0755  -8.0656  -8.0650
    -8.0379  -8.0262  -7.9996  -7.9983  -7.9480  -7.9284  -7.9263  -7.8765
    -7.8440  -7.8137  -7.8022  -7.7993  -7.7970  -7.7899  -7.7809  -7.7772
    -7.7701  -7.7648  -7.7611  -7.7610  -7.7559  -7.7528  -7.7485  -7.7454
    -7.7442  -7.7404  -7.7388  -7.7365  -7.7303  -7.7273  -7.7270  -7.7243
    -7.7230  -7.7219  -7.7166  -7.7165  -7.7157  -7.7032  -7.6991  -7.6954
    -7.6909  -7.6846  -7.6814  -7.6761  -7.6709  -7.6553  -7.6543  -7.6536
    -7.6524  -7.6259  -7.6249  -7.6230  -7.6229  -7.6223  -7.6143  -7.6038
    -7.5979  -7.5866  -7.5708  -7.5666  -7.5646  -7.5633  -7.5586  -7.5552
    -7.5526  -7.5434  -7.5419  -7.5224  -7.5221  -7.5178  -7.5148  -7.5046
    -7.4987  -7.4956  -7.4234  -7.4213  -7.4165  -7.4128  -7.4088  -7.3716
    -7.3376  -7.2838  -7.2062  -7.1548  -7.1380  -7.1337  -7.1272  -7.1197
    -7.1177  -7.0951  -7.0797  -7.0763  -7.0609  -7.0578  -7.0469  -7.0233
    -7.0104  -7.0017  -6.9803  -6.9802  -6.9745  -6.9539  -6.9390  -6.9346
    -6.9067  -6.8974  -6.8742  -6.8668  -6.8617  -6.8491  -6.8370  -6.8324
    -6.8184  -6.8125  -6.8018  -6.7832  -6.7615  -6.7459  -6.7232  -6.7192
    -6.7028  -6.6619  -6.6476  -6.6319  -6.6050  -6.5943  -6.5836  -6.5776
    -6.5719  -6.5658  -6.5638  -6.5625  -6.5605  -6.5499  -6.5465  -6.5453
    -6.5442  -6.5387  -6.5376  -6.5373  -6.5372  -6.5325  -6.4947  -6.4746
    -6.4408  -6.4295  -6.3913  -6.3657  -6.3478  -6.3122  -6.2855  -6.2840
    -6.2804  -6.2707  -6.2617  -6.2479  -6.2396  -6.2358  -6.2344  -6.2323
    -6.2311  -6.2294  -6.2135  -6.2110  -6.1977  -6.1929  -6.1880  -6.1669
    -6.1619  -6.1608  -6.1564  -6.1555  -6.0185  -5.9795  -5.9605  -5.9428
    -5.9308  -5.8959  -5.8762  -5.8546  -5.8350  -5.8170  -5.8021  -5.7942
    -5.7672  -5.6846  -5.6366  -5.5681  -5.5570  -5.5140  -5.5019  -5.4804
    -5.1021  -4.4117  -4.0586  -4.0478  -4.0419  -4.0251  -3.9125  -3.8909
    -3.8808  -3.8732  -3.8626  -3.8234  -3.7996  -3.7986  -3.7845  -3.7817
    -3.7687  -3.7661  -3.7578  -3.7555  -3.7507  -3.7144  -3.6679  -3.6422
    -3.6392  -3.6041  -3.5704  -3.5613  -3.5578  -3.5562  -3.5555  -3.5217
    -3.5114  -3.5096  -3.4952  -3.4869  -3.4777  -3.4735  -3.4724  -3.4680
    -3.4475  -3.4412  -3.4392  -3.4342  -3.4312  -3.4287  -3.4267  -3.4181
    -3.4057  -3.4053  -3.3918  -3.3823  -3.3759  -3.3712  -3.3684  -3.3562
    -3.3171  -3.3104  -3.3065  -3.3036  -3.3021  -3.3003  -3.2973  -3.2946
    -3.2726  -3.2610  -3.2516  -3.2504  -3.2444  -3.2418  -3.2379  -3.2340
    -3.2323  -3.2295  -3.2106  -3.2055  -3.2010  -3.1970  -3.1920  -3.1875
    -3.1797  -3.1718  -3.1692  -3.1658  -3.1609  -3.1485  -3.1423  -3.1344
    -3.1315  -3.1271  -3.1260  -3.1189  -3.1188  -3.1147  -3.1006  -3.0889
    -3.0547  -3.0427  -3.0346  -3.0292  -3.0241  -3.0203  -3.0165  -2.9919
    -2.9829  -2.9801  -2.9790  -2.9788  -2.9773  -2.9758  -2.9708  -2.9681
    -2.9670  -2.9617  -2.9592  -2.9489  -2.9478  -2.9421  -2.9363  -2.9337
    -2.9320  -2.9249  -2.9220  -2.9193  -2.9133  -2.9054  -2.9049  -2.9013
    -2.8995  -2.8921  -2.8882  -2.8857  -2.8712  -2.8599  -2.8547  -2.8433
    -2.8392  -2.8379  -2.8319  -2.8250  -2.8106  -2.7582  -2.7549  -2.7455
    -2.7423  -2.7148  -2.6847  -2.6712  -2.6652  -2.5938  -2.5691  -2.5618
    -2.5446  -2.5305  -2.5192  -2.5107  -2.5019  -2.4887  -2.4847  -2.4819
    -2.4812  -2.4783  -2.4700  -2.4552  -2.4048  -2.3706  -2.3473  -2.3428
    -2.3349  -2.3301  -2.3037  -2.3030

          k =-0.5000-0.8660 0.0000 (386352 PWs)   bands (ev):

  -103.0175 -87.6614 -71.3515 -71.3397 -71.3319 -71.3086 -71.3012 -71.2918
   -71.2813 -66.5831 -66.5782 -66.5780 -66.5780 -66.5779 -66.5778 -66.5767
   -66.5766 -66.5702 -66.5673 -66.5673 -66.5673 -66.5672 -66.5660 -66.5660
   -66.5621 -66.5591 -66.5584 -66.5550 -66.5530 -66.5524 -66.5522 -66.5522
   -66.5522 -66.5522 -66.5521 -66.5520 -66.5520 -66.5509 -66.5509 -66.5509
   -66.5509 -66.5488 -66.5478 -66.5478 -66.5478 -66.5476 -66.5464 -66.5464
   -66.5415 -66.5415 -66.5415 -66.5415 -66.5415 -66.5415 -66.5414 -66.5412
   -66.5402 -66.5402 -66.5401 -66.5401 -66.5371 -66.5371 -66.5371 -66.5369
   -66.5368 -66.5357 -66.5357 -66.5320 -66.5281 -66.5170 -66.5163 -66.4866
   -66.4788 -57.2551 -57.2403 -57.2041 -53.6664 -53.4527 -53.2758 -40.8828
   -40.8800 -40.8800 -40.8800 -40.8800 -40.8798 -40.8797 -40.8797 -40.8797
   -40.8793 -40.8793 -40.8793 -40.8792 -40.8787 -40.8679 -40.8542 -40.8532
   -40.8532 -40.8530 -40.8529 -40.8525 -40.8525 -40.8524 -40.8493 -40.8411
   -40.8411 -40.8409 -40.8408 -40.8404 -40.8404 -40.8318 -40.8054 -40.7904
   -40.7904 -40.7904 -40.7904 -40.7902 -40.7902 -40.7901 -40.7901 -40.7896
   -40.7896 -40.7896 -40.7896 -40.7853 -40.7780 -40.7729 -40.7689 -40.7620
   -40.7375 -40.7316 -40.7316 -40.7316 -40.7314 -40.7309 -40.7309 -40.7305
   -40.7221 -40.7221 -40.7220 -40.7218 -40.7212 -40.7212 -40.7143 -40.7107
   -40.7107 -40.7107 -40.7106 -40.7100 -40.7100 -40.7090 -40.7031 -40.6966
   -40.6879 -40.6871 -40.6824 -40.6812 -40.6811 -40.6811 -40.6811 -40.6811
   -40.6810 -40.6810 -40.6810 -40.6804 -40.6804 -40.6804 -40.6804 -40.6784
   -40.6724 -40.6724 -40.6724 -40.6723 -40.6716 -40.6716 -40.6685 -40.6638
   -40.6636 -40.6606 -40.6606 -40.6605 -40.6603 -40.6601 -40.6601 -40.6601
   -40.6601 -40.6601 -40.6601 -40.6600 -40.6598 -40.6597 -40.6597 -40.6593
   -40.6593 -40.6593 -40.6593 -40.6577 -40.6533 -40.6514 -40.6514 -40.6514
   -40.6513 -40.6511 -40.6506 -40.6506 -40.6460 -40.6297 -40.6297 -40.6297
   -40.6297 -40.6297 -40.6296 -40.6294 -40.6293 -40.6288 -40.6287 -40.6287
   -40.6287 -40.6261 -40.6228 -40.6212 -40.6186 -40.6171 -40.6101 -40.5950
   -40.5950 -40.5950 -40.5950 -40.5949 -40.5948 -40.5947 -40.5946 -40.5940
   -40.5940 -40.5940 -40.5940 -40.5918 -40.5828 -40.5828 -40.5826 -40.5826
   -40.5818 -40.5818 -40.5788 -40.5785 -40.5728 -40.5657 -40.5635 -40.5635
   -40.5634 -40.5631 -40.5625 -40.5625 -40.5566 -40.5531 -40.5465 -40.5465
   -40.5464 -40.5462 -40.5455 -40.5455 -40.5419 -40.5266 -40.5158 -40.5158
   -40.5157 -40.5156 -40.5148 -40.5148 -40.5083 -40.5055 -40.4856 -19.9025
   -19.8444 -19.8200 -19.7838 -19.7198 -19.6936 -19.6144 -19.6051 -19.4250
   -19.4208 -19.3743 -19.3716 -19.2834 -19.2815 -19.1860 -19.1853 -18.8824
   -18.8257 -18.8117 -18.7167 -18.7112 -18.6873 -18.6802 -18.6795 -18.6779
   -18.6482 -18.6358 -18.6158 -18.6087 -18.6028 -18.5881 -18.5654 -18.5628
   -18.5305 -18.5255 -18.5148 -18.5084 -18.4976 -18.4893 -18.4843 -18.4688
   -18.4363 -18.4316 -18.4298 -18.4202 -18.3982 -18.3699 -18.3659 -18.3629
   -18.3420 -18.3292 -18.3075 -18.2899 -18.2825 -18.2545 -18.2311 -18.2099
   -18.2059 -18.1999 -18.1810 -18.1546 -18.1525 -18.1409 -18.0978 -18.0971
   -18.0727 -18.0712 -18.0631 -18.0608 -18.0594 -18.0562 -18.0516 -18.0453
   -18.0308 -18.0288 -18.0283 -18.0240 -18.0176 -18.0133 -18.0063 -18.0055
   -17.9998 -17.9976 -17.9905 -17.9671 -17.9648 -17.9640 -17.9600 -17.9568
   -17.9556 -17.9530 -17.9469 -17.9450 -17.9361 -17.9032 -17.9018 -17.8944
   -17.8927 -17.8867 -17.8759 -17.8505 -17.8492 -17.8423 -17.8331 -17.8107
   -17.8062 -17.8029 -17.7987 -17.7890 -17.7791 -17.7781 -17.7777 -17.7772
   -17.7766 -17.7748 -17.7686 -17.7632 -17.7586 -17.7448 -17.7406 -17.7203
   -17.7173 -17.7007 -17.6970 -17.6856 -17.6828 -17.6781 -17.6776 -11.9359
   -11.6850 -11.6735 -11.5998 -11.5850 -11.4920 -11.4750 -11.4703 -11.4554
   -11.4544 -11.4472 -11.4385 -11.4196 -11.4040 -11.3917 -11.3647 -11.3589
   -11.3483 -11.3169 -11.3083 -11.2964 -11.2891 -11.2854 -11.2696 -11.2537
   -11.2377 -11.2296 -11.2235 -11.2189 -11.2160 -11.2122 -11.2065 -11.1994
   -11.1689 -11.1622 -11.1550 -11.1470 -11.1458 -11.1259 -11.1243 -11.1239
   -11.1157 -11.1047 -11.1038 -11.0814 -11.0775 -11.0590 -11.0287 -11.0271
   -11.0107 -10.9833 -10.9590 -10.9558 -10.9172 -10.8991 -10.8873 -10.8757
   -10.8688 -10.8579 -10.8454 -10.8364 -10.8297 -10.8013 -10.7932 -10.7900
   -10.7828 -10.7740 -10.7701 -10.7696 -10.7681 -10.7674 -10.7627 -10.7560
   -10.7549 -10.7530 -10.7505 -10.7499 -10.7481 -10.7411 -10.7411 -10.7384
   -10.7327 -10.7025 -10.7021 -10.7013 -10.7003 -10.6133 -10.5854 -10.5034
   -10.4918 -10.4849 -10.4812 -10.4423 -10.4189 -10.3641 -10.3446 -10.2960
   -10.2171 -10.1660 -10.1413 -10.1055 -10.0919 -10.0916 -10.0724 -10.0573
   -10.0452 -10.0440 -10.0204 -10.0085  -9.9996  -9.9937  -9.9876  -9.9855
    -9.9801  -9.9638  -9.9575  -9.9388  -9.9147  -9.8947  -9.8839  -9.8779
    -9.8636  -9.8617  -9.8556  -9.8492  -9.8309  -9.8237  -9.8128  -9.8099
    -9.7794  -9.7572  -9.7485  -9.7351  -9.7289  -9.7206  -9.7099  -9.6955
    -9.6820  -9.6693  -9.6505  -9.6441  -9.6205  -9.6123  -9.6055  -9.5793
    -9.5726  -9.5707  -9.5504  -9.5390  -9.5124  -9.5091  -9.5027  -9.4990
    -9.4925  -9.4755  -9.4731  -9.4521  -9.4468  -9.4454  -9.4326  -9.4275
    -9.4255  -9.4175  -9.4125  -9.3976  -9.3895  -9.3891  -9.3782  -9.3497
    -9.3094  -9.2733  -9.2694  -9.2368  -9.2076  -9.2029  -9.1794  -9.1688
    -9.1665  -9.1605  -9.1531  -9.1419  -9.1152  -9.1064  -9.0990  -9.0846
    -9.0735  -9.0568  -9.0549  -9.0376  -9.0181  -9.0127  -9.0119  -8.9933
    -8.9886  -8.9839  -8.9797  -8.9441  -8.9397  -8.9261  -8.9165  -8.9122
    -8.9064  -8.9004  -8.8886  -8.8816  -8.8623  -8.8491  -8.8470  -8.8470
    -8.8459  -8.8415  -8.8354  -8.8292  -8.8271  -8.8243  -8.8239  -8.8169
    -8.8166  -8.8135  -8.8089  -8.7988  -8.7981  -8.7937  -8.7906  -8.7622
    -8.7613  -8.7495  -8.7494  -8.7471  -8.7426  -8.7423  -8.7382  -8.7206
    -8.7153  -8.7018  -8.6926  -8.6894  -8.6874  -8.6830  -8.6735  -8.6523
    -8.6133  -8.6065  -8.5913  -8.5498  -8.5346  -8.4666  -8.4595  -8.4567
    -8.4055  -8.3949  -8.3407  -8.3265  -8.3105  -8.2746  -8.2651  -8.2090
    -8.0979  -8.0861  -8.0858  -8.0822  -8.0768  -8.0761  -8.0657  -8.0653
    -8.0349  -8.0308  -8.0059  -7.9998  -7.9504  -7.9292  -7.9266  -7.8915
    -7.8357  -7.8125  -7.8018  -7.7968  -7.7966  -7.7877  -7.7858  -7.7763
    -7.7700  -7.7695  -7.7616  -7.7611  -7.7575  -7.7559  -7.7523  -7.7507
    -7.7441  -7.7414  -7.7402  -7.7390  -7.7343  -7.7278  -7.7267  -7.7259
    -7.7238  -7.7220  -7.7211  -7.7168  -7.7158  -7.7075  -7.7059  -7.6926
    -7.6885  -7.6870  -7.6821  -7.6742  -7.6703  -7.6551  -7.6548  -7.6542
    -7.6529  -7.6256  -7.6252  -7.6248  -7.6230  -7.6179  -7.6080  -7.6014
    -7.5983  -7.5812  -7.5783  -7.5671  -7.5660  -7.5612  -7.5578  -7.5541
    -7.5496  -7.5432  -7.5405  -7.5266  -7.5223  -7.5217  -7.5206  -7.5066
    -7.4955  -7.4953  -7.4454  -7.4154  -7.4143  -7.4129  -7.4122  -7.3779
    -7.3551  -7.2437  -7.1742  -7.1569  -7.1507  -7.1348  -7.1251  -7.1234
    -7.1194  -7.0943  -7.0746  -7.0676  -7.0636  -7.0575  -7.0461  -7.0176
    -6.9985  -6.9920  -6.9821  -6.9803  -6.9536  -6.9508  -6.9348  -6.9289
    -6.9199  -6.8998  -6.8871  -6.8777  -6.8745  -6.8613  -6.8417  -6.8334
    -6.8187  -6.8186  -6.8133  -6.7845  -6.7774  -6.7326  -6.7260  -6.7132
    -6.7082  -6.6637  -6.6553  -6.6349  -6.6212  -6.6040  -6.5825  -6.5781
    -6.5712  -6.5671  -6.5627  -6.5623  -6.5570  -6.5534  -6.5453  -6.5450
    -6.5432  -6.5416  -6.5374  -6.5373  -6.5370  -6.5365  -6.4916  -6.4724
    -6.4466  -6.4169  -6.3815  -6.3672  -6.3134  -6.2962  -6.2871  -6.2839
    -6.2796  -6.2623  -6.2616  -6.2530  -6.2425  -6.2374  -6.2357  -6.2356
    -6.2312  -6.2308  -6.2084  -6.2070  -6.1974  -6.1974  -6.1877  -6.1667
    -6.1595  -6.1595  -6.1581  -6.1550  -6.0401  -6.0069  -5.9517  -5.9461
    -5.9027  -5.8993  -5.8707  -5.8624  -5.8290  -5.8126  -5.8094  -5.7901
    -5.7576  -5.6918  -5.6377  -5.5686  -5.5532  -5.5260  -5.4882  -5.4763
[...]
     atom  170 type  1   force =    -0.00001634   -0.00000890    0.00001928
     atom  171 type  2   force =    -0.00000595    0.00000195    0.00000325
     atom  172 type  2   force =    -0.00000314    0.00000230    0.00161527
     atom  173 type  2   force =    -0.00000337    0.00000179   -0.00235940
     atom  174 type  2   force =    -0.00001100    0.00000319    0.00004332
     atom  175 type  1   force =    -0.00002621    0.00001319    0.00000646
     atom  176 type  1   force =     0.00009457   -0.00002547   -0.00001197
     atom  177 type  2   force =    -0.00002527   -0.00016797    0.00021740
     atom  178 type  2   force =    -0.00001668    0.00001700    0.00003168
     atom  179 type  2   force =    -0.00002950    0.00000938    0.00005044
     atom  180 type  2   force =     0.00035605    0.00021010    0.00006554
     atom  181 type  1   force =    -0.00000151    0.00000145    0.00068903
     atom  182 type  1   force =    -0.00001397   -0.00000657    0.00001383
     atom  183 type  2   force =    -0.00000471    0.00000027    0.00000436
     atom  184 type  2   force =    -0.00000326    0.00000229    0.00161526
     atom  185 type  2   force =    -0.00000350    0.00000171   -0.00235934
     atom  186 type  2   force =    -0.00000873    0.00000214    0.00004798
     atom  187 type  1   force =    -0.00002679    0.00001114   -0.00000312
     atom  188 type  1   force =     0.00010604    0.00006350   -0.00013671
     atom  189 type  2   force =     0.00000226   -0.00015851   -0.00016401
     atom  190 type  2   force =    -0.00002428    0.00002159    0.00004096
     atom  191 type  2   force =    -0.00002024    0.00000382    0.00003581
     atom  192 type  2   force =     0.00009344    0.00010899   -0.00016291
     atom  193 type  3   force =     0.00059067   -0.00034015    0.00046464
     atom  194 type  4   force =     0.00009683   -0.00005680    0.00015024

     Total force =     0.002302     Total SCF correction =     0.000564
     SCF correction compared to forces is large: reduce conv_thr to get better values
     Energy error            =      1.1E-05 Ry
     Gradient error          =      8.2E-04 Ry/Bohr

     bfgs converged in  37 scf cycles and  35 bfgs steps
     (criteria: energy <  1.0E-04 Ry, force <  1.0E-03 Ry/Bohr)

     End of BFGS Geometry Optimization

     Final energy             =  -33980.2795944811 Ry

     File ./outdir/pwscf.bfgs deleted, as requested
Begin final coordinates

ATOMIC_POSITIONS (angstrom)
Mo               0.0000119917        1.8193638619       -9.1672481230    0   0   0
Mo               1.5756136568        0.9097075315       -3.0554901653    0   0   0
S                0.0000188998        1.8193822938       -4.6232556019    0   0   0
S                1.5756321638        0.9096773839       -7.6014065489    0   0   0
S                1.5756326175        0.9096785128      -10.7330757790    0   0   0
S                0.0000189190        1.8193860094       -1.4877129945    0   0   0
Mo              -0.0012959176        1.8201981062        3.0596803005
Mo               1.5608565016        0.9151375836        9.1649337220
S               -0.0188070311        1.8267518364        7.5938451296
S                1.5742393039        0.9101524355        4.6269443744
S                1.5747049929        0.9104252491        1.4918528885
S               -0.0216155310        1.8081656770       10.7378350397
Mo              -1.5756053507        4.5484193819       -9.1672481230    0   0   0
Mo               0.0000378379        3.6387394919       -3.0554952701    0   0   0
S               -1.5755913433        4.5484363582       -4.6232494962    0   0   0
S                0.0000148214        3.6387329039       -7.6014065489    0   0   0
S                0.0000152751        3.6387340328      -10.7330757790    0   0   0
S               -1.5755906502        4.5484413613       -1.4877305502    0   0   0
Mo              -1.5766532248        4.5492616948        3.0598075492
Mo              -0.0398520943        3.6306468959        9.1747341370
S               -1.6038403022        4.5691370148        7.6174397598
S               -0.0012735294        3.6398297629        4.6278381177
S               -0.0009959005        3.6394250316        1.4918550822
S               -1.5945083689        4.5448791667       10.7593275357
Mo              -3.1512226931        7.2774749019       -9.1672481230    0   0   0
Mo              -1.5755910988        6.3678216792       -3.0555115988    0   0   0
S               -3.1512162438        7.2774954350       -4.6232578178    0   0   0
S               -1.5756025210        6.3677884239       -7.6014065489    0   0   0
S               -1.5756020673        6.3677895528      -10.7330757790    0   0   0
S               -3.1512127704        7.2774877076       -1.4877200710    0   0   0
Mo              -3.1518376351        7.2779913284        3.0596792938
Mo              -1.5988014905        6.3721058252        9.2094602986
S               -3.1515606873        7.2824124757        7.6184033168
S               -1.5758665908        6.3687918899        4.6278619572
S               -1.5764056063        6.3682541435        1.4916031753
S               -3.1856134636        7.2895256073       10.7602699166
Mo              -4.7268400355       10.0065304219       -9.1672481230    0   0   0
Mo              -3.1512405618        9.0968403586       -3.0554816746    0   0   0
S               -4.7268341792       10.0065523623       -4.6232463762    0   0   0
S               -3.1512198634        9.0968439439       -7.6014065489    0   0   0
S               -3.1512194097        9.0968450728      -10.7330757790    0   0   0
S               -4.7268370797       10.0065537885       -1.4877176751    0   0   0
Mo              -4.7276834681       10.0070464253        3.0593187856
Mo              -3.1640580619        9.1043016875        9.1831410237
S               -4.7320480184       10.0095825392        7.6026352336
S               -3.1519574966        9.0972994090        4.6274349739
S               -3.1518878606        9.0972594382        1.4916597967
S               -4.7465019472       10.0179255615       10.7395893420
Mo               3.1512517547        1.8193638619       -9.1672481230    0   0   0
Mo               4.7269020221        0.9097289540       -3.0554823951    0   0   0
S                3.1512612351        1.8193882564       -4.6232320683    0   0   0
S                4.7268719268        0.9096773839       -7.6014065489    0   0   0
S                4.7268723805        0.9096785128      -10.7330757790    0   0   0
S                3.1512592485        1.8193890201       -1.4877261251    0   0   0
Mo               3.1503122149        1.8199680384        3.0599987418
Mo               4.7093672770        0.9161356451        9.1759290258
S                3.1392992264        1.8115280106        7.5883014836
S                4.7264454906        0.9100384843        4.6274433080
S                4.7257301757        0.9100794075        1.4917551133
S                3.1368429449        1.8211488704       10.7340438079
Mo               1.5756344123        4.5484193819       -9.1672481230    0   0   0
Mo               3.1512756394        3.6387769522       -3.0554814834    0   0   0
S                1.5756504879        4.5484423799       -4.6232390542    0   0   0
S                3.1512545844        3.6387329039       -7.6014065489    0   0   0
S                3.1512550381        3.6387340328      -10.7330757790    0   0   0
S                1.5756466253        4.5484431864       -1.4877251801    0   0   0
Mo               1.5744317152        4.5493039734        3.0597536658
Mo               3.1408342890        3.6277921175        9.1527384365
S                1.5473747148        4.5821368723        7.6398258534
S                3.1497186127        3.6397421150        4.6279334072
S                3.1502582811        3.6392710823        1.4920608166
S                1.5531884229        4.3885812099       10.7896078368
Mo               0.0000170699        7.2774749019       -9.1672481230    0   0   0
Mo               1.5756764447        6.3678236689       -3.0554877708    0   0   0
S                0.0000381981        7.2774979204       -4.6232454413    0   0   0
S                1.5756372420        6.3677884239       -7.6014065489    0   0   0
S                1.5756376957        6.3677895528      -10.7330757790    0   0   0
S                0.0000328088        7.2774946042       -1.4877307940    0   0   0
Mo              -0.0007110242        7.2779241419        3.0592376907
Mo               1.5696977175        6.3712623761        9.2282433623
S                0.0066173453        7.2737094631        7.6752579350
S                1.5742479749        6.3686203744        4.6278374473
S                1.5749447042        6.3682197710        1.4915068943
S               -0.1029758885        7.3369810205       10.8540899133
Mo              -1.5756002725       10.0065304219       -9.1672481230    0   0   0
Mo               0.0000873425        9.0968676911       -3.0554912329    0   0   0
S               -1.5755883952       10.0065504530       -4.6232240150    0   0   0
S                0.0000198996        9.0968439439       -7.6014065489    0   0   0
S                0.0000203533        9.0968450728      -10.7330757790    0   0   0
S               -1.5755859047       10.0065492576       -1.4877362381    0   0   0
Mo              -1.5763293134       10.0068478394        3.0596799316
Mo              -0.0152786691        9.1148434393        9.2094611823
S               -1.5800056441       10.0044228946        7.6184053491
S               -0.0009547893        9.0966149749        4.6278629723
S               -0.0007589513        9.0973503726        1.4916037320
S               -1.6031926990       10.0303549092       10.7602712663
Mo               6.3024915177        1.8193638619       -9.1672481230    0   0   0
Mo               7.8781001445        0.9096521684       -3.0554919963    0   0   0
S                6.3025008696        1.8193826232       -4.6232480596    0   0   0
S                7.8781116898        0.9096773839       -7.6014065489    0   0   0
S                7.8781121435        0.9096785128      -10.7330757790    0   0   0
S                6.3025042007        1.8193849068       -1.4877147524    0   0   0
Mo               6.3014546757        1.8199415954        3.0592008873
Mo               7.8581623076        0.9234069939        9.1872685952
S                6.2874986804        1.8355853854        7.6167387821
S                7.8767320186        0.9105007093        4.6273491079
S                7.8770493092        0.9100166000        1.4914696229
S                6.2773413377        1.8318426049       10.7534363123
Mo               4.7268741753        4.5484193819       -9.1672481230    0   0   0
Mo               6.3024679138        3.6387501714       -3.0554895197    0   0   0
S                4.7268748770        4.5484386753       -4.6232519432    0   0   0
S                6.3024943474        3.6387329039       -7.6014065489    0   0   0
S                6.3024948011        3.6387340328      -10.7330757790    0   0   0
S                4.7268770533        4.5484432419       -1.4877137856    0   0   0
Mo               4.7256709321        4.5491438479        3.0599209369
Mo               6.2768196267        3.6536001130        9.1934256284
S                4.7159145493        4.5547845394        7.5994573996
S                6.3015841697        3.6392876701        4.6268898260
S                6.3011861072        3.6395165962        1.4915089041
S                4.6585810014        4.5878968132       10.7500616679
Mo               3.1512568329        7.2774749019       -9.1672481230    0   0   0
Mo               4.7268384135        6.3678043337       -3.0554959052    0   0   0
S                3.1512606125        7.2774972547       -4.6232589675    0   0   0
S                4.7268770050        6.3677884239       -7.6014065489    0   0   0
S                4.7268774587        6.3677895528      -10.7330757790    0   0   0
S                3.1512629079        7.2774963749       -1.4877081835    0   0   0
Mo               3.1499154408        7.2781188935        3.0597546489
Mo               4.7311795861        6.3823484321        9.1527249601
S                3.1079618813        7.2851587539        7.6398240013
S                4.7252614988        6.3686594815        4.6279340898
S                4.7259376147        6.3684281815        1.4920626704
S                3.2785059798        7.3768903669       10.7896111093
Mo               1.5756394905       10.0065304219       -9.1672481230    0   0   0
Mo               3.1512330605        9.0968514907       -3.0554878870    0   0   0
S                1.5756499830       10.0065443759       -4.6232632674    0   0   0
S                3.1512596626        9.0968439439       -7.6014065489    0   0   0
S                3.1512601163        9.0968450728      -10.7330757790    0   0   0
S                1.5756503041       10.0065459699       -1.4877044377    0   0   0
Mo               1.5744115790       10.0070600457        3.0598088555
Mo               3.1383666941        9.1354782689        9.1747383577
S                1.5436194356       10.0206897802        7.6174424767
S                3.1496920280        9.0974584965        4.6278395843
S                3.1501808011        9.0974183800        1.4918564525
S                1.5692928350       10.0247370521       10.7593310652
Mo               9.4537312807        1.8193638619       -9.1672481230    0   0   0
Mo              11.0293863460        0.9096952246       -3.0554894007    0   0   0
S                9.4537395970        1.8193770750       -4.6232328036    0   0   0
S               11.0293514528        0.9096773839       -7.6014065489    0   0   0
S               11.0293519066        0.9096785128      -10.7330757790    0   0   0
S                9.4537393632        1.8193794783       -1.4877366147    0   0   0
Mo               9.4523390065        1.8201969589        3.0592520911
Mo              11.0130227197        0.9191496361        9.1644613034
S                9.4269414399        1.8348738536        7.6114725864
S               11.0274384696        0.9108121936        4.6272023793
S               11.0283070375        0.9103097327        1.4916549147
S                9.4408696406        1.8268339765       10.7476751310
Mo               7.8781139383        4.5484193819       -9.1672481230    0   0   0
Mo               9.4537539161        3.6387607911       -3.0554933032    0   0   0
S                7.8781175448        4.5484378232       -4.6232366318    0   0   0
S                9.4537341104        3.6387329039       -7.6014065489    0   0   0
S                9.4537345641        3.6387340328      -10.7330757790    0   0   0
S                7.8781194018        4.5484411585       -1.4877377057    0   0   0
Mo               7.8771204004        4.5490714204        3.0591999721
Mo               9.4319076045        3.6492117053        9.1872647668
S                7.8566057414        4.5533580045        7.6167374548
S                9.4523574427        3.6395601617        4.6273484206
S                9.4529343654        3.6395258320        1.4914682869
S                7.8547704780        4.5640278238       10.7534334282
Mo               6.3024965959        7.2774749019       -9.1672481230    0   0   0
Mo               7.8781361655        6.3678242352       -3.0555014130    0   0   0
S                6.3024973331        7.2774953556       -4.6232392528    0   0   0
S                7.8781167680        6.3677884239       -7.6014065489    0   0   0
S                7.8781172217        6.3677895528      -10.7330757790    0   0   0
S                6.3024989866        7.2774929744       -1.4877349119    0   0   0
Mo               6.3015285280        7.2780309947        3.0599997940
Mo               7.8638110509        6.3797866776        9.1759270487
S                6.3033464434        7.2918110149        7.5882968751
S                7.8776166801        6.3680207435        4.6274423084
S                7.8772214183        6.3686200062        1.4917556703
S                6.2937800025        7.2891210284       10.7340374136
Mo               4.7268792535       10.0065304219       -9.1672481230    0   0   0
Mo               6.3025111524        9.0968738021       -3.0554915260    0   0   0
S                4.7268840634       10.0065452125       -4.6232380477    0   0   0
S                6.3024994256        9.0968439439       -7.6014065489    0   0   0
S                6.3024998793        9.0968450728      -10.7330757790    0   0   0
S                4.7268847312       10.0065459141       -1.4877283294    0   0   0
Mo               4.7255286781       10.0072908475        3.0596804430
Mo               6.2904225512        9.1069749199        9.1649327457
S                4.7111092136       10.0191993296        7.5938472510
S                6.3014179318        9.0978584508        4.6269445334
S                6.3014132088        9.0973173217        1.4918525635
S                4.7258033010       10.0309258094       10.7378343575
Pt               1.6667542200        6.3152376577       11.9957202902
Pd               3.9489059381        4.9979907422       12.8406158517
End final coordinates



     Writing all to output data dir ./outdir/pwscf.save/ :
     XML data file, charge density, pseudopotentials, collected wavefunctions
 
     init_run     :    176.96s CPU    180.29s WALL (       1 calls)
     electrons    :  74831.78s CPU  75712.63s WALL (       8 calls)
     update_pot   :     11.93s CPU     12.34s WALL (       7 calls)
     forces       :   1040.77s CPU   1059.12s WALL (       8 calls)
     force_dftd3  :      5.37s CPU      5.63s WALL (       8 calls)

     Called by init_run:
     wfcinit      :    152.73s CPU    154.43s WALL (       1 calls)
     potinit      :      1.37s CPU      1.55s WALL (       1 calls)
     hinit0       :     13.16s CPU     13.34s WALL (       1 calls)

     Called by electrons:
     c_bands      :  67416.36s CPU  68030.74s WALL (     104 calls)
     sum_band     :   6626.20s CPU   6762.60s WALL (     104 calls)
     v_of_rho     :     37.79s CPU     42.92s WALL (     105 calls)
     newd         :    665.78s CPU    793.31s WALL (     105 calls)
     PAW_pot      :     99.60s CPU    100.83s WALL (     112 calls)
     mix_rho      :     10.09s CPU     11.75s WALL (     104 calls)
     energy_dftd3 :      3.12s CPU      3.14s WALL (       8 calls)

     Called by c_bands:
     init_us_2    :    224.62s CPU    225.84s WALL (     896 calls)
     init_us_2:cp :    224.61s CPU    225.84s WALL (     896 calls)
     cegterg      :  66426.40s CPU  67032.71s WALL (     440 calls)

     Called by *egterg:
     cdiaghg      :   3904.51s CPU   4041.40s WALL (    5936 calls)
     h_psi        :  33085.94s CPU  33282.15s WALL (    6015 calls)
     s_psi        :   7745.39s CPU   7791.08s WALL (    6015 calls)
     g_psi        :     62.68s CPU     63.02s WALL (    5571 calls)

     Called by h_psi:
     h_psi:calbec :   7525.77s CPU   7549.88s WALL (    6015 calls)
     vloc_psi     :  17634.30s CPU  17718.44s WALL (    6015 calls)
     add_vuspsi   :   7790.57s CPU   7838.25s WALL (    6015 calls)

     General routines
     calbec       :  10309.41s CPU  10341.92s WALL (    6587 calls)
     fft          :     28.72s CPU     32.71s WALL (    1451 calls)
     ffts         :      1.87s CPU      2.03s WALL (     209 calls)
     fftw         :  13068.83s CPU  13129.45s WALL ( 3413318 calls)
     interpolate  :      3.29s CPU      3.59s WALL (     105 calls)
 
     Parallel routines
 
     PWSCF        :     21h12m CPU     21h28m WALL

 
   This run was terminated on:  13: 4: 4  20Mar2024            

=------------------------------------------------------------------------------=
   JOB DONE.
=------------------------------------------------------------------------------=
