
     Program PWSCF v.7.3 starts on 26Apr2024 at  6:39:18 

     This program is part of the open-source Quantum ESPRESSO suite
     for quantum simulation of materials; please cite
         "P. Giannozzi et al., J. Phys.:Condens. Matter 21 395502 (2009);
         "P. Giannozzi et al., J. Phys.:Condens. Matter 29 465901 (2017);
         "P. Giannozzi et al., J. Chem. Phys. 152 154105 (2020);
          URL http://www.quantum-espresso.org", 
     in publications or presentations arising from this work. More details at
     http://www.quantum-espresso.org/quote

     Parallel version (MPI & OpenMP), running on      36 processor cores
     Number of MPI processes:                36
     Threads/MPI process:                     1

     MPI processes distributed on     1 nodes
     556794 MiB available memory on the printing compute node when the environment starts
 
     Waiting for input...
     Reading input from standard input
Warning: card &CELL ignored
Warning: card / ignored

     Current dimensions of program PWSCF are:
     Max number of different atomic species (ntypx) = 10
     Max number of k-points (npk) =  40000
     Max angular momentum in pseudopotentials (lmaxx) =  4
     file Mo.pbe-spn-kjpaw_psl.1.0.0.UPF: wavefunction(s)  4S 4D renormalized
     file S.pbe-n-kjpaw_psl.1.0.0.UPF: wavefunction(s)  3S 3P renormalized
     file Pt.pbe-spfn-kjpaw_psl.1.0.0.UPF: wavefunction(s)  5P 4F renormalized
     file Pd.pbe-spn-kjpaw_psl.1.0.0.UPF: wavefunction(s)  4S 5S 4D renormalized
 
     R & G space division:  proc/nbgrp/npool/nimage =      36
     Subspace diagonalization in iterative solution of the eigenvalue problem:
     one sub-group per band group will be used
     scalapack distributed-memory algorithm (size of sub-group:  6*  6 procs)

 
     Parallelization info
     --------------------
     sticks:   dense  smooth     PW     G-vecs:    dense   smooth      PW
     Min         585     334     89               198743    85850   11735
     Max         586     335     90               198750    85861   11748
     Sum       21073   12049   3205              7154885  3090769  422587
 
     Using Slab Decomposition
 


     bravais-lattice index     =            0
     lattice parameter (alat)  =      23.8199  a.u.
     unit-cell volume          =   33861.0370 (a.u.)^3
     number of atoms/cell      =          195
     number of atomic types    =            4
     number of electrons       =      1732.00
     number of Kohn-Sham states=         1039
     kinetic-energy cutoff     =      77.0000  Ry
     charge density cutoff     =     539.0000  Ry
     scf convergence threshold =      1.0E-06
     mixing beta               =       0.2000
     number of iterations used =            8  plain     mixing
     energy convergence thresh.=      1.0E-04
     force convergence thresh. =      1.0E-03
     Exchange-correlation= SLA  PW   PBX  PBC
                           (   1   4   3   4   0   0   0)
     nstep                     =         1000


     Effective Screening Medium Method
     =================================
     Boundary Conditions: Vacuum-Slab-Vacuum
     total charge in unit cell        =   0.0000
     grid points for fit at edges     =        4 
 

     celldm(1)=  23.819920  celldm(2)=   0.000000  celldm(3)=   0.000000
     celldm(4)=   0.000000  celldm(5)=   0.000000  celldm(6)=   0.000000

     crystal axes: (cart. coord. in units of alat)
               a(1) = (   1.000000   0.000000   0.000000 )  
               a(2) = (  -0.499999   0.866026   0.000000 )  
               a(3) = (   0.000000   0.000000   2.893000 )  

     reciprocal axes: (cart. coord. in units 2 pi/alat)
               b(1) = (  1.000000  0.577349  0.000000 )  
               b(2) = (  0.000000  1.154700  0.000000 )  
               b(3) = (  0.000000  0.000000  0.345662 )  


     PseudoPot. # 1 for Mo read from file:
     ./pseudo/Mo.pbe-spn-kjpaw_psl.1.0.0.UPF
     MD5 check sum: 317bf72632116215fd98f72de1686f13
     Pseudo is Projector augmented-wave + core cor, Zval = 14.0
     Generated using 'atomic' code by A. Dal Corso  v.7.2
     Shape of augmentation charge: PSQ
     Using radial grid of 1229 points,  6 beta functions with: 
                l(1) =   0
                l(2) =   0
                l(3) =   1
                l(4) =   1
                l(5) =   2
                l(6) =   2
     Q(r) pseudized with 0 coefficients 


     PseudoPot. # 2 for S  read from file:
     ./pseudo/S.pbe-n-kjpaw_psl.1.0.0.UPF
     MD5 check sum: 8b7b5302570d38d5e87fed6a1065abda
     Pseudo is Projector augmented-wave + core cor, Zval =  6.0
     Generated using 'atomic' code by A. Dal Corso  v.7.2
     Shape of augmentation charge: PSQ
     Using radial grid of 1151 points,  6 beta functions with: 
                l(1) =   0
                l(2) =   0
                l(3) =   1
                l(4) =   1
                l(5) =   2
                l(6) =   2
     Q(r) pseudized with 0 coefficients 


     PseudoPot. # 3 for Pt read from file:
     ./pseudo/Pt.pbe-spfn-kjpaw_psl.1.0.0.UPF
     MD5 check sum: 620096ebf4e6ebacc94de60fd67efcb5
     Pseudo is Projector augmented-wave + core cor, Zval = 32.0
     Generated using 'atomic' code by A. Dal Corso  v.7.2
     Shape of augmentation charge: PSQ
     Using radial grid of 1277 points,  8 beta functions with: 
                l(1) =   0
                l(2) =   0
                l(3) =   1
                l(4) =   1
                l(5) =   2
                l(6) =   2
                l(7) =   3
                l(8) =   3
     Q(r) pseudized with 0 coefficients 


     PseudoPot. # 4 for Pd read from file:
     ./pseudo/Pd.pbe-spn-kjpaw_psl.1.0.0.UPF
     MD5 check sum: a60571a671f2502b8a6a4569d20a6edb
     Pseudo is Projector augmented-wave + core cor, Zval = 18.0
     Generated using 'atomic' code by A. Dal Corso  v.7.2
     Shape of augmentation charge: PSQ
     Using radial grid of 1235 points,  6 beta functions with: 
                l(1) =   0
                l(2) =   0
                l(3) =   1
                l(4) =   1
                l(5) =   2
                l(6) =   2
     Q(r) pseudized with 0 coefficients 


     atomic species   valence    mass     pseudopotential
     Mo               14.00    95.95000     Mo( 1.00)
     S                 6.00    32.06000     S ( 1.00)
     Pt               32.00   195.08400     Pt( 1.00)
     Pd               18.00   106.42000     Pd( 1.00)

     No symmetry found



   Cartesian axes

     site n.     atom                  positions (alat units)
         1        Mo     tau(   1) = (   0.0000010   0.1443372  -0.7272732  )
         2        Mo     tau(   2) = (   0.1249995   0.0721706  -0.2424038  )
         3        S      tau(   3) = (   0.0000015   0.1443386  -0.3667807  )
         4        S      tau(   4) = (   0.1250010   0.0721682  -0.6030489  )
         5        S      tau(   5) = (   0.1250010   0.0721683  -0.8514963  )
         6        S      tau(   6) = (   0.0000015   0.1443389  -0.1180260  )
         7        Mo     tau(   7) = (   0.0000005   0.1443381   0.2424561  )
         8        Mo     tau(   8) = (   0.1251981   0.0716023   0.7276027  )
         9        S      tau(   9) = (  -0.0003031   0.1454842   0.6052312  )
        10        S      tau(  10) = (   0.1249558   0.0721599   0.3668208  )
        11        S      tau(  11) = (   0.1250088   0.0721517   0.1180857  )
        12        S      tau(  12) = (  -0.0004157   0.1382876   0.8564685  )
        13        Mo     tau(  13) = (  -0.1249989   0.3608437  -0.7272732  )
        14        Mo     tau(  14) = (   0.0000030   0.2886752  -0.2424042  )
        15        S      tau(  15) = (  -0.1249977   0.3608450  -0.3667802  )
        16        S      tau(  16) = (   0.0000012   0.2886747  -0.6030489  )
        17        S      tau(  17) = (   0.0000012   0.2886748  -0.8514963  )
        18        S      tau(  18) = (  -0.1249977   0.3608454  -0.1180274  )
        19        Mo     tau(  19) = (  -0.1249623   0.3608201   0.2425155  )
        20        Mo     tau(  20) = (  -0.0007801   0.2872696   0.7308518  )
        21        S      tau(  21) = (  -0.1240398   0.3604107   0.6055268  )
        22        S      tau(  22) = (   0.0000411   0.2886546   0.3669163  )
        23        S      tau(  23) = (   0.0000035   0.2886726   0.1180964  )
        24        S      tau(  24) = (  -0.1315418   0.3638985   0.8543850  )
        25        Mo     tau(  25) = (  -0.2499987   0.5773502  -0.7272732  )
        26        Mo     tau(  26) = (  -0.1249977   0.5051839  -0.2424055  )
        27        S      tau(  27) = (  -0.2499981   0.5773518  -0.3667809  )
        28        S      tau(  28) = (  -0.1249986   0.5051812  -0.6030489  )
        29        S      tau(  29) = (  -0.1249986   0.5051813  -0.8514963  )
        30        S      tau(  30) = (  -0.2499979   0.5773512  -0.1180266  )
        31        Mo     tau(  31) = (  -0.2499787   0.5773156   0.2425145  )
        32        Mo     tau(  32) = (  -0.1271807   0.5060660   0.7281741  )
        33        S      tau(  33) = (  -0.2502658   0.5775034   0.6017985  )
        34        S      tau(  34) = (  -0.1249543   0.5051367   0.3669386  )
        35        S      tau(  35) = (  -0.1249864   0.5051552   0.1181399  )
        36        S      tau(  36) = (  -0.2525628   0.5785576   0.8514793  )
        37        Mo     tau(  37) = (  -0.3749985   0.7938567  -0.7272732  )
        38        Mo     tau(  38) = (  -0.2500001   0.7216874  -0.2424031  )
        39        S      tau(  39) = (  -0.3749980   0.7938584  -0.3667800  )
        40        S      tau(  40) = (  -0.2499984   0.7216877  -0.6030489  )
        41        S      tau(  41) = (  -0.2499984   0.7216878  -0.8514963  )
        42        S      tau(  42) = (  -0.3749982   0.7938585  -0.1180264  )
        43        Mo     tau(  43) = (  -0.3750043   0.7938372   0.2424536  )
        44        Mo     tau(  44) = (  -0.2503619   0.7218808   0.7263407  )
        45        S      tau(  45) = (  -0.3755748   0.7941519   0.6023691  )
        46        S      tau(  46) = (  -0.2500067   0.7216811   0.3668312  )
        47        S      tau(  47) = (  -0.2499793   0.7216445   0.1181126  )
        48        S      tau(  48) = (  -0.3746959   0.7932047   0.8515893  )
        49        Mo     tau(  49) = (   0.2500010   0.1443372  -0.7272732  )
        50        Mo     tau(  50) = (   0.3750034   0.0721723  -0.2424032  )
        51        S      tau(  51) = (   0.2500017   0.1443391  -0.3667788  )
        52        S      tau(  52) = (   0.3750010   0.0721682  -0.6030489  )
        53        S      tau(  53) = (   0.3750010   0.0721683  -0.8514963  )
        54        S      tau(  54) = (   0.2500016   0.1443391  -0.1180271  )
        55        Mo     tau(  55) = (   0.2500033   0.1443124   0.2424881  )
        56        Mo     tau(  56) = (   0.3752595   0.0716472   0.7255395  )
        57        S      tau(  57) = (   0.2498544   0.1431280   0.6011361  )
        58        S      tau(  58) = (   0.3750516   0.0721435   0.3668117  )
        59        S      tau(  59) = (   0.3750079   0.0721203   0.1180977  )
        60        S      tau(  60) = (   0.2517312   0.1427646   0.8506906  )
        61        Mo     tau(  61) = (   0.1250012   0.3608437  -0.7272732  )
        62        Mo     tau(  62) = (   0.2500029   0.2886782  -0.2424031  )
        63        S      tau(  63) = (   0.1250024   0.3608455  -0.3667794  )
        64        S      tau(  64) = (   0.2500012   0.2886747  -0.6030489  )
        65        S      tau(  65) = (   0.2500012   0.2886748  -0.8514963  )
        66        S      tau(  66) = (   0.1250021   0.3608455  -0.1180270  )
        67        Mo     tau(  67) = (   0.1249995   0.3608273   0.2424838  )
        68        Mo     tau(  68) = (   0.2535704   0.2866116   0.7259154  )
        69        S      tau(  69) = (   0.1241106   0.3617788   0.6079553  )
        70        S      tau(  70) = (   0.2499752   0.2886689   0.3668869  )
        71        S      tau(  71) = (   0.2500098   0.2886475   0.1181123  )
        72        S      tau(  72) = (   0.1336503   0.3523048   0.8541313  )
        73        Mo     tau(  73) = (   0.0000014   0.5773502  -0.7272732  )
        74        Mo     tau(  74) = (   0.1250045   0.5051840  -0.2424036  )
        75        S      tau(  75) = (   0.0000030   0.5773520  -0.3667799  )
        76        S      tau(  76) = (   0.1250014   0.5051812  -0.6030489  )
        77        S      tau(  77) = (   0.1250014   0.5051813  -0.8514963  )
        78        S      tau(  78) = (   0.0000026   0.5773517  -0.1180274  )
        79        Mo     tau(  79) = (   0.0000276   0.5772927   0.2425177  )
        80        Mo     tau(  80) = (   0.1255270   0.5059369   0.7313762  )
        81        S      tau(  81) = (   0.0011816   0.5764663   0.6064450  )
        82        S      tau(  82) = (   0.1250222   0.5051261   0.3669341  )
        83        S      tau(  83) = (   0.1249880   0.5051467   0.1180950  )
        84        S      tau(  84) = (  -0.0088763   0.5830479   0.8565830  )
        85        Mo     tau(  85) = (  -0.1249984   0.7938567  -0.7272732  )
        86        Mo     tau(  86) = (   0.0000069   0.7216896  -0.2424039  )
        87        S      tau(  87) = (  -0.1249975   0.7938582  -0.3667782  )
        88        S      tau(  88) = (   0.0000016   0.7216877  -0.6030489  )
        89        S      tau(  89) = (   0.0000016   0.7216878  -0.8514963  )
        90        S      tau(  90) = (  -0.1249973   0.7938582  -0.1180279  )
        91        Mo     tau(  91) = (  -0.1249699   0.7938095   0.2424907  )
        92        Mo     tau(  92) = (  -0.0004895   0.7231014   0.7275053  )
        93        S      tau(  93) = (  -0.1248847   0.7932555   0.6014963  )
        94        S      tau(  94) = (   0.0000405   0.7216116   0.3668908  )
        95        S      tau(  95) = (   0.0000242   0.7216332   0.1181249  )
        96        S      tau(  96) = (  -0.1259194   0.7949777   0.8510667  )
        97        Mo     tau(  97) = (   0.5000010   0.1443372  -0.7272732  )
        98        Mo     tau(  98) = (   0.6250001   0.0721662  -0.2424040  )
        99        S      tau(  99) = (   0.5000017   0.1443386  -0.3667801  )
       100        S      tau( 100) = (   0.6250010   0.0721682  -0.6030489  )
       101        S      tau( 101) = (   0.6250010   0.0721683  -0.8514963  )
       102        S      tau( 102) = (   0.5000020   0.1443388  -0.1180261  )
       103        Mo     tau( 103) = (   0.5000355   0.1442968   0.2424343  )
       104        Mo     tau( 104) = (   0.6251054   0.0720760   0.7269638  )
       105        S      tau( 105) = (   0.5007812   0.1439212   0.6015111  )
       106        S      tau( 106) = (   0.6250309   0.0721295   0.3668346  )
       107        S      tau( 107) = (   0.6250410   0.0721183   0.1180973  )
       108        S      tau( 108) = (   0.4998652   0.1442971   0.8504179  )
       109        Mo     tau( 109) = (   0.3750012   0.3608437  -0.7272732  )
       110        Mo     tau( 110) = (   0.4999991   0.2886761  -0.2424038  )
       111        S      tau( 111) = (   0.3750012   0.3608452  -0.3667804  )
       112        S      tau( 112) = (   0.5000012   0.2886747  -0.6030489  )
       113        S      tau( 113) = (   0.5000012   0.2886748  -0.8514963  )
       114        S      tau( 114) = (   0.3750014   0.3608455  -0.1180261  )
       115        Mo     tau( 115) = (   0.3749988   0.3608207   0.2424913  )
       116        Mo     tau( 116) = (   0.5005676   0.2886014   0.7258090  )
       117        S      tau( 117) = (   0.3761076   0.3615161   0.6013079  )
       118        S      tau( 118) = (   0.5000282   0.2886169   0.3668001  )
       119        S      tau( 119) = (   0.5000158   0.2886613   0.1180928  )
       120        S      tau( 120) = (   0.3768791   0.3600665   0.8508100  )
       121        Mo     tau( 121) = (   0.2500014   0.5773502  -0.7272732  )
       122        Mo     tau( 122) = (   0.3749983   0.5051825  -0.2424043  )
       123        S      tau( 123) = (   0.2500017   0.5773519  -0.3667810  )
       124        S      tau( 124) = (   0.3750014   0.5051812  -0.6030489  )
       125        S      tau( 125) = (   0.3750014   0.5051813  -0.8514963  )
       126        S      tau( 126) = (   0.2500018   0.5773519  -0.1180256  )
       127        Mo     tau( 127) = (   0.2499755   0.5773110   0.2424609  )
       128        Mo     tau( 128) = (   0.3758691   0.5051374   0.7277779  )
       129        S      tau( 129) = (   0.2483182   0.5768077   0.6062789  )
       130        S      tau( 130) = (   0.3749464   0.5051844   0.3668408  )
       131        S      tau( 131) = (   0.3749944   0.5051486   0.1180923  )
       132        S      tau( 132) = (   0.2574557   0.5818559   0.8585037  )
       133        Mo     tau( 133) = (   0.1250016   0.7938567  -0.7272732  )
       134        Mo     tau( 134) = (   0.2499995   0.7216883  -0.2424036  )
       135        S      tau( 135) = (   0.1250024   0.7938578  -0.3667813  )
       136        S      tau( 136) = (   0.2500016   0.7216877  -0.6030489  )
       137        S      tau( 137) = (   0.2500016   0.7216878  -0.8514963  )
       138        S      tau( 138) = (   0.1250024   0.7938579  -0.1180253  )
       139        Mo     tau( 139) = (   0.1250229   0.7938069   0.2425006  )
       140        Mo     tau( 140) = (   0.2504358   0.7224862   0.7284223  )
       141        S      tau( 141) = (   0.1254429   0.7935457   0.6029055  )
       142        S      tau( 142) = (   0.2500049   0.7216116   0.3668842  )
       143        S      tau( 143) = (   0.2500022   0.7216616   0.1181021  )
       144        S      tau( 144) = (   0.1246626   0.7944127   0.8519137  )
       145        Mo     tau( 145) = (   0.7500010   0.1443372  -0.7272732  )
       146        Mo     tau( 146) = (   0.8750038   0.0721696  -0.2424038  )
       147        S      tau( 147) = (   0.7500016   0.1443382  -0.3667789  )
       148        S      tau( 148) = (   0.8750010   0.0721682  -0.6030489  )
       149        S      tau( 149) = (   0.8750010   0.0721683  -0.8514963  )
       150        S      tau( 150) = (   0.7500016   0.1443384  -0.1180279  )
       151        Mo     tau( 151) = (   0.7500289   0.1443141   0.2424936  )
       152        Mo     tau( 152) = (   0.8748115   0.0715393   0.7280420  )
       153        S      tau( 153) = (   0.7503587   0.1440662   0.6027403  )
       154        S      tau( 154) = (   0.8750369   0.0721618   0.3668742  )
       155        S      tau( 155) = (   0.8750002   0.0721408   0.1181001  )
       156        S      tau( 156) = (   0.7494385   0.1444101   0.8516821  )
       157        Mo     tau( 157) = (   0.6250012   0.3608437  -0.7272732  )
       158        Mo     tau( 158) = (   0.7500028   0.2886769  -0.2424041  )
       159        S      tau( 159) = (   0.6250015   0.3608451  -0.3667792  )
       160        S      tau( 160) = (   0.7500012   0.2886747  -0.6030489  )
       161        S      tau( 161) = (   0.7500012   0.2886748  -0.8514963  )
       162        S      tau( 162) = (   0.6250016   0.3608454  -0.1180280  )
       163        Mo     tau( 163) = (   0.6250302   0.3608127   0.2424760  )
       164        Mo     tau( 164) = (   0.7487590   0.2885376   0.7272130  )
       165        S      tau( 165) = (   0.6254237   0.3608917   0.6015174  )
       166        S      tau( 166) = (   0.7500486   0.2886525   0.3668797  )
       167        S      tau( 167) = (   0.7500385   0.2886557   0.1181169  )
       168        S      tau( 168) = (   0.6239430   0.3610912   0.8510113  )
       169        Mo     tau( 169) = (   0.5000014   0.5773502  -0.7272732  )
       170        Mo     tau( 170) = (   0.6250029   0.5051841  -0.2424047  )
       171        S      tau( 171) = (   0.5000014   0.5773518  -0.3667794  )
       172        S      tau( 172) = (   0.6250014   0.5051812  -0.6030489  )
       173        S      tau( 173) = (   0.6250014   0.5051813  -0.8514963  )
       174        S      tau( 174) = (   0.5000016   0.5773516  -0.1180277  )
       175        Mo     tau( 175) = (   0.4999859   0.5773250   0.2424709  )
       176        Mo     tau( 176) = (   0.6245890   0.5053660   0.7261562  )
       177        S      tau( 177) = (   0.4993068   0.5776651   0.6022414  )
       178        S      tau( 178) = (   0.6249823   0.5051501   0.3668388  )
       179        S      tau( 179) = (   0.6250205   0.5051637   0.1181147  )
       180        S      tau( 180) = (   0.5009766   0.5773609   0.8515797  )
       181        Mo     tau( 181) = (   0.3750016   0.7938567  -0.7272732  )
       182        Mo     tau( 182) = (   0.5000025   0.7216901  -0.2424039  )
       183        S      tau( 183) = (   0.3750019   0.7938578  -0.3667793  )
       184        S      tau( 184) = (   0.5000016   0.7216877  -0.6030489  )
       185        S      tau( 185) = (   0.5000016   0.7216878  -0.8514963  )
       186        S      tau( 186) = (   0.3750020   0.7938579  -0.1180272  )
       187        Mo     tau( 187) = (   0.3749951   0.7938323   0.2424893  )
       188        Mo     tau( 188) = (   0.4998599   0.7217391   0.7271366  )
       189        S      tau( 189) = (   0.3746033   0.7939741   0.6029663  )
       190        S      tau( 190) = (   0.4999946   0.7216688   0.3668260  )
       191        S      tau( 191) = (   0.4999891   0.7216628   0.1180901  )
       192        S      tau( 192) = (   0.3755955   0.7938624   0.8526444  )
       193        Pt     tau( 193) = (   0.1194898   0.4990527   0.9549993  )
       194        Pd     tau( 194) = (   0.0026419   0.2990244   0.9662205  )
       195        Pd     tau( 195) = (   0.1194768   0.4990893   1.1454222  )

     --------------------------------------------
     DFT-D3 Dispersion Correction (3-body terms):
     --------------------------------------------
       Reference C6 values for interpolation: 

         atom   Coordination number   C6
         S          0.000           268.01
         S          0.995           261.99
         S          1.990           251.62
         Mo         0.000          1691.79
         Mo         1.942          1004.01
         Mo        11.056           674.22
         Pd         0.000          1217.01
         Pd         1.863           573.90
         Pd         5.710           531.75
         Pt         0.000           782.29
         Pt         1.919           692.72
         Pt         6.667           673.75

       Values used:

         atom   Coordination number  R0_AB[au]  C6      C8
         Mo        10.208            3.547    674.22  77634.20
         Mo        10.221            3.547    674.22  77634.20
         S          3.858            3.128    251.62  12327.25
         S          3.859            3.128    251.62  12327.25
         S          3.758            3.128    251.62  12327.25
         S          3.859            3.128    251.62  12327.25
         Mo        10.221            3.547    674.22  77634.20
         Mo        10.228            3.547    674.22  77634.20
         S          3.849            3.128    251.62  12327.25
         S          3.859            3.128    251.62  12327.25
         S          3.859            3.128    251.62  12327.25
         S          4.621            3.128    251.62  12327.25
         Mo        10.208            3.547    674.22  77634.20
         Mo        10.221            3.547    674.22  77634.20
         S          3.858            3.128    251.62  12327.25
         S          3.859            3.128    251.62  12327.25
         S          3.758            3.128    251.62  12327.25
         S          3.859            3.128    251.62  12327.25
         Mo        10.222            3.547    674.22  77634.20
         Mo        10.721            3.547    674.21  77634.20
         S          3.862            3.128    251.62  12327.25
         S          3.850            3.128    251.62  12327.25
         S          3.859            3.128    251.62  12327.25
         S          4.669            3.128    251.62  12327.25
         Mo        10.208            3.547    674.22  77634.20
         Mo        10.221            3.547    674.22  77634.20
         S          3.858            3.128    251.62  12327.25
         S          3.859            3.128    251.62  12327.25
         S          3.758            3.128    251.62  12327.25
         S          3.859            3.128    251.62  12327.25
         Mo        10.220            3.547    674.22  77634.20
         Mo        10.171            3.547    674.22  77634.20
         S          3.842            3.128    251.62  12327.25
         S          3.853            3.128    251.62  12327.25
         S          3.859            3.128    251.62  12327.25
         S          3.843            3.128    251.62  12327.25
         Mo        10.208            3.547    674.22  77634.20
         Mo        10.220            3.547    674.22  77634.20
         S          3.858            3.128    251.62  12327.25
         S          3.859            3.128    251.62  12327.25
         S          3.758            3.128    251.62  12327.25
         S          3.859            3.128    251.62  12327.25
         Mo        10.220            3.547    674.22  77634.20
         Mo        10.260            3.547    674.22  77634.20
         S          3.856            3.128    251.62  12327.25
         S          3.861            3.128    251.62  12327.25
         S          3.859            3.128    251.62  12327.25
         S          3.808            3.128    251.62  12327.25
         Mo        10.208            3.547    674.22  77634.20
         Mo        10.221            3.547    674.22  77634.20
         S          3.858            3.128    251.62  12327.25
         S          3.859            3.128    251.62  12327.25
         S          3.758            3.128    251.62  12327.25
         S          3.859            3.128    251.62  12327.25
         Mo        10.220            3.547    674.22  77634.20
         Mo        10.278            3.547    674.22  77634.20
         S          3.837            3.128    251.62  12327.25
         S          3.863            3.128    251.62  12327.25
         S          3.859            3.128    251.62  12327.25
         S          3.842            3.128    251.62  12327.25
         Mo        10.208            3.547    674.22  77634.20
         Mo        10.221            3.547    674.22  77634.20
         S          3.858            3.128    251.62  12327.25
         S          3.859            3.128    251.62  12327.25
         S          3.758            3.128    251.62  12327.25
         S          3.859            3.128    251.62  12327.25
         Mo        10.222            3.547    674.22  77634.20
         Mo        10.177            3.547    674.22  77634.20
         S          3.873            3.128    251.62  12327.25
         S          3.855            3.128    251.62  12327.25
         S          3.859            3.128    251.62  12327.25
         S          5.648            3.128    251.62  12327.25
         Mo        10.208            3.547    674.22  77634.20
         Mo        10.221            3.547    674.22  77634.20
         S          3.858            3.128    251.62  12327.25
         S          3.859            3.128    251.62  12327.25
         S          3.758            3.128    251.62  12327.25
         S          3.859            3.128    251.62  12327.25
         Mo        10.222            3.547    674.22  77634.20
         Mo        10.868            3.547    674.22  77634.20
         S          3.860            3.128    251.62  12327.25
         S          3.850            3.128    251.62  12327.25
         S          3.859            3.128    251.62  12327.25
         S          4.678            3.128    251.62  12327.25
         Mo        10.208            3.547    674.22  77634.20
         Mo        10.221            3.547    674.22  77634.20
         S          3.858            3.128    251.62  12327.25
         S          3.859            3.128    251.62  12327.25
         S          3.758            3.128    251.62  12327.25
         S          3.859            3.128    251.62  12327.25
         Mo        10.220            3.547    674.22  77634.20
         Mo        10.215            3.547    674.22  77634.20
         S          3.850            3.128    251.62  12327.25
         S          3.856            3.128    251.62  12327.25
         S          3.859            3.128    251.62  12327.25
         S          3.827            3.128    251.62  12327.25
         Mo        10.208            3.547    674.22  77634.20
         Mo        10.221            3.547    674.22  77634.20
         S          3.858            3.128    251.62  12327.25
         S          3.859            3.128    251.62  12327.25
         S          3.758            3.128    251.62  12327.25
         S          3.859            3.128    251.62  12327.25
         Mo        10.220            3.547    674.22  77634.20
         Mo        10.250            3.547    674.22  77634.20
         S          3.856            3.128    251.62  12327.25
         S          3.861            3.128    251.62  12327.25
         S          3.859            3.128    251.62  12327.25
         S          3.790            3.128    251.62  12327.25
         Mo        10.208            3.547    674.22  77634.20
         Mo        10.221            3.547    674.22  77634.20
         S          3.858            3.128    251.62  12327.25
         S          3.859            3.128    251.62  12327.25
         S          3.758            3.128    251.62  12327.25
         S          3.859            3.128    251.62  12327.25
         Mo        10.220            3.547    674.22  77634.20
         Mo        10.277            3.547    674.22  77634.20
         S          3.839            3.128    251.62  12327.25
         S          3.863            3.128    251.62  12327.25
         S          3.859            3.128    251.62  12327.25
         S          3.819            3.128    251.62  12327.25
         Mo        10.208            3.547    674.22  77634.20
         Mo        10.221            3.547    674.22  77634.20
         S          3.858            3.128    251.62  12327.25
         S          3.859            3.128    251.62  12327.25
         S          3.758            3.128    251.62  12327.25
         S          3.859            3.128    251.62  12327.25
         Mo        10.222            3.547    674.22  77634.20
         Mo        10.220            3.547    674.22  77634.20
         S          3.851            3.128    251.62  12327.25
         S          3.858            3.128    251.62  12327.25
         S          3.859            3.128    251.62  12327.25
         S          4.648            3.128    251.62  12327.25
         Mo        10.208            3.547    674.22  77634.20
         Mo        10.221            3.547    674.22  77634.20
         S          3.858            3.128    251.62  12327.25
         S          3.859            3.128    251.62  12327.25
         S          3.758            3.128    251.62  12327.25
         S          3.859            3.128    251.62  12327.25
         Mo        10.221            3.547    674.22  77634.20
         Mo        10.226            3.547    674.22  77634.20
         S          3.863            3.128    251.62  12327.25
         S          3.856            3.128    251.62  12327.25
         S          3.859            3.128    251.62  12327.25
         S          3.765            3.128    251.62  12327.25
         Mo        10.208            3.547    674.22  77634.20
         Mo        10.221            3.547    674.22  77634.20
         S          3.858            3.128    251.62  12327.25
         S          3.859            3.128    251.62  12327.25
         S          3.758            3.128    251.62  12327.25
         S          3.859            3.128    251.62  12327.25
         Mo        10.221            3.547    674.22  77634.20
         Mo        10.241            3.547    674.22  77634.20
         S          3.864            3.128    251.62  12327.25
         S          3.857            3.128    251.62  12327.25
         S          3.859            3.128    251.62  12327.25
         S          3.767            3.128    251.62  12327.25
         Mo        10.208            3.547    674.21  77634.20
         Mo        10.220            3.547    674.22  77634.20
         S          3.858            3.128    251.62  12327.25
         S          3.859            3.128    251.62  12327.25
         S          3.758            3.128    251.62  12327.25
         S          3.859            3.128    251.62  12327.25
         Mo        10.220            3.547    674.22  77634.20
         Mo        10.226            3.547    674.22  77634.20
         S          3.854            3.128    251.62  12327.25
         S          3.857            3.128    251.62  12327.25
         S          3.859            3.128    251.62  12327.25
         S          3.809            3.128    251.62  12327.25
         Mo        10.208            3.547    674.22  77634.20
         Mo        10.221            3.547    674.22  77634.20
         S          3.858            3.128    251.62  12327.25
         S          3.859            3.128    251.62  12327.25
         S          3.758            3.128    251.62  12327.25
         S          3.859            3.128    251.62  12327.25
         Mo        10.220            3.547    674.22  77634.20
         Mo        10.267            3.547    674.22  77634.20
         S          3.853            3.128    251.62  12327.25
         S          3.861            3.128    251.62  12327.25
         S          3.859            3.128    251.62  12327.25
         S          3.821            3.128    251.62  12327.25
         Mo        10.208            3.547    674.22  77634.20
         Mo        10.221            3.547    674.22  77634.20
         S          3.858            3.128    251.62  12327.25
         S          3.859            3.128    251.62  12327.25
         S          3.758            3.128    251.62  12327.25
         S          3.859            3.128    251.62  12327.25
         Mo        10.221            3.547    674.22  77634.20
         Mo        10.250            3.547    674.22  77634.20
         S          3.853            3.128    251.62  12327.25
         S          3.860            3.128    251.62  12327.25
         S          3.859            3.128    251.62  12327.25
         S          3.823            3.128    251.62  12327.25
         Pt         5.433            3.168    673.75  70061.90
         Pd         4.142            3.168    531.75  48720.79
         Pd         1.030            3.168    672.50  61617.24

         Molecular C6 ( Ry / a.u.^6 ) =  14169987.76


     number of k points=     4  Gaussian smearing, width (Ry)=  0.0100
                       cart. coord. in units 2pi/alat
        k(    1) = (   0.0000000   0.0000000   0.0000000), wk =   0.5000000
        k(    2) = (   0.0000000  -0.5773499   0.0000000), wk =   0.5000000
        k(    3) = (  -0.5000000  -0.2886744   0.0000000), wk =   0.5000000
        k(    4) = (  -0.5000000  -0.8660242   0.0000000), wk =   0.5000000

     Dense  grid:  7154885 G-vectors     FFT dimensions: ( 180, 180, 512)

     Smooth grid:  3090769 G-vectors     FFT dimensions: ( 135, 135, 400)

     Estimated max dynamical RAM per process >       4.32 GB

     Estimated total dynamical RAM >     155.52 GB

     Initial potential from superposition of free atoms

     starting charge    1731.9386, renormalised to    1732.0000

     negative rho (up, down):  9.152E-04 0.000E+00
     Starting wfcs are 1189 randomized atomic wfcs
     Checking if some PAW data can be deallocated... 

     total cpu time spent up to now is      182.4 secs

     Self-consistent Calculation

     iteration #  1     ecut=    77.00 Ry     beta= 0.20
     Davidson diagonalization with overlap
     ethr =  1.00E-02,  avg # of iterations =  2.0

     Threshold (ethr) on eigenvalues was too large:
     Diagonalizing with lowered threshold

     Davidson diagonalization with overlap
     ethr =  2.05E-04,  avg # of iterations = 15.0

     negative rho (up, down):  2.386E-04 0.000E+00

     total cpu time spent up to now is     2087.3 secs

     total energy              =  -34491.93019925 Ry
     estimated scf accuracy    <       6.25076424 Ry

     iteration #  2     ecut=    77.00 Ry     beta= 0.20
     Davidson diagonalization with overlap
     ethr =  3.61E-04,  avg # of iterations =  7.2

     negative rho (up, down):  9.141E-05 0.000E+00

     total cpu time spent up to now is     2522.2 secs

     total energy              =  -34491.32329270 Ry
     estimated scf accuracy    <       3.77922473 Ry

     iteration #  3     ecut=    77.00 Ry     beta= 0.20
     Davidson diagonalization with overlap
     c_bands:  2 eigenvalues not converged
     c_bands:  4 eigenvalues not converged
     c_bands:  4 eigenvalues not converged
     ethr =  2.18E-04,  avg # of iterations = 15.5

     negative rho (up, down):  3.107E-05 0.000E+00

     total cpu time spent up to now is     2993.1 secs

     total energy              =  -34490.47804286 Ry
     estimated scf accuracy    <       5.57455096 Ry

     iteration #  4     ecut=    77.00 Ry     beta= 0.20
     Davidson diagonalization with overlap
     c_bands:  1 eigenvalues not converged
     c_bands:  1 eigenvalues not converged
     c_bands:  1 eigenvalues not converged
     ethr =  2.18E-04,  avg # of iterations = 17.2

     negative rho (up, down):  2.408E-05 0.000E+00

     total cpu time spent up to now is     3490.0 secs

     total energy              =  -34477.14057133 Ry
     estimated scf accuracy    <     947.13656576 Ry

     iteration #  5     ecut=    77.00 Ry     beta= 0.20
     Davidson diagonalization with overlap
     ethr =  2.18E-04,  avg # of iterations = 10.2

     negative rho (up, down):  1.435E-05 0.000E+00

     total cpu time spent up to now is     3947.7 secs

     total energy              =  -34491.13758337 Ry
     estimated scf accuracy    <       2.24504636 Ry

     iteration #  6     ecut=    77.00 Ry     beta= 0.20
     Davidson diagonalization with overlap
     ethr =  1.30E-04,  avg # of iterations = 10.0

     negative rho (up, down):  1.333E-05 0.000E+00

     total cpu time spent up to now is     4406.4 secs

     total energy              =  -34491.35853911 Ry
     estimated scf accuracy    <       0.48417794 Ry

     iteration #  7     ecut=    77.00 Ry     beta= 0.20
     Davidson diagonalization with overlap
     c_bands:  1 eigenvalues not converged
     c_bands:  1 eigenvalues not converged
     c_bands:  1 eigenvalues not converged
     ethr =  2.80E-05,  avg # of iterations = 20.2

     negative rho (up, down):  2.083E-05 0.000E+00

     total cpu time spent up to now is     6233.6 secs

     total energy              =  -34492.15357800 Ry
     estimated scf accuracy    <       0.62575067 Ry

     iteration #  8     ecut=    77.00 Ry     beta= 0.20
     Davidson diagonalization with overlap
     c_bands:  2 eigenvalues not converged
     c_bands:  2 eigenvalues not converged
     ethr =  2.80E-05,  avg # of iterations = 12.0

     negative rho (up, down):  3.628E-05 0.000E+00

     total cpu time spent up to now is     6671.9 secs

     total energy              =  -34492.09567193 Ry
     estimated scf accuracy    <       0.38459285 Ry

     iteration #  9     ecut=    77.00 Ry     beta= 0.20
     Davidson diagonalization with overlap
     ethr =  2.22E-05,  avg # of iterations =  6.2

     negative rho (up, down):  1.121E-04 0.000E+00

     total cpu time spent up to now is     7103.0 secs

     total energy              =  -34492.02664278 Ry
     estimated scf accuracy    <       0.24709850 Ry

     iteration # 10     ecut=    77.00 Ry     beta= 0.20
     Davidson diagonalization with overlap
     ethr =  1.43E-05,  avg # of iterations =  8.8

     negative rho (up, down):  2.813E-04 0.000E+00

     total cpu time spent up to now is     7725.8 secs

     total energy              =  -34492.11756028 Ry
     estimated scf accuracy    <       0.06303208 Ry

     iteration # 11     ecut=    77.00 Ry     beta= 0.20
     Davidson diagonalization with overlap
     c_bands:  1 eigenvalues not converged
     c_bands:  4 eigenvalues not converged
     ethr =  3.64E-06,  avg # of iterations = 46.0

     negative rho (up, down):  3.062E-04 0.000E+00

     total cpu time spent up to now is     9599.7 secs

     total energy              =  -34492.17046883 Ry
     estimated scf accuracy    <       0.09843497 Ry

     iteration # 12     ecut=    77.00 Ry     beta= 0.20
     Davidson diagonalization with overlap
     c_bands:  2 eigenvalues not converged
     ethr =  3.64E-06,  avg # of iterations = 11.2

     negative rho (up, down):  3.284E-04 0.000E+00

     total cpu time spent up to now is    10127.4 secs

     total energy              =  -34492.16919640 Ry
     estimated scf accuracy    <       0.04492804 Ry

     iteration # 13     ecut=    77.00 Ry     beta= 0.20
     Davidson diagonalization with overlap
     c_bands:  1 eigenvalues not converged
     ethr =  2.59E-06,  avg # of iterations = 22.0

     negative rho (up, down):  4.477E-04 0.000E+00

     total cpu time spent up to now is    10868.8 secs

     total energy              =  -34492.16565747 Ry
     estimated scf accuracy    <       0.03249951 Ry

     iteration # 14     ecut=    77.00 Ry     beta= 0.20
     Davidson diagonalization with overlap
     c_bands:  1 eigenvalues not converged
     c_bands:  1 eigenvalues not converged
     c_bands:  3 eigenvalues not converged
     ethr =  1.88E-06,  avg # of iterations = 32.8

     negative rho (up, down):  6.175E-04 0.000E+00

     total cpu time spent up to now is    11748.3 secs

     total energy              =  -34492.17394342 Ry
     estimated scf accuracy    <       0.01128169 Ry

     iteration # 15     ecut=    77.00 Ry     beta= 0.20
     Davidson diagonalization with overlap
     c_bands:  1 eigenvalues not converged
     c_bands:  1 eigenvalues not converged
     c_bands:  5 eigenvalues not converged
     ethr =  6.51E-07,  avg # of iterations = 17.0

     negative rho (up, down):  8.110E-04 0.000E+00

     total cpu time spent up to now is    12528.5 secs

     total energy              =  -34492.17367900 Ry
     estimated scf accuracy    <       0.01335053 Ry

     iteration # 16     ecut=    77.00 Ry     beta= 0.20
     Davidson diagonalization with overlap
     c_bands:  2 eigenvalues not converged
     ethr =  6.51E-07,  avg # of iterations = 10.0

     negative rho (up, down):  7.758E-04 0.000E+00

     total cpu time spent up to now is    13045.2 secs

     total energy              =  -34492.17536371 Ry
     estimated scf accuracy    <       0.00150364 Ry

     iteration # 17     ecut=    77.00 Ry     beta= 0.20
     Davidson diagonalization with overlap
     ethr =  8.68E-08,  avg # of iterations = 18.8

     negative rho (up, down):  7.350E-04 0.000E+00

     total cpu time spent up to now is    14575.3 secs

     total energy              =  -34492.17883417 Ry
     estimated scf accuracy    <       0.00280253 Ry

     iteration # 18     ecut=    77.00 Ry     beta= 0.20
     Davidson diagonalization with overlap
     ethr =  8.68E-08,  avg # of iterations =  1.5

     negative rho (up, down):  7.194E-04 0.000E+00

     total cpu time spent up to now is    14968.8 secs

     total energy              =  -34492.17841111 Ry
     estimated scf accuracy    <       0.00117072 Ry

     iteration # 19     ecut=    77.00 Ry     beta= 0.20
     Davidson diagonalization with overlap
     ethr =  6.76E-08,  avg # of iterations =  6.5

     negative rho (up, down):  7.942E-04 0.000E+00

     total cpu time spent up to now is    15620.1 secs

     total energy              =  -34492.17886426 Ry
     estimated scf accuracy    <       0.00029362 Ry

     iteration # 20     ecut=    77.00 Ry     beta= 0.20
     Davidson diagonalization with overlap
     ethr =  1.70E-08,  avg # of iterations = 16.2

     negative rho (up, down):  8.230E-04 0.000E+00

     total cpu time spent up to now is    16526.1 secs

     total energy              =  -34492.17908353 Ry
     estimated scf accuracy    <       0.00017393 Ry

     iteration # 21     ecut=    77.00 Ry     beta= 0.20
     Davidson diagonalization with overlap
     ethr =  1.00E-08,  avg # of iterations = 11.2

     negative rho (up, down):  8.337E-04 0.000E+00

     total cpu time spent up to now is    17060.8 secs

     total energy              =  -34492.17908722 Ry
     estimated scf accuracy    <       0.00012281 Ry

     iteration # 22     ecut=    77.00 Ry     beta= 0.20
     Davidson diagonalization with overlap
     ethr =  7.09E-09,  avg # of iterations = 10.0

     negative rho (up, down):  8.334E-04 0.000E+00

     total cpu time spent up to now is    17598.5 secs

     total energy              =  -34492.17909643 Ry
     estimated scf accuracy    <       0.00004748 Ry

     iteration # 23     ecut=    77.00 Ry     beta= 0.20
     Davidson diagonalization with overlap
     c_bands:  2 eigenvalues not converged
     ethr =  2.74E-09,  avg # of iterations = 18.8

     negative rho (up, down):  8.365E-04 0.000E+00

     total cpu time spent up to now is    18584.9 secs

     total energy              =  -34492.17914370 Ry
     estimated scf accuracy    <       0.00001010 Ry

     iteration # 24     ecut=    77.00 Ry     beta= 0.20
     Davidson diagonalization with overlap
     c_bands:  1 eigenvalues not converged
     c_bands:  2 eigenvalues not converged
     c_bands:  2 eigenvalues not converged
     ethr =  5.83E-10,  avg # of iterations = 29.8

     negative rho (up, down):  8.354E-04 0.000E+00

     total cpu time spent up to now is    19814.7 secs

     total energy              =  -34492.17915067 Ry
     estimated scf accuracy    <       0.00001086 Ry

     iteration # 25     ecut=    77.00 Ry     beta= 0.20
     Davidson diagonalization with overlap
     c_bands:  1 eigenvalues not converged
     ethr =  5.83E-10,  avg # of iterations =  9.0

     negative rho (up, down):  8.402E-04 0.000E+00

     total cpu time spent up to now is    20249.4 secs

     total energy              =  -34492.17914661 Ry
     estimated scf accuracy    <       0.00000464 Ry

     iteration # 26     ecut=    77.00 Ry     beta= 0.20
     Davidson diagonalization with overlap
     c_bands:  2 eigenvalues not converged
     ethr =  2.68E-10,  avg # of iterations = 21.0

     negative rho (up, down):  8.426E-04 0.000E+00

     total cpu time spent up to now is    21155.0 secs

     total energy              =  -34492.17914866 Ry
     estimated scf accuracy    <       0.00000247 Ry

     iteration # 27     ecut=    77.00 Ry     beta= 0.20
     Davidson diagonalization with overlap
     ethr =  1.42E-10,  avg # of iterations =  9.0

     negative rho (up, down):  8.424E-04 0.000E+00

     total cpu time spent up to now is    21701.9 secs

     total energy              =  -34492.17914807 Ry
     estimated scf accuracy    <       0.00000241 Ry

     iteration # 28     ecut=    77.00 Ry     beta= 0.20
     Davidson diagonalization with overlap
     ethr =  1.39E-10,  avg # of iterations =  2.0

     negative rho (up, down):  8.430E-04 0.000E+00

     total cpu time spent up to now is    22115.1 secs

     End of self-consistent calculation

          k = 0.0000 0.0000 0.0000 (386245 PWs)   bands (ev):

  -103.2717 -88.8668 -87.3115 -71.6270 -71.6191 -71.5913 -71.5698 -71.5614
   -71.5333 -71.5257 -66.5708 -66.5625 -66.5613 -66.5611 -66.5551 -66.5504
   -66.5456 -66.5441 -66.5412 -66.5412 -66.5412 -66.5412 -66.5412 -66.5412
   -66.5402 -66.5400 -66.5400 -66.5400 -66.5400 -66.5400 -66.5400 -66.5400
   -66.5399 -66.5398 -66.5396 -66.5394 -66.5363 -66.5347 -66.5303 -66.5284
   -66.5209 -66.5198 -66.5198 -66.5198 -66.5198 -66.5198 -66.5198 -66.5198
   -66.5198 -66.5198 -66.5189 -66.5187 -66.5187 -66.5186 -66.5186 -66.5186
   -66.5186 -66.5186 -66.5186 -66.5186 -66.5186 -66.5186 -66.5185 -66.5184
   -66.5183 -66.5182 -66.5181 -66.5177 -66.5165 -66.4862 -66.4825 -66.4708
   -66.4618 -66.4481 -57.6019 -57.4712 -57.3216 -54.7678 -54.6586 -54.5346
   -53.4114 -52.9792 -52.9528 -40.8899 -40.8899 -40.8899 -40.8894 -40.8894
   -40.8894 -40.8886 -40.8884 -40.8882 -40.8865 -40.8819 -40.8807 -40.8162
   -40.8146 -40.8146 -40.8146 -40.8145 -40.8145 -40.8145 -40.8140 -40.8140
   -40.8140 -40.8140 -40.8140 -40.8140 -40.8134 -40.8132 -40.8131 -40.8131
   -40.8129 -40.8128 -40.8118 -40.8034 -40.7977 -40.7872 -40.7796 -40.7486
   -40.7230 -40.7222 -40.7216 -40.7208 -40.7115 -40.6960 -40.6943 -40.6885
   -40.6882 -40.6882 -40.6882 -40.6882 -40.6882 -40.6882 -40.6875 -40.6875
   -40.6875 -40.6875 -40.6875 -40.6875 -40.6871 -40.6869 -40.6868 -40.6867
   -40.6866 -40.6865 -40.6864 -40.6835 -40.6805 -40.6805 -40.6804 -40.6804
   -40.6804 -40.6804 -40.6803 -40.6799 -40.6799 -40.6799 -40.6799 -40.6799
   -40.6799 -40.6795 -40.6793 -40.6792 -40.6791 -40.6789 -40.6788 -40.6725
   -40.6698 -40.6649 -40.6624 -40.6595 -40.6551 -40.6532 -40.6532 -40.6532
   -40.6532 -40.6532 -40.6532 -40.6525 -40.6524 -40.6524 -40.6524 -40.6524
   -40.6524 -40.6523 -40.6520 -40.6519 -40.6518 -40.6517 -40.6515 -40.6515
   -40.6505 -40.6468 -40.6460 -40.6427 -40.6385 -40.6385 -40.6385 -40.6385
   -40.6385 -40.6385 -40.6384 -40.6384 -40.6384 -40.6379 -40.6379 -40.6379
   -40.6379 -40.6379 -40.6379 -40.6378 -40.6378 -40.6378 -40.6375 -40.6375
   -40.6374 -40.6373 -40.6371 -40.6370 -40.6369 -40.6369 -40.6366 -40.6318
   -40.6273 -40.6244 -40.6228 -40.6200 -40.6141 -40.6086 -40.6020 -40.5749
   -40.5748 -40.5748 -40.5740 -40.5740 -40.5740 -40.5735 -40.5734 -40.5733
   -40.5672 -40.5637 -40.5557 -40.5277 -40.5277 -40.5277 -40.5277 -40.5277
   -40.5277 -40.5269 -40.5269 -40.5269 -40.5269 -40.5269 -40.5269 -40.5266
   -40.5265 -40.5264 -40.5262 -40.5260 -40.5260 -40.5205 -40.5138 -40.5081
   -40.4966 -40.4937 -40.4907 -40.4801 -40.4801 -40.4792 -40.4792 -40.4787
   -40.4787 -40.4426 -40.4376 -20.1512 -20.0395 -19.9381 -19.8296 -19.6159
   -19.2696 -19.2415 -19.1938 -19.1928 -19.1861 -19.1758 -19.1698 -19.1670
   -19.1433 -19.1409 -19.1253 -19.0896 -19.0787 -19.0758 -19.0591 -19.0566
   -19.0406 -18.9850 -18.9783 -18.9770 -18.9714 -18.9705 -18.9636 -18.8488
   -18.7522 -18.6993 -18.5695 -18.5095 -18.4933 -18.4545 -18.4442 -18.4195
   -18.4096 -18.3881 -18.3716 -18.3572 -18.3511 -18.3347 -18.3046 -18.2779
   -18.2691 -18.2248 -18.2228 -18.2148 -18.1923 -18.1855 -18.1806 -18.1281
   -18.1229 -18.1208 -18.1134 -18.1132 -18.1115 -18.0776 -18.0647 -18.0604
   -18.0595 -18.0577 -18.0572 -18.0556 -18.0432 -18.0320 -18.0284 -18.0241
   -18.0221 -18.0186 -18.0144 -18.0140 -18.0129 -18.0047 -17.9915 -17.9898
   -17.9883 -17.9854 -17.9825 -17.9734 -17.9696 -17.9657 -17.9558 -17.9493
   -17.9432 -17.9429 -17.9389 -17.9380 -17.9280 -17.9258 -17.9230 -17.8968
   -17.8892 -17.8828 -17.8743 -17.8618 -17.8611 -17.8567 -17.8553 -17.8543
   -17.8363 -17.8321 -17.8294 -17.8207 -17.8158 -17.8109 -17.8075 -17.8054
   -17.8040 -17.7976 -17.7959 -17.7940 -17.7794 -17.7786 -17.7781 -17.7688
   -17.7672 -17.7643 -17.7613 -17.7601 -17.7579 -17.7354 -17.7352 -17.7339
   -17.7333 -17.7324 -17.7317 -12.2196 -11.9979 -11.9109 -11.8416 -11.7587
   -11.7383 -11.7277 -11.7236 -11.6258 -11.6180 -11.6070 -11.5335 -11.5001
   -11.4932 -11.4855 -11.3892 -11.3167 -11.3108 -11.2251 -11.1880 -11.1793
   -11.1770 -11.1757 -11.1723 -11.1442 -11.1280 -11.0969 -11.0778 -11.0706
   -11.0686 -11.0667 -11.0631 -11.0609 -11.0393 -11.0177 -11.0122 -11.0094
   -11.0020 -10.9993 -10.9945 -10.9927 -10.9866 -10.9847 -10.9724 -10.9631
   -10.9535 -10.9224 -10.9107 -10.9012 -10.8893 -10.8815 -10.8743 -10.8588
   -10.8483 -10.8383 -10.8313 -10.8273 -10.8213 -10.8186 -10.8058 -10.7907
   -10.7881 -10.7831 -10.7814 -10.7738 -10.7698 -10.7685 -10.7672 -10.7665
   -10.7622 -10.7558 -10.7479 -10.7465 -10.7462 -10.7439 -10.7416 -10.7209
   -10.7191 -10.7166 -10.7148 -10.7134 -10.7088 -10.7061 -10.6972 -10.6943
   -10.6761 -10.6757 -10.6752 -10.6749 -10.6722 -10.6713 -10.6209 -10.6035
   -10.5972 -10.5696 -10.5431 -10.5328 -10.5274 -10.5191 -10.5166 -10.5030
   -10.4157 -10.2543 -10.1566 -10.1159 -10.0971 -10.0575  -9.9187  -9.9116
    -9.8892  -9.8551  -9.7915  -9.7630  -9.7505  -9.7449  -9.7391  -9.7352
    -9.7192  -9.7146  -9.7112  -9.7096  -9.7064  -9.7033  -9.7006  -9.6976
    -9.6905  -9.6883  -9.6860  -9.6789  -9.6744  -9.6692  -9.6521  -9.6407
    -9.6210  -9.5908  -9.5732  -9.5686  -9.5682  -9.5655  -9.5623  -9.5572
    -9.5564  -9.5559  -9.5548  -9.5534  -9.5526  -9.5509  -9.5426  -9.5175
    -9.4978  -9.4848  -9.4801  -9.4799  -9.4795  -9.4793  -9.4792  -9.4789
    -9.4760  -9.4586  -9.4579  -9.4445  -9.4381  -9.4203  -9.4140  -9.3967
    -9.3882  -9.3748  -9.3077  -9.3041  -9.3019  -9.2962  -9.2912  -9.2849
    -9.2781  -9.2715  -9.2661  -9.2535  -9.2491  -9.2441  -9.2230  -9.2046
    -9.1978  -9.1769  -9.1668  -9.1564  -9.1468  -9.1381  -9.1269  -9.1205
    -9.1178  -9.1168  -9.1151  -9.1138  -9.0850  -9.0744  -9.0638  -9.0475
    -9.0459  -9.0417  -9.0081  -8.9645  -8.9207  -8.9202  -8.9177  -8.9044
    -8.9002  -8.8965  -8.8938  -8.8858  -8.8781  -8.8714  -8.8665  -8.8551
    -8.8550  -8.8536  -8.8453  -8.8381  -8.8286  -8.8260  -8.8116  -8.7625
    -8.7598  -8.7596  -8.7592  -8.7589  -8.7585  -8.7562  -8.7013  -8.6948
    -8.6905  -8.6830  -8.6745  -8.6682  -8.6150  -8.6110  -8.6075  -8.6016
    -8.5953  -8.5891  -8.5439  -8.5372  -8.5311  -8.5300  -8.5284  -8.5267
    -8.5083  -8.4917  -8.4349  -8.3484  -8.3405  -8.3047  -8.3046  -8.3028
    -8.2992  -8.2980  -8.2938  -8.2920  -8.2899  -8.2526  -8.2224  -8.2149
    -8.2143  -8.2135  -8.2134  -8.2122  -8.2094  -8.1947  -8.1921  -8.1864
    -8.1862  -8.1845  -8.1840  -8.1763  -8.1701  -8.1587  -8.1586  -8.1579
    -8.1575  -8.1561  -8.1535  -8.0480  -7.9531  -7.9148  -7.8248  -7.7999
    -7.7986  -7.7957  -7.7757  -7.7259  -7.7181  -7.7068  -7.6897  -7.6524
    -7.6395  -7.6331  -7.5849  -7.5817  -7.5795  -7.5706  -7.5666  -7.5592
    -7.5459  -7.5409  -7.5388  -7.5131  -7.5038  -7.4961  -7.4842  -7.4778
    -7.4730  -7.4728  -7.4725  -7.4720  -7.4697  -7.4608  -7.4542  -7.4492
    -7.4460  -7.4456  -7.4449  -7.4426  -7.4406  -7.4372  -7.4236  -7.4206
    -7.4203  -7.4199  -7.4195  -7.4180  -7.4156  -7.3979  -7.3893  -7.3799
    -7.3665  -7.3619  -7.3608  -7.3510  -7.3477  -7.3452  -7.3374  -7.3292
    -7.3147  -7.2967  -7.2937  -7.2753  -7.2641  -7.2515  -7.2415  -7.2378
    -7.2325  -7.2295  -7.2285  -7.2267  -7.2241  -7.1996  -7.1892  -7.1880
    -7.1747  -7.1694  -7.1654  -7.1515  -7.1510  -7.1301  -7.1138  -7.0670
    -7.0565  -7.0438  -7.0305  -7.0201  -6.9746  -6.8978  -6.8417  -6.8304
    -6.8130  -6.8035  -6.7931  -6.7669  -6.7420  -6.7242  -6.7190  -6.7151
    -6.6928  -6.6822  -6.6676  -6.6414  -6.6380  -6.6255  -6.6046  -6.5872
    -6.5679  -6.5630  -6.5571  -6.5556  -6.5475  -6.5395  -6.5307  -6.5123
    -6.5070  -6.4939  -6.4835  -6.4773  -6.4756  -6.4621  -6.4543  -6.4508
    -6.4497  -6.4471  -6.4462  -6.4453  -6.4442  -6.4417  -6.4364  -6.4354
    -6.4351  -6.4349  -6.4347  -6.4342  -6.4283  -6.4152  -6.4048  -6.3922
    -6.3764  -6.3748  -6.3524  -6.3474  -6.3467  -6.3305  -6.3011  -6.2878
    -6.2746  -6.2739  -6.2703  -6.2696  -6.2667  -6.2621  -6.2474  -6.2449
    -6.2325  -6.2306  -6.2266  -6.2227  -6.2155  -6.2123  -6.1948  -6.1934
    -6.1909  -6.1891  -6.1877  -6.1861  -6.1698  -6.1592  -6.1296  -5.9843
    -5.8270  -5.6883  -5.5813  -5.4097  -5.3920  -5.3007  -5.1186  -5.0545
    -5.0293  -4.9993  -4.7338  -3.8548  -3.7900  -3.7887  -3.7872  -3.7847
    -3.7732  -3.7671  -3.7651  -3.7626  -3.7612  -3.7596  -3.7474  -3.7033
    -3.6417  -3.6379  -3.6339  -3.6265  -3.6241  -3.6201  -3.6172  -3.6143
    -3.6125  -3.6106  -3.5445  -3.4847  -3.4576  -3.4514  -3.4486  -3.4384
    -3.4305  -3.4270  -3.4183  -3.4125  -3.4092  -3.4083  -3.4062  -3.4018
    -3.3975  -3.3949  -3.3897  -3.3861  -3.3802  -3.3797  -3.3793  -3.3771
    -3.3674  -3.3643  -3.3637  -3.3581  -3.3550  -3.3487  -3.3470  -3.3449
    -3.3419  -3.3391  -3.3372  -3.3335  -3.3237  -3.3223  -3.3116  -3.2977
    -3.2861  -3.2856  -3.2837  -3.2822  -3.2820  -3.2759  -3.2730  -3.2629
    -3.2550  -3.2468  -3.2396  -3.2255  -3.2222  -3.2194  -3.2149  -3.1996
    -3.1962  -3.1631  -3.1522  -3.1466  -3.1400  -3.1331  -3.0947  -3.0227
    -3.0047  -3.0012  -3.0011  -2.9976  -2.9970  -2.9835  -2.9812  -2.9795
    -2.9595  -2.9391  -2.9282  -2.9174  -2.9154  -2.9130  -2.9108  -2.9086
    -2.9075  -2.9053  -2.9005  -2.8998  -2.8997  -2.8968  -2.8914  -2.8909
    -2.8881  -2.8871  -2.8778  -2.8739  -2.8717  -2.8707  -2.8692  -2.8682
    -2.8681  -2.8670  -2.8621  -2.8595  -2.8534  -2.8439  -2.8236  -2.8173
    -2.8104  -2.8050  -2.8015  -2.7941  -2.7884  -2.7587  -2.7430  -2.7426
    -2.7425  -2.7421  -2.7417  -2.7412  -2.7399  -2.7394  -2.7390  -2.7243
    -2.7227  -2.7078  -2.6958  -2.6886  -2.6743  -2.6700  -2.6604  -2.6545
    -2.6453  -2.6086  -2.6047  -2.5758  -2.5741  -2.5614  -2.5538  -2.5534
    -2.5476  -2.5467  -2.5463  -2.5150  -2.5027  -2.4945  -2.4813  -2.4723
    -2.4657  -2.3576  -2.3555  -2.3499  -2.3451  -2.3423  -2.3398

          k = 0.0000-0.5773 0.0000 (386352 PWs)   bands (ev):

  -103.2717 -88.8668 -87.3115 -71.6270 -71.6191 -71.5913 -71.5698 -71.5614
   -71.5333 -71.5257 -66.5699 -66.5568 -66.5563 -66.5563 -66.5551 -66.5551
   -66.5550 -66.5547 -66.5511 -66.5474 -66.5456 -66.5456 -66.5444 -66.5444
   -66.5442 -66.5442 -66.5392 -66.5372 -66.5346 -66.5305 -66.5305 -66.5305
   -66.5305 -66.5305 -66.5293 -66.5293 -66.5293 -66.5293 -66.5293 -66.5293
   -66.5290 -66.5290 -66.5289 -66.5261 -66.5261 -66.5249 -66.5249 -66.5248
   -66.5245 -66.5204 -66.5198 -66.5198 -66.5198 -66.5198 -66.5187 -66.5186
   -66.5186 -66.5186 -66.5186 -66.5185 -66.5184 -66.5180 -66.5171 -66.5154
   -66.5154 -66.5142 -66.5142 -66.5139 -66.5139 -66.4861 -66.4824 -66.4710
   -66.4618 -66.4481 -57.6019 -57.4712 -57.3216 -54.7678 -54.6586 -54.5346
   -53.4114 -52.9793 -52.9528 -40.8673 -40.8648 -40.8583 -40.8583 -40.8582
   -40.8582 -40.8577 -40.8577 -40.8577 -40.8577 -40.8570 -40.8570 -40.8568
   -40.8564 -40.8417 -40.8362 -40.8314 -40.8314 -40.8309 -40.8309 -40.8301
   -40.8299 -40.8285 -40.8223 -40.8194 -40.8194 -40.8189 -40.8188 -40.8179
   -40.8179 -40.8048 -40.7858 -40.7687 -40.7687 -40.7687 -40.7687 -40.7681
   -40.7681 -40.7681 -40.7681 -40.7673 -40.7672 -40.7672 -40.7672 -40.7594
   -40.7559 -40.7480 -40.7459 -40.7327 -40.7184 -40.7122 -40.7100 -40.7100
   -40.7094 -40.7094 -40.7088 -40.7085 -40.7043 -40.7004 -40.7004 -40.6997
   -40.6997 -40.6990 -40.6989 -40.6891 -40.6891 -40.6886 -40.6886 -40.6878
   -40.6877 -40.6825 -40.6808 -40.6772 -40.6766 -40.6682 -40.6609 -40.6599
   -40.6595 -40.6595 -40.6595 -40.6595 -40.6589 -40.6589 -40.6589 -40.6589
   -40.6584 -40.6583 -40.6580 -40.6580 -40.6574 -40.6522 -40.6508 -40.6508
   -40.6502 -40.6502 -40.6496 -40.6493 -40.6492 -40.6389 -40.6389 -40.6385
   -40.6385 -40.6384 -40.6384 -40.6382 -40.6382 -40.6378 -40.6378 -40.6378
   -40.6378 -40.6375 -40.6375 -40.6374 -40.6372 -40.6371 -40.6367 -40.6320
   -40.6302 -40.6298 -40.6298 -40.6292 -40.6292 -40.6285 -40.6284 -40.6233
   -40.6229 -40.6153 -40.6080 -40.6080 -40.6080 -40.6080 -40.6072 -40.6072
   -40.6072 -40.6072 -40.6067 -40.6067 -40.6065 -40.6063 -40.6043 -40.6014
   -40.5991 -40.5933 -40.5841 -40.5732 -40.5732 -40.5732 -40.5732 -40.5724
   -40.5724 -40.5724 -40.5724 -40.5718 -40.5718 -40.5718 -40.5718 -40.5650
   -40.5618 -40.5611 -40.5611 -40.5603 -40.5603 -40.5598 -40.5594 -40.5508
   -40.5455 -40.5418 -40.5418 -40.5410 -40.5409 -40.5405 -40.5402 -40.5382
   -40.5267 -40.5252 -40.5248 -40.5248 -40.5239 -40.5239 -40.5233 -40.5233
   -40.5218 -40.4978 -40.4941 -40.4941 -40.4933 -40.4932 -40.4929 -40.4925
   -40.4808 -40.4638 -40.4441 -20.0425 -19.8290 -19.8071 -19.7729 -19.7106
   -19.6799 -19.6008 -19.5861 -19.4872 -19.4045 -19.3698 -19.3524 -19.2806
   -19.2603 -19.1768 -19.1635 -19.0767 -18.8257 -18.7499 -18.7239 -18.6920
   -18.6808 -18.6617 -18.6577 -18.6540 -18.6505 -18.6257 -18.6017 -18.5929
   -18.5835 -18.5775 -18.5615 -18.5353 -18.5194 -18.5126 -18.4926 -18.4898
   -18.4851 -18.4689 -18.4628 -18.4519 -18.4208 -18.4162 -18.4146 -18.4069
   -18.3754 -18.3501 -18.3465 -18.3419 -18.3165 -18.3132 -18.2993 -18.2728
   -18.2619 -18.2569 -18.2353 -18.1924 -18.1880 -18.1850 -18.1731 -18.1392
   -18.1324 -18.1197 -18.1026 -18.0744 -18.0611 -18.0578 -18.0500 -18.0422
   -18.0380 -18.0352 -18.0347 -18.0261 -18.0121 -18.0097 -18.0079 -18.0032
   -18.0016 -17.9936 -17.9920 -17.9877 -17.9817 -17.9778 -17.9658 -17.9473
   -17.9463 -17.9426 -17.9386 -17.9369 -17.9344 -17.9321 -17.9257 -17.9253
   -17.9149 -17.8864 -17.8829 -17.8746 -17.8719 -17.8687 -17.8571 -17.8300
   -17.8281 -17.8230 -17.8122 -17.7896 -17.7855 -17.7820 -17.7784 -17.7744
   -17.7651 -17.7562 -17.7561 -17.7558 -17.7553 -17.7542 -17.7534 -17.7412
   -17.7408 -17.7222 -17.7209 -17.6982 -17.6968 -17.6791 -17.6771 -17.6639
   -17.6627 -17.6566 -17.6564 -12.1398 -11.8855 -11.7089 -11.6752 -11.6511
   -11.5570 -11.4903 -11.4614 -11.4388 -11.4373 -11.4327 -11.4206 -11.4161
   -11.4096 -11.4001 -11.3473 -11.3435 -11.3251 -11.3231 -11.3207 -11.3018
   -11.2761 -11.2650 -11.2582 -11.2358 -11.2242 -11.2190 -11.2110 -11.2057
   -11.1988 -11.1966 -11.1903 -11.1876 -11.1511 -11.1414 -11.1338 -11.1330
   -11.1252 -11.1119 -11.1058 -11.1045 -11.0998 -11.0860 -11.0833 -11.0808
   -11.0573 -11.0426 -11.0353 -11.0169 -11.0028 -10.9996 -10.9649 -10.9335
   -10.9204 -10.8946 -10.8837 -10.8719 -10.8563 -10.8492 -10.8472 -10.8313
   -10.8005 -10.7897 -10.7764 -10.7726 -10.7675 -10.7589 -10.7515 -10.7489
   -10.7486 -10.7470 -10.7457 -10.7411 -10.7389 -10.7333 -10.7322 -10.7297
   -10.7286 -10.7220 -10.7209 -10.7181 -10.7146 -10.6834 -10.6811 -10.6801
   -10.6797 -10.6585 -10.5828 -10.5118 -10.4825 -10.4686 -10.4658 -10.4491
   -10.4231 -10.3770 -10.3413 -10.3013 -10.2470 -10.1968 -10.1690 -10.1062
   -10.0911 -10.0745 -10.0695 -10.0515 -10.0481 -10.0326 -10.0244  -9.9941
    -9.9934  -9.9737  -9.9720  -9.9715  -9.9655  -9.9584  -9.9496  -9.9245
    -9.9157  -9.8756  -9.8709  -9.8662  -9.8652  -9.8495  -9.8353  -9.8292
    -9.8285  -9.8095  -9.7992  -9.7890  -9.7863  -9.7534  -9.7380  -9.7317
    -9.7183  -9.7080  -9.7019  -9.6803  -9.6795  -9.6543  -9.6405  -9.6253
    -9.6216  -9.5997  -9.5937  -9.5664  -9.5604  -9.5569  -9.5478  -9.5368
    -9.5123  -9.5051  -9.5006  -9.4832  -9.4731  -9.4719  -9.4686  -9.4379
    -9.4288  -9.4266  -9.4138  -9.4113  -9.4065  -9.4034  -9.3959  -9.3914
    -9.3863  -9.3718  -9.3641  -9.3480  -9.3274  -9.2987  -9.2922  -9.2535
    -9.2393  -9.2127  -9.1682  -9.1574  -9.1481  -9.1430  -9.1350  -9.1337
    -9.1148  -9.1084  -9.0969  -9.0833  -9.0762  -9.0606  -9.0514  -9.0253
    -9.0069  -9.0031  -8.9907  -8.9811  -8.9787  -8.9726  -8.9671  -8.9535
    -8.9336  -8.9223  -8.9101  -8.9038  -8.8903  -8.8862  -8.8803  -8.8741
    -8.8670  -8.8439  -8.8286  -8.8269  -8.8247  -8.8239  -8.8226  -8.8147
    -8.8101  -8.8063  -8.8054  -8.8030  -8.7984  -8.7953  -8.7912  -8.7863
    -8.7772  -8.7766  -8.7688  -8.7598  -8.7512  -8.7312  -8.7294  -8.7283
    -8.7259  -8.7229  -8.7203  -8.7157  -8.6994  -8.6978  -8.6773  -8.6702
    -8.6680  -8.6665  -8.6557  -8.6418  -8.6035  -8.5957  -8.5830  -8.5682
    -8.5344  -8.5240  -8.4437  -8.4403  -8.4198  -8.3862  -8.3806  -8.3504
    -8.3108  -8.2954  -8.2812  -8.2277  -8.2148  -8.2030  -8.1315  -8.0665
    -8.0645  -8.0634  -8.0551  -8.0540  -8.0440  -8.0435  -8.0208  -8.0027
    -7.9931  -7.9663  -7.9209  -7.9075  -7.9036  -7.8714  -7.8313  -7.7897
    -7.7846  -7.7797  -7.7782  -7.7697  -7.7581  -7.7540  -7.7504  -7.7446
    -7.7408  -7.7401  -7.7349  -7.7336  -7.7322  -7.7267  -7.7205  -7.7183
    -7.7168  -7.7136  -7.7059  -7.7054  -7.7030  -7.7019  -7.7005  -7.6992
    -7.6951  -7.6949  -7.6900  -7.6817  -7.6756  -7.6673  -7.6664  -7.6632
    -7.6591  -7.6380  -7.6342  -7.6336  -7.6329  -7.6271  -7.6089  -7.6039
    -7.6029  -7.6023  -7.6016  -7.5959  -7.5857  -7.5790  -7.5613  -7.5549
    -7.5470  -7.5449  -7.5434  -7.5401  -7.5340  -7.5270  -7.5215  -7.5206
    -7.5010  -7.5007  -7.4984  -7.4945  -7.4883  -7.4842  -7.4806  -7.4309
    -7.3989  -7.3970  -7.3935  -7.3898  -7.3552  -7.3390  -7.3166  -7.3001
    -7.2451  -7.1660  -7.1222  -7.1093  -7.1054  -7.1027  -7.0891  -7.0836
    -7.0628  -7.0509  -7.0454  -7.0385  -7.0261  -7.0158  -6.9957  -6.9906
    -6.9679  -6.9599  -6.9557  -6.9480  -6.9403  -6.9228  -6.9125  -6.9001
    -6.8663  -6.8526  -6.8461  -6.8353  -6.8266  -6.8186  -6.8077  -6.7972
    -6.7935  -6.7872  -6.7709  -6.7538  -6.7192  -6.7139  -6.6986  -6.6767
    -6.6602  -6.6289  -6.6237  -6.5997  -6.5853  -6.5587  -6.5574  -6.5510
    -6.5458  -6.5422  -6.5410  -6.5385  -6.5344  -6.5241  -6.5233  -6.5221
    -6.5211  -6.5157  -6.5155  -6.5152  -6.5149  -6.4843  -6.4657  -6.4497
    -6.4146  -6.3923  -6.3554  -6.3422  -6.2744  -6.2647  -6.2628  -6.2597
    -6.2488  -6.2370  -6.2281  -6.2199  -6.2161  -6.2129  -6.2114  -6.2103
    -6.2087  -6.2065  -6.1877  -6.1808  -6.1780  -6.1683  -6.1664  -6.1486
    -6.1400  -6.1361  -6.1335  -6.1322  -6.0573  -5.9489  -5.9334  -5.9168
    -5.8888  -5.8608  -5.8337  -5.8267  -5.7973  -5.7866  -5.7803  -5.7015
    -5.6505  -5.6169  -5.5694  -5.5300  -5.5184  -5.4103  -5.3859  -5.0548
    -5.0296  -5.0030  -4.7256  -4.0329  -4.0293  -4.0251  -4.0084  -3.8915
    -3.8655  -3.8634  -3.8568  -3.8488  -3.8122  -3.7797  -3.7772  -3.7672
    -3.7620  -3.7492  -3.7461  -3.7349  -3.7346  -3.7336  -3.6913  -3.6502
    -3.6261  -3.6246  -3.5807  -3.5557  -3.5406  -3.5373  -3.5343  -3.5332
    -3.5032  -3.4887  -3.4862  -3.4820  -3.4600  -3.4577  -3.4537  -3.4466
    -3.4419  -3.4345  -3.4185  -3.4179  -3.4124  -3.4085  -3.4077  -3.4031
    -3.3940  -3.3838  -3.3796  -3.3728  -3.3622  -3.3562  -3.3510  -3.3430
    -3.3277  -3.3066  -3.2927  -3.2849  -3.2837  -3.2813  -3.2800  -3.2773
    -3.2721  -3.2474  -3.2452  -3.2340  -3.2313  -3.2266  -3.2168  -3.2159
    -3.2113  -3.2109  -3.2094  -3.1978  -3.1898  -3.1812  -3.1736  -3.1676
    -3.1664  -3.1570  -3.1551  -3.1470  -3.1456  -3.1438  -3.1308  -3.1221
    -3.1170  -3.1114  -3.1059  -3.1009  -3.0995  -3.0973  -3.0972  -3.0812
    -3.0578  -3.0516  -3.0319  -3.0223  -3.0083  -3.0034  -3.0019  -2.9958
    -2.9757  -2.9642  -2.9582  -2.9575  -2.9570  -2.9563  -2.9542  -2.9482
    -2.9475  -2.9436  -2.9394  -2.9349  -2.9277  -2.9245  -2.9220  -2.9185
    -2.9144  -2.9096  -2.9062  -2.9047  -2.8970  -2.8951  -2.8905  -2.8821
    -2.8809  -2.8780  -2.8722  -2.8685  -2.8628  -2.8602  -2.8537  -2.8399
    -2.8239  -2.8233  -2.8150  -2.8136  -2.8102  -2.7977  -2.7836  -2.7337
    -2.7262  -2.7229  -2.7207  -2.6735  -2.6688  -2.6519  -2.6388  -2.5582
    -2.5486  -2.5296  -2.5151  -2.5008  -2.4900  -2.4837  -2.4786  -2.4724
    -2.4657  -2.4623  -2.4609  -2.4588  -2.4537  -2.3802  -2.3460  -2.3362
    -2.3341  -2.3284  -2.3207  -2.3137  -2.3061  -2.3010  -2.2654

          k =-0.5000-0.2887 0.0000 (386352 PWs)   bands (ev):

  -103.2717 -88.8668 -87.3115 -71.6270 -71.6191 -71.5913 -71.5698 -71.5614
   -71.5333 -71.5257 -66.5694 -66.5586 -66.5563 -66.5563 -66.5551 -66.5551
   -66.5550 -66.5548 -66.5518 -66.5456 -66.5456 -66.5444 -66.5444 -66.5442
   -66.5442 -66.5440 -66.5391 -66.5371 -66.5345 -66.5332 -66.5305 -66.5305
   -66.5305 -66.5305 -66.5293 -66.5293 -66.5293 -66.5293 -66.5292 -66.5292
   -66.5291 -66.5290 -66.5282 -66.5261 -66.5261 -66.5249 -66.5249 -66.5248
   -66.5246 -66.5208 -66.5198 -66.5198 -66.5198 -66.5198 -66.5186 -66.5186
   -66.5186 -66.5186 -66.5186 -66.5184 -66.5183 -66.5182 -66.5165 -66.5154
   -66.5154 -66.5142 -66.5142 -66.5140 -66.5139 -66.4864 -66.4820 -66.4711
   -66.4618 -66.4481 -57.6019 -57.4712 -57.3216 -54.7678 -54.6586 -54.5346
   -53.4114 -52.9793 -52.9528 -40.8600 -40.8583 -40.8582 -40.8582 -40.8582
   -40.8577 -40.8577 -40.8577 -40.8577 -40.8570 -40.8569 -40.8567 -40.8566
   -40.8503 -40.8490 -40.8442 -40.8409 -40.8314 -40.8314 -40.8309 -40.8309
   -40.8301 -40.8299 -40.8266 -40.8194 -40.8194 -40.8189 -40.8189 -40.8179
   -40.8179 -40.8073 -40.7815 -40.7687 -40.7687 -40.7687 -40.7687 -40.7681
   -40.7681 -40.7681 -40.7681 -40.7673 -40.7672 -40.7672 -40.7672 -40.7581
   -40.7550 -40.7454 -40.7398 -40.7293 -40.7236 -40.7100 -40.7100 -40.7094
   -40.7094 -40.7087 -40.7085 -40.7085 -40.7004 -40.7004 -40.7001 -40.6997
   -40.6997 -40.6990 -40.6989 -40.6891 -40.6891 -40.6886 -40.6886 -40.6885
   -40.6878 -40.6877 -40.6809 -40.6765 -40.6724 -40.6709 -40.6670 -40.6597
   -40.6595 -40.6595 -40.6595 -40.6595 -40.6589 -40.6589 -40.6589 -40.6589
   -40.6583 -40.6582 -40.6582 -40.6580 -40.6561 -40.6508 -40.6508 -40.6502
   -40.6502 -40.6496 -40.6495 -40.6493 -40.6461 -40.6389 -40.6389 -40.6385
   -40.6385 -40.6385 -40.6384 -40.6382 -40.6382 -40.6378 -40.6378 -40.6378
   -40.6378 -40.6375 -40.6375 -40.6373 -40.6372 -40.6370 -40.6369 -40.6333
   -40.6298 -40.6298 -40.6292 -40.6292 -40.6285 -40.6284 -40.6275 -40.6227
   -40.6218 -40.6152 -40.6080 -40.6080 -40.6080 -40.6080 -40.6072 -40.6072
   -40.6072 -40.6072 -40.6068 -40.6066 -40.6064 -40.6064 -40.6052 -40.6026
   -40.6010 -40.5935 -40.5898 -40.5733 -40.5732 -40.5732 -40.5732 -40.5724
   -40.5724 -40.5724 -40.5724 -40.5719 -40.5718 -40.5718 -40.5717 -40.5697
   -40.5662 -40.5611 -40.5611 -40.5603 -40.5603 -40.5598 -40.5595 -40.5565
   -40.5418 -40.5418 -40.5412 -40.5410 -40.5410 -40.5404 -40.5402 -40.5339
   -40.5330 -40.5248 -40.5248 -40.5239 -40.5239 -40.5234 -40.5233 -40.5205
   -40.5126 -40.4976 -40.4941 -40.4941 -40.4932 -40.4932 -40.4928 -40.4925
   -40.4789 -40.4630 -40.4480 -20.0441 -19.8278 -19.8069 -19.7704 -19.7102
   -19.6777 -19.6005 -19.5853 -19.4941 -19.4065 -19.3700 -19.3535 -19.2808
   -19.2610 -19.1766 -19.1637 -19.0706 -18.8021 -18.7858 -18.7131 -18.6973
   -18.6754 -18.6618 -18.6575 -18.6561 -18.6429 -18.6274 -18.6008 -18.5934
   -18.5863 -18.5751 -18.5605 -18.5392 -18.5181 -18.5134 -18.4923 -18.4915
   -18.4836 -18.4684 -18.4640 -18.4533 -18.4218 -18.4153 -18.4149 -18.4067
   -18.3765 -18.3501 -18.3459 -18.3425 -18.3250 -18.3172 -18.2908 -18.2718
   -18.2612 -18.2578 -18.2259 -18.1952 -18.1906 -18.1854 -18.1696 -18.1390
   -18.1321 -18.1217 -18.0994 -18.0767 -18.0608 -18.0590 -18.0506 -18.0392
   -18.0383 -18.0354 -18.0343 -18.0250 -18.0109 -18.0104 -18.0061 -18.0037
   -18.0027 -17.9952 -17.9917 -17.9874 -17.9802 -17.9773 -17.9686 -17.9473
   -17.9473 -17.9423 -17.9385 -17.9368 -17.9348 -17.9316 -17.9268 -17.9252
   -17.9156 -17.8887 -17.8832 -17.8747 -17.8720 -17.8654 -17.8588 -17.8316
   -17.8281 -17.8203 -17.8144 -17.7907 -17.7851 -17.7824 -17.7775 -17.7727
   -17.7645 -17.7566 -17.7560 -17.7556 -17.7550 -17.7542 -17.7530 -17.7416
   -17.7405 -17.7228 -17.7205 -17.6986 -17.6965 -17.6795 -17.6768 -17.6641
   -17.6625 -17.6566 -17.6564 -12.1579 -11.8656 -11.6808 -11.6695 -11.6564
   -11.5623 -11.4999 -11.4562 -11.4424 -11.4364 -11.4342 -11.4265 -11.4136
   -11.4066 -11.3893 -11.3617 -11.3511 -11.3299 -11.3159 -11.3081 -11.2984
   -11.2788 -11.2693 -11.2575 -11.2439 -11.2241 -11.2211 -11.2078 -11.2047
   -11.1987 -11.1967 -11.1915 -11.1871 -11.1520 -11.1424 -11.1357 -11.1307
   -11.1181 -11.1113 -11.1058 -11.1051 -11.0987 -11.0889 -11.0841 -11.0826
   -11.0611 -11.0424 -11.0316 -11.0177 -11.0072 -11.0003 -10.9687 -10.9496
   -10.9068 -10.8963 -10.8783 -10.8666 -10.8644 -10.8488 -10.8387 -10.8255
   -10.8173 -10.8086 -10.7751 -10.7732 -10.7673 -10.7625 -10.7538 -10.7503
   -10.7480 -10.7477 -10.7466 -10.7461 -10.7365 -10.7331 -10.7329 -10.7296
   -10.7289 -10.7212 -10.7201 -10.7180 -10.7172 -10.6829 -10.6807 -10.6804
   -10.6800 -10.6539 -10.6175 -10.4808 -10.4789 -10.4661 -10.4644 -10.4298
   -10.4101 -10.3438 -10.3389 -10.3161 -10.2789 -10.2013 -10.1883 -10.1102
   -10.0904 -10.0694 -10.0686 -10.0482 -10.0454 -10.0283 -10.0215  -9.9925
    -9.9879  -9.9758  -9.9695  -9.9681  -9.9656  -9.9578  -9.9493  -9.9288
    -9.9167  -9.8940  -9.8680  -9.8631  -9.8495  -9.8452  -9.8394  -9.8332
    -9.8291  -9.8174  -9.8020  -9.7973  -9.7739  -9.7653  -9.7395  -9.7251
    -9.7201  -9.7041  -9.7029  -9.6778  -9.6720  -9.6699  -9.6351  -9.6292
    -9.6201  -9.5990  -9.5923  -9.5622  -9.5581  -9.5553  -9.5453  -9.5360
    -9.5107  -9.5007  -9.4888  -9.4818  -9.4780  -9.4715  -9.4608  -9.4350
    -9.4277  -9.4259  -9.4118  -9.4090  -9.4057  -9.4032  -9.3969  -9.3914
    -9.3807  -9.3709  -9.3618  -9.3355  -9.3192  -9.3034  -9.2912  -9.2580
    -9.2394  -9.1987  -9.1936  -9.1643  -9.1541  -9.1442  -9.1409  -9.1371
    -9.1046  -9.1032  -9.0964  -9.0878  -9.0774  -9.0545  -9.0469  -9.0431
    -9.0259  -9.0075  -8.9884  -8.9797  -8.9781  -8.9713  -8.9682  -8.9623
    -8.9349  -8.9185  -8.9162  -8.8979  -8.8898  -8.8837  -8.8815  -8.8725
    -8.8616  -8.8399  -8.8324  -8.8277  -8.8272  -8.8234  -8.8205  -8.8151
    -8.8074  -8.8065  -8.8056  -8.8039  -8.7968  -8.7946  -8.7911  -8.7867
    -8.7779  -8.7769  -8.7765  -8.7569  -8.7469  -8.7352  -8.7297  -8.7284
    -8.7264  -8.7229  -8.7199  -8.7180  -8.6997  -8.6975  -8.6728  -8.6701
    -8.6676  -8.6664  -8.6555  -8.6415  -8.6045  -8.5920  -8.5842  -8.5674
    -8.5469  -8.4999  -8.4410  -8.4404  -8.4292  -8.3876  -8.3827  -8.3569
    -8.3064  -8.2981  -8.2775  -8.2388  -8.2166  -8.1583  -8.1265  -8.0719
    -8.0645  -8.0641  -8.0551  -8.0542  -8.0455  -8.0440  -8.0434  -8.0129
    -7.9982  -7.9871  -7.9203  -7.9062  -7.9008  -7.8546  -7.8274  -7.7968
    -7.7871  -7.7781  -7.7765  -7.7665  -7.7587  -7.7507  -7.7487  -7.7472
    -7.7431  -7.7395  -7.7364  -7.7345  -7.7302  -7.7264  -7.7200  -7.7183
    -7.7172  -7.7133  -7.7064  -7.7059  -7.7034  -7.7016  -7.7009  -7.6981
    -7.6964  -7.6950  -7.6940  -7.6798  -7.6774  -7.6686  -7.6673  -7.6647
    -7.6622  -7.6380  -7.6352  -7.6338  -7.6330  -7.6320  -7.6090  -7.6036
    -7.6028  -7.6023  -7.6019  -7.5920  -7.5862  -7.5796  -7.5587  -7.5482
    -7.5454  -7.5445  -7.5429  -7.5380  -7.5347  -7.5269  -7.5219  -7.5201
    -7.5015  -7.5008  -7.5004  -7.4937  -7.4880  -7.4831  -7.4672  -7.4241
    -7.3994  -7.3953  -7.3928  -7.3918  -7.3601  -7.3416  -7.3017  -7.2734
    -7.2476  -7.2162  -7.1242  -7.1101  -7.1059  -7.1054  -7.0980  -7.0762
    -7.0671  -7.0587  -7.0518  -7.0376  -7.0288  -7.0089  -6.9973  -6.9868
    -6.9789  -6.9594  -6.9518  -6.9436  -6.9406  -6.9197  -6.9131  -6.8970
    -6.8697  -6.8537  -6.8498  -6.8347  -6.8299  -6.8160  -6.8123  -6.7981
    -6.7962  -6.7848  -6.7664  -6.7311  -6.7137  -6.7047  -6.6866  -6.6722
    -6.6629  -6.6253  -6.6159  -6.6068  -6.5814  -6.5659  -6.5561  -6.5526
    -6.5429  -6.5422  -6.5411  -6.5393  -6.5251  -6.5246  -6.5232  -6.5225
    -6.5161  -6.5159  -6.5155  -6.5154  -6.5031  -6.4763  -6.4748  -6.4427
    -6.4221  -6.3961  -6.3668  -6.3451  -6.3257  -6.2675  -6.2619  -6.2611
    -6.2540  -6.2404  -6.2338  -6.2192  -6.2138  -6.2128  -6.2106  -6.2099
    -6.2086  -6.1988  -6.1917  -6.1839  -6.1756  -6.1675  -6.1603  -6.1509
    -6.1409  -6.1361  -6.1307  -6.1269  -6.0036  -5.9522  -5.9345  -5.9172
    -5.8962  -5.8682  -5.8461  -5.8261  -5.7971  -5.7847  -5.7794  -5.7052
    -5.6590  -5.6151  -5.5645  -5.5293  -5.5130  -5.4101  -5.3872  -5.0594
    -5.0278  -5.0037  -4.7158  -4.0349  -4.0287  -4.0202  -4.0072  -3.8910
    -3.8686  -3.8607  -3.8576  -3.8460  -3.8099  -3.7833  -3.7772  -3.7703
    -3.7612  -3.7506  -3.7452  -3.7407  -3.7351  -3.7333  -3.7055  -3.6474
    -3.6279  -3.6225  -3.5888  -3.5554  -3.5401  -3.5381  -3.5350  -3.5330
    -3.5176  -3.4925  -3.4855  -3.4767  -3.4646  -3.4608  -3.4569  -3.4470
    -3.4446  -3.4312  -3.4220  -3.4187  -3.4119  -3.4094  -3.4075  -3.3996
    -3.3969  -3.3847  -3.3784  -3.3719  -3.3632  -3.3555  -3.3525  -3.3426
    -3.3346  -3.3059  -3.2904  -3.2873  -3.2815  -3.2807  -3.2776  -3.2756
    -3.2724  -3.2478  -3.2438  -3.2353  -3.2270  -3.2231  -3.2187  -3.2151
    -3.2127  -3.2116  -3.2073  -3.1908  -3.1868  -3.1776  -3.1752  -3.1687
    -3.1648  -3.1599  -3.1481  -3.1455  -3.1446  -3.1372  -3.1333  -3.1214
    -3.1169  -3.1113  -3.1063  -3.1040  -3.0982  -3.0973  -3.0971  -3.0854
    -3.0537  -3.0435  -3.0371  -3.0193  -3.0090  -3.0048  -3.0011  -2.9943
    -2.9811  -2.9613  -2.9593  -2.9583  -2.9564  -2.9559  -2.9552  -2.9478
    -2.9452  -2.9433  -2.9424  -2.9355  -2.9314  -2.9251  -2.9229  -2.9178
    -2.9148  -2.9111  -2.9038  -2.9029  -2.8993  -2.8958  -2.8840  -2.8821
    -2.8787  -2.8781  -2.8727  -2.8666  -2.8652  -2.8573  -2.8430  -2.8346
    -2.8286  -2.8256  -2.8179  -2.8121  -2.8103  -2.8071  -2.7889  -2.7322
    -2.7287  -2.7254  -2.7190  -2.6808  -2.6616  -2.6530  -2.6483  -2.5604
    -2.5459  -2.5325  -2.5236  -2.5146  -2.4983  -2.4883  -2.4810  -2.4750
    -2.4693  -2.4625  -2.4614  -2.4592  -2.4507  -2.4013  -2.3528  -2.3419
    -2.3353  -2.3310  -2.3182  -2.3161  -2.3087  -2.3029  -2.2653

          k =-0.5000-0.8660 0.0000 (386352 PWs)   bands (ev):

  -103.2717 -88.8668 -87.3115 -71.6270 -71.6191 -71.5913 -71.5698 -71.5614
   -71.5333 -71.5257 -66.5699 -66.5563 -66.5563 -66.5551 -66.5551 -66.5550
   -66.5550 -66.5548 -66.5544 -66.5456 -66.5456 -66.5452 -66.5444 -66.5444
   -66.5443 -66.5442 -66.5410 -66.5353 -66.5342 -66.5315 -66.5305 -66.5305
   -66.5305 -66.5305 -66.5294 -66.5294 -66.5294 -66.5293 -66.5293 -66.5293
   -66.5293 -66.5289 -66.5288 -66.5261 -66.5261 -66.5249 -66.5249 -66.5248
   -66.5245 -66.5203 -66.5198 -66.5198 -66.5198 -66.5198 -66.5188 -66.5186
   -66.5186 -66.5186 -66.5186 -66.5185 -66.5183 -66.5179 -66.5170 -66.5154
   -66.5154 -66.5142 -66.5142 -66.5140 -66.5139 -66.4864 -66.4821 -66.4711
   -66.4618 -66.4481 -57.6019 -57.4712 -57.3216 -54.7678 -54.6586 -54.5346
   -53.4114 -52.9793 -52.9528 -40.8710 -40.8607 -40.8583 -40.8582 -40.8582
   -40.8582 -40.8577 -40.8577 -40.8577 -40.8577 -40.8570 -40.8569 -40.8568
   -40.8564 -40.8395 -40.8383 -40.8314 -40.8314 -40.8309 -40.8309 -40.8301
   -40.8299 -40.8246 -40.8194 -40.8194 -40.8189 -40.8189 -40.8180 -40.8180
   -40.8179 -40.8104 -40.7925 -40.7687 -40.7687 -40.7687 -40.7687 -40.7681
   -40.7681 -40.7681 -40.7681 -40.7673 -40.7673 -40.7672 -40.7671 -40.7630
   -40.7529 -40.7479 -40.7450 -40.7286 -40.7259 -40.7100 -40.7100 -40.7094
   -40.7094 -40.7087 -40.7086 -40.7070 -40.7004 -40.7004 -40.6997 -40.6997
   -40.6990 -40.6989 -40.6984 -40.6906 -40.6891 -40.6891 -40.6886 -40.6886
   -40.6878 -40.6877 -40.6832 -40.6751 -40.6721 -40.6700 -40.6642 -40.6595
   -40.6595 -40.6595 -40.6595 -40.6591 -40.6589 -40.6589 -40.6589 -40.6589
   -40.6584 -40.6584 -40.6580 -40.6578 -40.6550 -40.6514 -40.6508 -40.6508
   -40.6502 -40.6502 -40.6495 -40.6493 -40.6473 -40.6389 -40.6389 -40.6385
   -40.6385 -40.6385 -40.6385 -40.6382 -40.6382 -40.6378 -40.6378 -40.6378
   -40.6378 -40.6375 -40.6375 -40.6374 -40.6373 -40.6370 -40.6368 -40.6322
   -40.6298 -40.6298 -40.6292 -40.6292 -40.6285 -40.6284 -40.6275 -40.6246
   -40.6202 -40.6152 -40.6080 -40.6080 -40.6080 -40.6080 -40.6072 -40.6072
   -40.6072 -40.6072 -40.6069 -40.6067 -40.6064 -40.6061 -40.6055 -40.6026
   -40.6020 -40.5876 -40.5850 -40.5732 -40.5732 -40.5732 -40.5732 -40.5724
   -40.5724 -40.5724 -40.5724 -40.5719 -40.5718 -40.5718 -40.5717 -40.5658
   -40.5641 -40.5611 -40.5611 -40.5603 -40.5603 -40.5598 -40.5595 -40.5575
   -40.5464 -40.5418 -40.5418 -40.5410 -40.5410 -40.5406 -40.5400 -40.5387
   -40.5292 -40.5248 -40.5248 -40.5239 -40.5239 -40.5234 -40.5233 -40.5207
   -40.5141 -40.4997 -40.4941 -40.4941 -40.4932 -40.4932 -40.4929 -40.4925
   -40.4831 -40.4655 -40.4419 -20.0440 -19.8288 -19.8069 -19.7716 -19.7100
   -19.6785 -19.6002 -19.5857 -19.4812 -19.4105 -19.3696 -19.3550 -19.2804
   -19.2619 -19.1771 -19.1641 -19.0856 -18.8054 -18.7500 -18.7166 -18.7063
   -18.6814 -18.6615 -18.6577 -18.6549 -18.6500 -18.6298 -18.5998 -18.5910
[...]
     atom  193 type  3   force =    -0.00454240   -0.00451646    0.00525786
     atom  194 type  4   force =    -0.00084986    0.00265780   -0.00420850
     atom  195 type  4   force =    -0.00207701   -0.00046796    0.00158055

     Total force =     0.020110     Total SCF correction =     0.001430
     Energy error            =      8.4E-04 Ry
     Gradient error          =      5.7E-03 Ry/Bohr

     number of scf cycles    =  24
     number of bfgs steps    =  23

     energy             old  =  -34492.2399322960 Ry
     energy             new  =  -34492.2407729523 Ry

     CASE: energy            _new < energy            _old

     new trust radius        =       0.0427949742 bohr
     new conv_thr            =       0.0000000567 Ry


ATOMIC_POSITIONS (angstrom)
Mo               0.0000119917        1.8193638619       -9.1672481230    0   0   0
Mo               1.5756136568        0.9097075315       -3.0554901653    0   0   0
S                0.0000188998        1.8193822938       -4.6232556019    0   0   0
S                1.5756321638        0.9096773839       -7.6014065489    0   0   0
S                1.5756326175        0.9096785128      -10.7330757790    0   0   0
S                0.0000189190        1.8193860094       -1.4877129945    0   0   0
Mo               0.0002316161        1.8207580079        3.0550382142
Mo               1.5831483109        0.9273192881        9.1842296364
S                0.0066435362        1.8573840546        7.6333916308
S                1.5751757850        0.9108114896        4.6227952507
S                1.5756822074        0.9101550359        1.4873659227
S               -0.0015530073        1.7360340155       10.8035937069
Mo              -1.5756053507        4.5484193819       -9.1672481230    0   0   0
Mo               0.0000378379        3.6387394919       -3.0554952701    0   0   0
S               -1.5755913433        4.5484363582       -4.6232494962    0   0   0
S                0.0000148214        3.6387329039       -7.6014065489    0   0   0
S                0.0000152751        3.6387340328      -10.7330757790    0   0   0
S               -1.5755906502        4.5484413613       -1.4877305502    0   0   0
Mo              -1.5750333246        4.5490151848        3.0554043933
Mo              -0.0090064228        3.6403867909        9.2279622579
S               -1.5553889765        4.5689427702        7.6427727393
S                0.0008439038        3.6403185508        4.6238326425
S                0.0001881922        3.6394965276        1.4869945560
S               -1.6408804054        4.5926597233       10.7808617149
Mo              -3.1512226931        7.2774749019       -9.1672481230    0   0   0
Mo              -1.5755910988        6.3678216792       -3.0555115988    0   0   0
S               -3.1512162438        7.2774954350       -4.6232578178    0   0   0
S               -1.5756025210        6.3677884239       -7.6014065489    0   0   0
S               -1.5756020673        6.3677895528      -10.7330757790    0   0   0
S               -3.1512127704        7.2774877076       -1.4877200710    0   0   0
Mo              -3.1506676237        7.2777887378        3.0557752750
Mo              -1.5888620642        6.3990622009        9.1947589016
S               -3.1324922012        7.2950990614        7.5974612310
S               -1.5743518630        6.3681011766        4.6239618976
S               -1.5753065005        6.3683638282        1.4876872779
S               -3.1711371489        7.3111813124       10.7432991769
Mo              -4.7268400355       10.0065304219       -9.1672481230    0   0   0
Mo              -3.1512405618        9.0968403586       -3.0554816746    0   0   0
S               -4.7268341792       10.0065523623       -4.6232463762    0   0   0
S               -3.1512198634        9.0968439439       -7.6014065489    0   0   0
S               -3.1512194097        9.0968450728      -10.7330757790    0   0   0
S               -4.7268370797       10.0065537885       -1.4877176751    0   0   0
Mo              -4.7268050900       10.0072085042        3.0551037553
Mo              -3.1498847702        9.1183081431        9.1633248236
S               -4.7225282440       10.0415133553        7.5977784977
S               -3.1515052705        9.0973935398        4.6232387655
S               -3.1510634934        9.0970057878        1.4878360018
S               -4.7210719137       10.0154997195       10.7398287351
Mo               3.1512517547        1.8193638619       -9.1672481230    0   0   0
Mo               4.7269020221        0.9097289540       -3.0554823951    0   0   0
S                3.1512612351        1.8193882564       -4.6232320683    0   0   0
S                4.7268719268        0.9096773839       -7.6014065489    0   0   0
S                4.7268723805        0.9096785128      -10.7330757790    0   0   0
S                3.1512592485        1.8193890201       -1.4877261251    0   0   0
Mo               3.1510275304        1.8202258009        3.0555867556
Mo               4.7286541908        0.9229149509        9.1620884011
S                3.1482551566        1.8332931469        7.5997815540
S                4.7267704345        0.9105428823        4.6231114580
S                4.7266205474        0.9098751707        1.4879138568
S                3.1703099313        1.8201032362       10.7477054839
Mo               1.5756344123        4.5484193819       -9.1672481230    0   0   0
Mo               3.1512756394        3.6387769522       -3.0554814834    0   0   0
S                1.5756504879        4.5484423799       -4.6232390542    0   0   0
S                3.1512545844        3.6387329039       -7.6014065489    0   0   0
S                3.1512550381        3.6387340328      -10.7330757790    0   0   0
S                1.5756466253        4.5484431864       -1.4877251801    0   0   0
Mo               1.5756875015        4.5495605779        3.0550832208
Mo               3.1968832666        3.6365564954        9.1794318247
S                1.5695069667        4.5806301861        7.6804323017
S                3.1504917440        3.6401985424        4.6237641441
S                3.1514916458        3.6390834994        1.4875303560
S                1.6624477810        4.5198394889       10.7578800448
Mo               0.0000170699        7.2774749019       -9.1672481230    0   0   0
Mo               1.5756764447        6.3678236689       -3.0554877708    0   0   0
S                0.0000381981        7.2774979204       -4.6232454413    0   0   0
S                1.5756372420        6.3677884239       -7.6014065489    0   0   0
S                1.5756376957        6.3677895528      -10.7330757790    0   0   0
S                0.0000328088        7.2774946042       -1.4877307940    0   0   0
Mo               0.0007147343        7.2776219023        3.0557285164
Mo               1.6016152407        6.4231875918        9.2191274410
S                0.0193445318        7.2865682248        7.6499962106
S                1.5760180948        6.3680034693        4.6247113894
S                1.5757867900        6.3686229897        1.4871458653
S               -0.0745830752        7.3782721315       10.7940682909
Mo              -1.5756002725       10.0065304219       -9.1672481230    0   0   0
Mo               0.0000873425        9.0968676911       -3.0554912329    0   0   0
S               -1.5755883952       10.0065504530       -4.6232240150    0   0   0
S                0.0000198996        9.0968439439       -7.6014065489    0   0   0
S                0.0000203533        9.0968450728      -10.7330757790    0   0   0
S               -1.5755859047       10.0065492576       -1.4877362381    0   0   0
Mo              -1.5755469751       10.0067965622        3.0558868204
Mo              -0.0012259056        9.1393745758        9.1694126992
S               -1.5740664010       10.0218683550        7.5906692694
S                0.0002725621        9.0964873121        4.6239244539
S                0.0000953524        9.0972360411        1.4879808916
S               -1.5836871835       10.0308599044       10.7373140359
Mo               6.3024915177        1.8193638619       -9.1672481230    0   0   0
Mo               7.8781001445        0.9096521684       -3.0554919963    0   0   0
S                6.3025008696        1.8193826232       -4.6232480596    0   0   0
S                7.8781116898        0.9096773839       -7.6014065489    0   0   0
S                7.8781121435        0.9096785128      -10.7330757790    0   0   0
S                6.3025042007        1.8193849068       -1.4877147524    0   0   0
Mo               6.3025583939        1.8198217453        3.0553727270
Mo               7.8814333937        0.9325202831        9.1614335978
S                6.3043659521        1.8354740688        7.5879092825
S                7.8783392937        0.9105943534        4.6232900707
S                7.8782811812        0.9099924120        1.4879259117
S                6.3060192031        1.8364580648       10.7281522600
Mo               4.7268741753        4.5484193819       -9.1672481230    0   0   0
Mo               6.3024679138        3.6387501714       -3.0554895197    0   0   0
S                4.7268748770        4.5484386753       -4.6232519432    0   0   0
S                6.3024943474        3.6387329039       -7.6014065489    0   0   0
S                6.3024948011        3.6387340328      -10.7330757790    0   0   0
S                4.7268770533        4.5484432419       -1.4877137856    0   0   0
Mo               4.7268541775        4.5490600711        3.0555527284
Mo               6.3145398876        3.6562417559        9.1581200514
S                4.7349467071        4.5677905568        7.5959558484
S                6.3026927360        3.6391932733        4.6229371399
S                6.3026789700        3.6390012885        1.4875563025
S                4.7638470367        4.5713490410       10.7334030624
Mo               3.1512568329        7.2774749019       -9.1672481230    0   0   0
Mo               4.7268384135        6.3678043337       -3.0554959052    0   0   0
S                3.1512606125        7.2774972547       -4.6232589675    0   0   0
S                4.7268770050        6.3677884239       -7.6014065489    0   0   0
S                4.7268774587        6.3677895528      -10.7330757790    0   0   0
S                3.1512629079        7.2774963749       -1.4877081835    0   0   0
Mo               3.1510041548        7.2779416031        3.0554215984
Mo               4.7521577779        6.3927990566        9.1698247062
S                3.1555483916        7.2998298163        7.6326735524
S                4.7262815889        6.3686531694        4.6233825502
S                4.7271035957        6.3683240623        1.4875537646
S                3.2913149813        7.3855456198       10.8197027369
Mo               1.5756394905       10.0065304219       -9.1672481230    0   0   0
Mo               3.1512330605        9.0968514907       -3.0554878870    0   0   0
S                1.5756499830       10.0065443759       -4.6232632674    0   0   0
S                3.1512596626        9.0968439439       -7.6014065489    0   0   0
S                3.1512601163        9.0968450728      -10.7330757790    0   0   0
S                1.5756503041       10.0065459699       -1.4877044377    0   0   0
Mo               1.5757817094       10.0069505136        3.0560414488
Mo               3.1699011399        9.1354096064        9.1680511471
S                1.5799992742       10.0272594760        7.5962456124
S                3.1513834923        9.0969610143        4.6238766139
S                3.1514186675        9.0976939294        1.4878547863
S                1.5851548098       10.0367409512       10.7315839183
Mo               9.4537312807        1.8193638619       -9.1672481230    0   0   0
Mo              11.0293863460        0.9096952246       -3.0554894007    0   0   0
S                9.4537395970        1.8193770750       -4.6232328036    0   0   0
S               11.0293514528        0.9096773839       -7.6014065489    0   0   0
S               11.0293519066        0.9096785128      -10.7330757790    0   0   0
S                9.4537393632        1.8193794783       -1.4877366147    0   0   0
Mo               9.4538943166        1.8201899494        3.0555817260
Mo              11.0314281718        0.9280961865        9.1724999991
S                9.4613735231        1.8431598861        7.5976596843
S               11.0298167393        0.9114337403        4.6231536013
S               11.0293575062        0.9102614481        1.4877800136
S                9.4487869264        1.8373369730       10.7376553722
Mo               7.8781139383        4.5484193819       -9.1672481230    0   0   0
Mo               9.4537539161        3.6387607911       -3.0554933032    0   0   0
S                7.8781175448        4.5484378232       -4.6232366318    0   0   0
S                9.4537341104        3.6387329039       -7.6014065489    0   0   0
S                9.4537345641        3.6387340328      -10.7330757790    0   0   0
S                7.8781194018        4.5484411585       -1.4877377057    0   0   0
Mo               7.8785175977        4.5486120695        3.0554352027
Mo               9.4460889585        3.6563568176        9.1728647368
S                7.8892261420        4.5611155332        7.5886234197
S                9.4546100950        3.6395599556        4.6235896119
S                9.4538783791        3.6389587484        1.4875616774
S                7.8744463754        4.5722383545       10.7326520698
Mo               6.3024965959        7.2774749019       -9.1672481230    0   0   0
Mo               7.8781361655        6.3678242352       -3.0555014130    0   0   0
S                6.3024973331        7.2774953556       -4.6232392528    0   0   0
S                7.8781167680        6.3677884239       -7.6014065489    0   0   0
S                7.8781172217        6.3677895528      -10.7330757790    0   0   0
S                6.3024989866        7.2774929744       -1.4877349119    0   0   0
Mo               6.3025621806        7.2779771515        3.0556257233
Mo               7.8881972151        6.3876360049        9.1545466415
S                6.3140499689        7.3036894584        7.5857751888
S                7.8785704500        6.3678805491        4.6231090234
S                7.8784066869        6.3681051089        1.4879588804
S                6.3328829480        7.3034047285       10.7278433431
Mo               4.7268792535       10.0065304219       -9.1672481230    0   0   0
Mo               6.3025111524        9.0968738021       -3.0554915260    0   0   0
S                4.7268840634       10.0065452125       -4.6232380477    0   0   0
S                6.3024994256        9.0968439439       -7.6014065489    0   0   0
S                6.3024998793        9.0968450728      -10.7330757790    0   0   0
S                4.7268847312       10.0065459141       -1.4877283294    0   0   0
Mo               4.7269415595       10.0073270483        3.0558240323
Mo               6.3104303400        9.1231480654        9.1598213263
S                4.7362919208       10.0399491892        7.5895527127
S                6.3028596970        9.0977917367        4.6227856368
S                6.3023219878        9.0972967085        1.4877402817
S                4.7425181435       10.0334839817       10.7389896316
Pt               1.6304170105        6.3557297809       12.0553346379
Pd               0.1372006566        3.6563335768       12.1855020815
Pd               0.8763233623        5.1517422651       14.1693902950



     Writing config-only to output data dir ./outdir/pwscf.save/ :
     XML data file
     NEW-OLD atomic charge density approx. for the potential

     negative rho (up, down):  9.376E-04 0.000E+00

     total cpu time spent up to now is   252641.5 secs

     Self-consistent Calculation

     iteration #  1     ecut=    77.00 Ry     beta= 0.20
     Davidson diagonalization with overlap
     ethr =  1.00E-06,  avg # of iterations = 17.0

     Threshold (ethr) on eigenvalues was too large:
     Diagonalizing with lowered threshold

     Davidson diagonalization with overlap
     ethr =  7.95E-08,  avg # of iterations = 12.0

     negative rho (up, down):  9.320E-04 0.000E+00

     total cpu time spent up to now is   254309.5 secs

     total energy              =  -34492.24202848 Ry
     estimated scf accuracy    <       0.00128717 Ry

     iteration #  2     ecut=    77.00 Ry     beta= 0.20
     Davidson diagonalization with overlap
     ethr =  7.43E-08,  avg # of iterations = 12.0

     negative rho (up, down):  9.288E-04 0.000E+00

     total cpu time spent up to now is   254795.2 secs

     total energy              =  -34492.24198049 Ry
     estimated scf accuracy    <       0.00105808 Ry

     iteration #  3     ecut=    77.00 Ry     beta= 0.20
     Davidson diagonalization with overlap
     ethr =  6.11E-08,  avg # of iterations =  8.0

     negative rho (up, down):  9.262E-04 0.000E+00

     total cpu time spent up to now is   255225.1 secs

     total energy              =  -34492.24178098 Ry
     estimated scf accuracy    <       0.00021757 Ry

     iteration #  4     ecut=    77.00 Ry     beta= 0.20
     Davidson diagonalization with overlap
     ethr =  1.26E-08,  avg # of iterations = 11.8

     negative rho (up, down):  9.230E-04 0.000E+00

     total cpu time spent up to now is   255872.3 secs

     total energy              =  -34492.24162399 Ry
     estimated scf accuracy    <       0.00009593 Ry

     iteration #  5     ecut=    77.00 Ry     beta= 0.20
     Davidson diagonalization with overlap
     ethr =  5.54E-09,  avg # of iterations = 10.8

     negative rho (up, down):  9.210E-04 0.000E+00

     total cpu time spent up to now is   256343.8 secs

     total energy              =  -34492.24150422 Ry
     estimated scf accuracy    <       0.00004127 Ry

     iteration #  6     ecut=    77.00 Ry     beta= 0.20
     Davidson diagonalization with overlap
     ethr =  2.38E-09,  avg # of iterations =  8.8

     negative rho (up, down):  9.198E-04 0.000E+00

     total cpu time spent up to now is   256841.6 secs

     total energy              =  -34492.24142404 Ry
     estimated scf accuracy    <       0.00002997 Ry

     iteration #  7     ecut=    77.00 Ry     beta= 0.20
     Davidson diagonalization with overlap
     ethr =  1.73E-09,  avg # of iterations =  6.2

     negative rho (up, down):  9.213E-04 0.000E+00

     total cpu time spent up to now is   257289.3 secs

     total energy              =  -34492.24136682 Ry
     estimated scf accuracy    <       0.00001578 Ry

     iteration #  8     ecut=    77.00 Ry     beta= 0.20
     Davidson diagonalization with overlap
     ethr =  9.11E-10,  avg # of iterations = 14.2

     negative rho (up, down):  9.198E-04 0.000E+00

     total cpu time spent up to now is   257965.1 secs

     total energy              =  -34492.24137149 Ry
     estimated scf accuracy    <       0.00000541 Ry

     iteration #  9     ecut=    77.00 Ry     beta= 0.20
     Davidson diagonalization with overlap
     ethr =  3.12E-10,  avg # of iterations = 12.5

     negative rho (up, down):  9.191E-04 0.000E+00

     total cpu time spent up to now is   258495.5 secs

     total energy              =  -34492.24136895 Ry
     estimated scf accuracy    <       0.00000317 Ry

     iteration # 10     ecut=    77.00 Ry     beta= 0.20
     Davidson diagonalization with overlap
     ethr =  1.83E-10,  avg # of iterations = 12.2

     negative rho (up, down):  9.191E-04 0.000E+00

     total cpu time spent up to now is   259143.4 secs

     total energy              =  -34492.24136808 Ry
     estimated scf accuracy    <       0.00000125 Ry

     iteration # 11     ecut=    77.00 Ry     beta= 0.20
     Davidson diagonalization with overlap
