
     Program PWSCF v.7.3 starts on 28Mar2024 at 22: 0:34 

     This program is part of the open-source Quantum ESPRESSO suite
     for quantum simulation of materials; please cite
         "P. Giannozzi et al., J. Phys.:Condens. Matter 21 395502 (2009);
         "P. Giannozzi et al., J. Phys.:Condens. Matter 29 465901 (2017);
         "P. Giannozzi et al., J. Chem. Phys. 152 154105 (2020);
          URL http://www.quantum-espresso.org", 
     in publications or presentations arising from this work. More details at
     http://www.quantum-espresso.org/quote

     Parallel version (MPI & OpenMP), running on      36 processor cores
     Number of MPI processes:                36
     Threads/MPI process:                     1

     MPI processes distributed on     1 nodes
     560389 MiB available memory on the printing compute node when the environment starts
 
     Waiting for input...
     Reading input from standard input
Warning: card &CELL ignored
Warning: card / ignored

     Current dimensions of program PWSCF are:
     Max number of different atomic species (ntypx) = 10
     Max number of k-points (npk) =  40000
     Max angular momentum in pseudopotentials (lmaxx) =  4
     file Mo.pbe-spn-kjpaw_psl.1.0.0.UPF: wavefunction(s)  4S 4D renormalized
     file S.pbe-n-kjpaw_psl.1.0.0.UPF: wavefunction(s)  3S 3P renormalized
     file Pd.pbe-spn-kjpaw_psl.1.0.0.UPF: wavefunction(s)  4S 5S 4D renormalized
     file Pt.pbe-spfn-kjpaw_psl.1.0.0.UPF: wavefunction(s)  5P 4F renormalized
 
     R & G space division:  proc/nbgrp/npool/nimage =      36
     Subspace diagonalization in iterative solution of the eigenvalue problem:
     one sub-group per band group will be used
     scalapack distributed-memory algorithm (size of sub-group:  6*  6 procs)

 
     Parallelization info
     --------------------
     sticks:   dense  smooth     PW     G-vecs:    dense   smooth      PW
     Min         586     335     89               165416    71459    9765
     Max         587     337     90               165425    71461    9778
     Sum       21109   12085   3205              5955087  2572543  351657
 
     Using Slab Decomposition
 


     bravais-lattice index     =            0
     lattice parameter (alat)  =      23.8395  a.u.
     unit-cell volume          =   28182.8498 (a.u.)^3
     number of atoms/cell      =          147
     number of atomic types    =            4
     number of electrons       =      1316.00
     number of Kohn-Sham states=          790
     kinetic-energy cutoff     =      77.0000  Ry
     charge density cutoff     =     539.0000  Ry
     scf convergence threshold =      1.0E-06
     mixing beta               =       0.2000
     number of iterations used =            8  plain     mixing
     energy convergence thresh.=      1.0E-04
     force convergence thresh. =      1.0E-03
     Exchange-correlation= SLA  PW   PBX  PBC
                           (   1   4   3   4   0   0   0)
     nstep                     =         1000


     Effective Screening Medium Method
     =================================
     Boundary Conditions: Vacuum-Slab-Vacuum
     total charge in unit cell        =   0.0000
     grid points for fit at edges     =        4 
 

     celldm(1)=  23.839504  celldm(2)=   0.000000  celldm(3)=   0.000000
     celldm(4)=   0.000000  celldm(5)=   0.000000  celldm(6)=   0.000000

     crystal axes: (cart. coord. in units of alat)
               a(1) = (   1.000000   0.000000   0.000000 )  
               a(2) = (  -0.500001   0.866026   0.000000 )  
               a(3) = (   0.000000   0.000000   2.401941 )  

     reciprocal axes: (cart. coord. in units 2 pi/alat)
               b(1) = (  1.000000  0.577351  0.000000 )  
               b(2) = (  0.000000  1.154700  0.000000 )  
               b(3) = (  0.000000  0.000000  0.416330 )  


     PseudoPot. # 1 for Mo read from file:
     ./pseudo/Mo.pbe-spn-kjpaw_psl.1.0.0.UPF
     MD5 check sum: 317bf72632116215fd98f72de1686f13
     Pseudo is Projector augmented-wave + core cor, Zval = 14.0
     Generated using 'atomic' code by A. Dal Corso  v.7.2
     Shape of augmentation charge: PSQ
     Using radial grid of 1229 points,  6 beta functions with: 
                l(1) =   0
                l(2) =   0
                l(3) =   1
                l(4) =   1
                l(5) =   2
                l(6) =   2
     Q(r) pseudized with 0 coefficients 


     PseudoPot. # 2 for S  read from file:
     ./pseudo/S.pbe-n-kjpaw_psl.1.0.0.UPF
     MD5 check sum: 8b7b5302570d38d5e87fed6a1065abda
     Pseudo is Projector augmented-wave + core cor, Zval =  6.0
     Generated using 'atomic' code by A. Dal Corso  v.7.2
     Shape of augmentation charge: PSQ
     Using radial grid of 1151 points,  6 beta functions with: 
                l(1) =   0
                l(2) =   0
                l(3) =   1
                l(4) =   1
                l(5) =   2
                l(6) =   2
     Q(r) pseudized with 0 coefficients 


     PseudoPot. # 3 for Pd read from file:
     ./pseudo/Pd.pbe-spn-kjpaw_psl.1.0.0.UPF
     MD5 check sum: a60571a671f2502b8a6a4569d20a6edb
     Pseudo is Projector augmented-wave + core cor, Zval = 18.0
     Generated using 'atomic' code by A. Dal Corso  v.7.2
     Shape of augmentation charge: PSQ
     Using radial grid of 1235 points,  6 beta functions with: 
                l(1) =   0
                l(2) =   0
                l(3) =   1
                l(4) =   1
                l(5) =   2
                l(6) =   2
     Q(r) pseudized with 0 coefficients 


     PseudoPot. # 4 for Pt read from file:
     ./pseudo/Pt.pbe-spfn-kjpaw_psl.1.0.0.UPF
     MD5 check sum: 620096ebf4e6ebacc94de60fd67efcb5
     Pseudo is Projector augmented-wave + core cor, Zval = 32.0
     Generated using 'atomic' code by A. Dal Corso  v.7.2
     Shape of augmentation charge: PSQ
     Using radial grid of 1277 points,  8 beta functions with: 
                l(1) =   0
                l(2) =   0
                l(3) =   1
                l(4) =   1
                l(5) =   2
                l(6) =   2
                l(7) =   3
                l(8) =   3
     Q(r) pseudized with 0 coefficients 


     atomic species   valence    mass     pseudopotential
     Mo               14.00    95.95000     Mo( 1.00)
     S                 6.00    32.06000     S ( 1.00)
     Pd               18.00   106.42000     Pd( 1.00)
     Pt               32.00   195.08400     Pt( 1.00)

     No symmetry found



   Cartesian axes

     site n.     atom                  positions (alat units)
         1        Mo     tau(   1) = (   0.1248625   0.2131281   0.4810783  )
         2        Mo     tau(   2) = (   0.1250004   0.0721694  -0.4825273  )
         3        Mo     tau(   3) = (  -0.0000005   0.1443526  -0.0000490  )
         4        S      tau(   4) = (   0.0000004   0.0000006  -0.6064556  )
         5        S      tau(   5) = (   0.1249809   0.0722325  -0.1242083  )
         6        S      tau(   6) = (  -0.0008091   0.1437924   0.3564499  )
         7        S      tau(   7) = (   0.0000004   0.0000005  -0.3584711  )
         8        S      tau(   8) = (   0.1250266   0.0721270   0.1240857  )
         9        S      tau(   9) = (  -0.0005942   0.1424836   0.6054838  )
        10        Mo     tau(  10) = (  -0.0011099   0.4328730   0.4866737  )
        11        Mo     tau(  11) = (   0.0000001   0.2886759  -0.4825273  )
        12        Mo     tau(  12) = (  -0.1249710   0.3608625  -0.0000153  )
        13        S      tau(  13) = (  -0.1249999   0.2165071  -0.6064556  )
        14        S      tau(  14) = (   0.0000009   0.2886909  -0.1241159  )
        15        S      tau(  15) = (  -0.1236884   0.3618446   0.3606188  )
        16        S      tau(  16) = (  -0.1249998   0.2165070  -0.3584711  )
        17        S      tau(  17) = (   0.0000530   0.2887092   0.1242638  )
        18        S      tau(  18) = (  -0.1316249   0.3573130   0.6109420  )
        19        Mo     tau(  19) = (  -0.1257401   0.6504248   0.4820927  )
        20        Mo     tau(  20) = (  -0.1250002   0.5051824  -0.4825273  )
        21        Mo     tau(  21) = (  -0.2499958   0.5773353  -0.0001714  )
        22        S      tau(  22) = (  -0.2500002   0.4330136  -0.6064556  )
        23        S      tau(  23) = (  -0.1249719   0.5051311  -0.1241932  )
        24        S      tau(  24) = (  -0.2500164   0.5770675   0.3576049  )
        25        S      tau(  25) = (  -0.2500001   0.4330135  -0.3584711  )
        26        S      tau(  26) = (  -0.1250100   0.5052346   0.1241515  )
        27        S      tau(  27) = (  -0.2503695   0.5776584   0.6061514  )
        28        Mo     tau(  28) = (   0.2502170  -0.0003953   0.4806411  )
        29        Mo     tau(  29) = (  -0.2500004   0.7216889  -0.4825273  )
        30        Mo     tau(  30) = (  -0.3749978   0.7938641  -0.0002041  )
        31        S      tau(  31) = (  -0.3750004   0.6495201  -0.6064556  )
        32        S      tau(  32) = (  -0.2499890   0.7216755  -0.1242803  )
        33        S      tau(  33) = (  -0.3749740   0.7932749   0.3566586  )
        34        S      tau(  34) = (  -0.3750004   0.6495200  -0.3584711  )
        35        S      tau(  35) = (  -0.2500089   0.7216778   0.1239952  )
        36        S      tau(  36) = (  -0.3749998   0.7939174   0.6051309  )
        37        Mo     tau(  37) = (   0.3753608   0.2157704   0.4822604  )
        38        Mo     tau(  38) = (   0.3750004   0.0721694  -0.4825273  )
        39        Mo     tau(  39) = (   0.2499960   0.1443611  -0.0001003  )
        40        S      tau(  40) = (   0.2500004   0.0000006  -0.6064556  )
        41        S      tau(  41) = (   0.3750017   0.0721909  -0.1242276  )
        42        S      tau(  42) = (   0.2507085   0.1439928   0.3565793  )
        43        S      tau(  43) = (   0.2500004   0.0000005  -0.3584711  )
        44        S      tau(  44) = (   0.3750105   0.0721153   0.1240138  )
        45        S      tau(  45) = (   0.2503040   0.1425185   0.6055897  )
        46        Mo     tau(  46) = (   0.2508295   0.4328457   0.4866827  )
        47        Mo     tau(  47) = (   0.2500001   0.2886759  -0.4825273  )
        48        Mo     tau(  48) = (   0.1249947   0.3608692  -0.0000343  )
        49        S      tau(  49) = (   0.1250001   0.2165071  -0.6064556  )
        50        S      tau(  50) = (   0.2499709   0.2887106  -0.1241515  )
        51        S      tau(  51) = (   0.1248475   0.3620695   0.3632119  )
        52        S      tau(  52) = (   0.1250002   0.2165070  -0.3584711  )
        53        S      tau(  53) = (   0.2499461   0.2887051   0.1242364  )
        54        S      tau(  54) = (   0.1248217   0.3502704   0.6102012  )
        55        Mo     tau(  55) = (   0.1249300   0.6515066   0.4828014  )
        56        Mo     tau(  56) = (   0.1249998   0.5051824  -0.4825273  )
        57        Mo     tau(  57) = (   0.0000129   0.5773133  -0.0000993  )
        58        S      tau(  58) = (  -0.0000002   0.4330136  -0.6064556  )
        59        S      tau(  59) = (   0.1250046   0.5051576  -0.1241791  )
        60        S      tau(  60) = (   0.0000991   0.5758547   0.3610070  )
        61        S      tau(  61) = (  -0.0000001   0.4330135  -0.3584711  )
        62        S      tau(  62) = (   0.1249978   0.5051967   0.1242137  )
        63        S      tau(  63) = (  -0.0004561   0.5855879   0.6099183  )
        64        Mo     tau(  64) = (   0.4999896   0.0002543   0.4809432  )
        65        Mo     tau(  65) = (  -0.0000004   0.7216889  -0.4825273  )
        66        Mo     tau(  66) = (  -0.1249822   0.7938260  -0.0001787  )
        67        S      tau(  67) = (  -0.1250004   0.6495201  -0.6064556  )
        68        S      tau(  68) = (   0.0000560   0.7216541  -0.1241922  )
        69        S      tau(  69) = (  -0.1247643   0.7934174   0.3566857  )
        70        S      tau(  70) = (  -0.1250004   0.6495200  -0.3584711  )
        71        S      tau(  71) = (  -0.0000442   0.7215876   0.1241439  )
        72        S      tau(  72) = (  -0.1253483   0.7949346   0.6057201  )
        73        Mo     tau(  73) = (   0.6249017   0.2165129   0.4812697  )
        74        Mo     tau(  74) = (   0.6250004   0.0721694  -0.4825273  )
        75        Mo     tau(  75) = (   0.4999952   0.1443533  -0.0001098  )
        76        S      tau(  76) = (   0.5000004   0.0000006  -0.6064556  )
        77        S      tau(  77) = (   0.6250318   0.0721540  -0.1241362  )
        78        S      tau(  78) = (   0.4996954   0.1447446   0.3570727  )
        79        S      tau(  79) = (   0.5000004   0.0000005  -0.3584711  )
        80        S      tau(  80) = (   0.6249569   0.0721720   0.1241430  )
        81        S      tau(  81) = (   0.5006050   0.1436236   0.6059489  )
        82        Mo     tau(  82) = (   0.5006857   0.4329470   0.4824369  )
        83        Mo     tau(  83) = (   0.5000001   0.2886759  -0.4825273  )
        84        Mo     tau(  84) = (   0.3749597   0.3608609  -0.0000517  )
        85        S      tau(  85) = (   0.3750001   0.2165071  -0.6064556  )
        86        S      tau(  86) = (   0.4999928   0.2887170  -0.1241435  )
        87        S      tau(  87) = (   0.3733222   0.3618437   0.3607838  )
        88        S      tau(  88) = (   0.3750002   0.2165070  -0.3584711  )
        89        S      tau(  89) = (   0.4999211   0.2887076   0.1241935  )
        90        S      tau(  90) = (   0.3816191   0.3573238   0.6109900  )
        91        Mo     tau(  91) = (   0.3756235   0.6503811   0.4821918  )
        92        Mo     tau(  92) = (   0.3749998   0.5051824  -0.4825273  )
        93        Mo     tau(  93) = (   0.2499864   0.5773188  -0.0000834  )
        94        S      tau(  94) = (   0.2499998   0.4330136  -0.6064556  )
        95        S      tau(  95) = (   0.3749642   0.5051523  -0.1241979  )
        96        S      tau(  96) = (   0.2498138   0.5757592   0.3610614  )
        97        S      tau(  97) = (   0.2499999   0.4330135  -0.3584711  )
        98        S      tau(  98) = (   0.3750061   0.5052047   0.1241511  )
        99        S      tau(  99) = (   0.2502814   0.5855194   0.6099661  )
       100        Mo     tau( 100) = (   0.7499287   0.0002139   0.4807633  )
       101        Mo     tau( 101) = (   0.2499996   0.7216889  -0.4825273  )
       102        Mo     tau( 102) = (   0.1249938   0.7938245  -0.0000338  )
       103        S      tau( 103) = (   0.1249996   0.6495201  -0.6064556  )
       104        S      tau( 104) = (   0.2499613   0.7216724  -0.1241590  )
       105        S      tau( 105) = (   0.1248898   0.7937393   0.3567607  )
       106        S      tau( 106) = (   0.1249996   0.6495200  -0.3584711  )
       107        S      tau( 107) = (   0.2500082   0.7215902   0.1241792  )
       108        S      tau( 108) = (   0.1250505   0.7963098   0.6059971  )
       109        Mo     tau( 109) = (  -0.1255078   0.2157673   0.4820262  )
       110        Mo     tau( 110) = (   0.8750004   0.0721694  -0.4825273  )
       111        Mo     tau( 111) = (   0.7499955   0.1443569  -0.0000274  )
       112        S      tau( 112) = (   0.7500004   0.0000006  -0.6064556  )
       113        S      tau( 113) = (   0.8749777   0.0721989  -0.1241465  )
       114        S      tau( 114) = (   0.7500467   0.1447298   0.3568874  )
       115        S      tau( 115) = (   0.7500004   0.0000005  -0.3584711  )
       116        S      tau( 116) = (   0.8749903   0.0721117   0.1240970  )
       117        S      tau( 117) = (   0.7493677   0.1435906   0.6057073  )
       118        Mo     tau( 118) = (  -0.2508787   0.4328922   0.4823938  )
       119        Mo     tau( 119) = (   0.7500001   0.2886759  -0.4825273  )
       120        Mo     tau( 120) = (   0.6249968   0.3608571  -0.0000279  )
       121        S      tau( 121) = (   0.6250001   0.2165071  -0.6064556  )
       122        S      tau( 122) = (   0.7500208   0.2886896  -0.1240956  )
       123        S      tau( 123) = (   0.6248005   0.3612471   0.3574315  )
       124        S      tau( 124) = (   0.6250002   0.2165070  -0.3584711  )
       125        S      tau( 125) = (   0.7500493   0.2887427   0.1242427  )
       126        S      tau( 126) = (   0.6249033   0.3601959   0.6065890  )
       127        Mo     tau( 127) = (  -0.3750379   0.6494479   0.4815491  )
       128        Mo     tau( 128) = (   0.6249998   0.5051824  -0.4825273  )
       129        Mo     tau( 129) = (   0.4999893   0.5773309  -0.0001634  )
       130        S      tau( 130) = (   0.4999998   0.4330136  -0.6064556  )
       131        S      tau( 131) = (   0.6249961   0.5051217  -0.1242214  )
       132        S      tau( 132) = (   0.4998255   0.5770883   0.3576879  )
       133        S      tau( 133) = (   0.4999999   0.4330135  -0.3584711  )
       134        S      tau( 134) = (   0.6249981   0.5052504   0.1240736  )
       135        S      tau( 135) = (   0.5003122   0.5776902   0.6062470  )
       136        Mo     tau( 136) = (  -0.0002805  -0.0004824   0.4806096  )
       137        Mo     tau( 137) = (   0.4999996   0.7216889  -0.4825273  )
       138        Mo     tau( 138) = (   0.3749756   0.7938309  -0.0001159  )
       139        S      tau( 139) = (   0.3749996   0.6495201  -0.6064556  )
       140        S      tau( 140) = (   0.4999628   0.7216864  -0.1242513  )
       141        S      tau( 141) = (   0.3747357   0.7932164   0.3566619  )
       142        S      tau( 142) = (   0.3749996   0.6495200  -0.3584711  )
       143        S      tau( 143) = (   0.5000348   0.7216656   0.1240143  )
       144        S      tau( 144) = (   0.3751928   0.7949639   0.6056664  )
       145        Pd     tau( 145) = (   0.2448410   0.4348549   0.7173028  )
       146        Pd     tau( 146) = (   0.0055759   0.4353384   0.7172832  )
       147        Pt     tau( 147) = (   0.0055488   0.4353436   0.9075472  )

     --------------------------------------------
     DFT-D3 Dispersion Correction (3-body terms):
     --------------------------------------------
       Reference C6 values for interpolation: 

         atom   Coordination number   C6
         S          0.000           268.01
         S          0.995           261.99
         S          1.990           251.62
         Mo         0.000          1691.79
         Mo         1.942          1004.01
         Mo        11.056           674.22
         Pd         0.000          1217.01
         Pd         1.863           573.90
         Pd         5.710           531.75
         Pt         0.000           782.29
         Pt         1.919           692.72
         Pt         6.667           673.75

       Values used:

         atom   Coordination number  R0_AB[au]  C6      C8
         Mo        10.164            3.547    674.22  77634.20
         Mo        10.189            3.547    674.22  77634.20
         Mo        10.201            3.547    674.22  77634.20
         S          3.753            3.128    251.62  12327.25
         S          3.858            3.128    251.62  12327.25
         S          3.843            3.128    251.62  12327.25
         S          3.859            3.128    251.62  12327.25
         S          3.863            3.128    251.62  12327.25
         S          3.814            3.128    251.62  12327.25
         Mo        10.770            3.547    674.22  77634.20
         Mo        10.189            3.547    674.22  77634.20
         Mo        10.202            3.547    674.22  77634.20
         S          3.753            3.128    251.62  12327.25
         S          3.859            3.128    251.62  12327.25
         S          3.853            3.128    251.62  12327.25
         S          3.858            3.128    251.62  12327.25
         S          3.851            3.128    251.62  12327.25
         S          4.643            3.128    251.62  12327.25
         Mo        10.197            3.547    674.22  77634.20
         Mo        10.189            3.547    674.22  77634.20
         Mo        10.201            3.547    674.22  77634.20
         S          3.753            3.128    251.62  12327.25
         S          3.859            3.128    251.62  12327.25
         S          3.862            3.128    251.62  12327.25
         S          3.859            3.128    251.62  12327.25
         S          3.855            3.128    251.62  12327.25
         S          3.759            3.128    251.62  12327.25
         Mo        10.248            3.547    674.22  77634.20
         Mo        10.189            3.547    674.22  77634.20
         Mo        10.200            3.547    674.22  77634.20
         S          3.753            3.128    251.62  12327.25
         S          3.858            3.128    251.62  12327.25
         S          3.860            3.128    251.62  12327.25
         S          3.859            3.128    251.62  12327.25
         S          3.864            3.128    251.62  12327.25
         S          3.776            3.128    251.62  12327.25
         Mo        10.201            3.547    674.22  77634.20
         Mo        10.189            3.547    674.22  77634.20
         Mo        10.201            3.547    674.22  77634.20
         S          3.753            3.128    251.62  12327.25
         S          3.858            3.128    251.62  12327.25
         S          3.845            3.128    251.62  12327.25
         S          3.859            3.128    251.62  12327.25
         S          3.864            3.128    251.62  12327.25
         S          3.811            3.128    251.62  12327.25
         Mo        10.767            3.547    674.22  77634.20
         Mo        10.189            3.547    674.22  77634.20
         Mo        10.203            3.547    674.22  77634.20
         S          3.753            3.128    251.62  12327.25
         S          3.859            3.128    251.62  12327.25
         S          3.876            3.128    251.62  12327.25
         S          3.859            3.128    251.62  12327.25
         S          3.852            3.128    251.62  12327.25
         S          5.608            3.128    251.62  12327.25
         Mo        10.160            3.547    674.22  77634.20
         Mo        10.189            3.547    674.22  77634.20
         Mo        10.203            3.547    674.22  77634.20
         S          3.753            3.128    251.62  12327.25
         S          3.859            3.128    251.62  12327.25
         S          3.866            3.128    251.62  12327.25
         S          3.859            3.128    251.62  12327.25
         S          3.849            3.128    251.62  12327.25
         S          4.665            3.128    251.62  12327.25
         Mo        10.242            3.547    674.22  77634.20
         Mo        10.189            3.547    674.22  77634.20
         Mo        10.200            3.547    674.22  77634.20
         S          3.753            3.128    251.62  12327.25
         S          3.858            3.128    251.62  12327.25
         S          3.855            3.128    251.62  12327.25
         S          3.859            3.128    251.62  12327.25
         S          3.859            3.128    251.62  12327.25
         S          3.803            3.128    251.62  12327.25
         Mo        10.229            3.547    674.22  77634.20
         Mo        10.189            3.547    674.22  77634.20
         Mo        10.200            3.547    674.22  77634.20
         S          3.753            3.128    251.62  12327.25
         S          3.858            3.128    251.62  12327.25
         S          3.852            3.128    251.62  12327.25
         S          3.859            3.128    251.62  12327.25
         S          3.861            3.128    251.62  12327.25
         S          3.807            3.128    251.62  12327.25
         Mo        10.207            3.547    674.22  77634.20
         Mo        10.189            3.547    674.22  77634.20
         Mo        10.202            3.547    674.22  77634.20
         S          3.753            3.128    251.62  12327.25
         S          3.858            3.128    251.62  12327.25
         S          3.856            3.128    251.62  12327.25
         S          3.859            3.128    251.62  12327.25
         S          3.856            3.128    251.62  12327.25
         S          4.641            3.128    251.62  12327.25
         Mo        10.197            3.547    674.22  77634.20
         Mo        10.189            3.547    674.22  77634.20
         Mo        10.203            3.547    674.22  77634.20
         S          3.753            3.128    251.62  12327.25
         S          3.859            3.128    251.62  12327.25
         S          3.867            3.128    251.62  12327.25
         S          3.859            3.128    251.62  12327.25
         S          3.855            3.128    251.62  12327.25
         S          4.658            3.128    251.62  12327.25
         Mo        10.241            3.547    674.22  77634.20
         Mo        10.189            3.547    674.22  77634.20
         Mo        10.201            3.547    674.22  77634.20
         S          3.753            3.128    251.62  12327.25
         S          3.859            3.128    251.62  12327.25
         S          3.844            3.128    251.62  12327.25
         S          3.859            3.128    251.62  12327.25
         S          3.858            3.128    251.62  12327.25
         S          3.832            3.128    251.62  12327.25
         Mo        10.201            3.547    674.22  77634.20
         Mo        10.189            3.547    674.22  77634.20
         Mo        10.200            3.547    674.22  77634.20
         S          3.753            3.128    251.62  12327.25
         S          3.859            3.128    251.62  12327.25
         S          3.851            3.128    251.62  12327.25
         S          3.859            3.128    251.62  12327.25
         S          3.863            3.128    251.62  12327.25
         S          3.810            3.128    251.62  12327.25
         Mo        10.207            3.547    674.22  77634.20
         Mo        10.189            3.547    674.22  77634.20
         Mo        10.201            3.547    674.22  77634.20
         S          3.753            3.128    251.62  12327.25
         S          3.859            3.128    251.62  12327.25
         S          3.847            3.128    251.62  12327.25
         S          3.858            3.128    251.62  12327.25
         S          3.856            3.128    251.62  12327.25
         S          3.821            3.128    251.62  12327.25
         Mo        10.224            3.547    674.22  77634.20
         Mo        10.189            3.547    674.22  77634.20
         Mo        10.201            3.547    674.22  77634.20
         S          3.753            3.128    251.62  12327.25
         S          3.859            3.128    251.62  12327.25
         S          3.863            3.128    251.62  12327.25
         S          3.859            3.128    251.62  12327.25
         S          3.861            3.128    251.62  12327.25
         S          3.757            3.128    251.62  12327.25
         Mo        10.248            3.547    674.22  77634.20
         Mo        10.189            3.547    674.22  77634.20
         Mo        10.200            3.547    674.22  77634.20
         S          3.753            3.128    251.62  12327.25
         S          3.858            3.128    251.62  12327.25
         S          3.854            3.128    251.62  12327.25
         S          3.859            3.128    251.62  12327.25
         S          3.864            3.128    251.62  12327.25
         S          3.804            3.128    251.62  12327.25
         Pd         4.057            3.168    531.76  48721.62
         Pd         5.007            3.168    531.75  48720.73
         Pt         1.023            3.168    716.10  74466.39

         Molecular C6 ( Ry / a.u.^6 ) =   8065468.70


     number of k points=     4  Gaussian smearing, width (Ry)=  0.0100
                       cart. coord. in units 2pi/alat
        k(    1) = (   0.0000000   0.0000000   0.0000000), wk =   0.5000000
        k(    2) = (   0.0000000  -0.5773499   0.0000000), wk =   0.5000000
        k(    3) = (  -0.5000000  -0.2886755   0.0000000), wk =   0.5000000
        k(    4) = (  -0.5000000  -0.8660254   0.0000000), wk =   0.5000000

     Dense  grid:  5955087 G-vectors     FFT dimensions: ( 180, 180, 432)

     Smooth grid:  2572543 G-vectors     FFT dimensions: ( 135, 135, 320)

     Estimated max dynamical RAM per process >       3.08 GB

     Estimated total dynamical RAM >     110.88 GB

     Initial potential from superposition of free atoms

     starting charge    1315.9537, renormalised to    1316.0000

     negative rho (up, down):  8.786E-04 0.000E+00
     Starting wfcs are  901 randomized atomic wfcs
     Checking if some PAW data can be deallocated... 

     total cpu time spent up to now is      101.0 secs

     Self-consistent Calculation

     iteration #  1     ecut=    77.00 Ry     beta= 0.20
     Davidson diagonalization with overlap
     ethr =  1.00E-02,  avg # of iterations =  2.0

     Threshold (ethr) on eigenvalues was too large:
     Diagonalizing with lowered threshold

     Davidson diagonalization with overlap
     ethr =  2.84E-04,  avg # of iterations = 16.0

     negative rho (up, down):  2.369E-04 0.000E+00

     total cpu time spent up to now is     1011.5 secs

     total energy              =  -26543.00730659 Ry
     estimated scf accuracy    <       4.91890752 Ry

     iteration #  2     ecut=    77.00 Ry     beta= 0.20
     Davidson diagonalization with overlap
     ethr =  3.74E-04,  avg # of iterations =  8.5

     negative rho (up, down):  2.362E-04 0.000E+00

     total cpu time spent up to now is     1257.0 secs

     total energy              =  -26538.58492711 Ry
     estimated scf accuracy    <     106.83810768 Ry

     iteration #  3     ecut=    77.00 Ry     beta= 0.20
     Davidson diagonalization with overlap
     ethr =  3.74E-04,  avg # of iterations = 10.2

     negative rho (up, down):  2.153E-04 0.000E+00

     total cpu time spent up to now is     1505.6 secs

     total energy              =  -26542.07086170 Ry
     estimated scf accuracy    <      34.57988137 Ry

     iteration #  4     ecut=    77.00 Ry     beta= 0.20
     Davidson diagonalization with overlap
     ethr =  3.74E-04,  avg # of iterations =  1.0

     negative rho (up, down):  4.305E-05 0.000E+00

     total cpu time spent up to now is     1711.0 secs

     total energy              =  -26543.04006033 Ry
     estimated scf accuracy    <       2.78627816 Ry

     iteration #  5     ecut=    77.00 Ry     beta= 0.20
     Davidson diagonalization with overlap
     ethr =  2.12E-04,  avg # of iterations =  2.0

     negative rho (up, down):  1.635E-05 0.000E+00

     total cpu time spent up to now is     1936.2 secs

     total energy              =  -26542.81396147 Ry
     estimated scf accuracy    <       1.29173751 Ry

     iteration #  6     ecut=    77.00 Ry     beta= 0.20
     Davidson diagonalization with overlap
     ethr =  9.82E-05,  avg # of iterations = 14.5

     negative rho (up, down):  1.796E-05 0.000E+00

     total cpu time spent up to now is     2328.9 secs

     total energy              =  -26543.40810031 Ry
     estimated scf accuracy    <       0.43540068 Ry

     iteration #  7     ecut=    77.00 Ry     beta= 0.20
     Davidson diagonalization with overlap
     c_bands:  1 eigenvalues not converged
     c_bands:  2 eigenvalues not converged
     ethr =  3.31E-05,  avg # of iterations = 18.5

     negative rho (up, down):  2.378E-05 0.000E+00

     total cpu time spent up to now is     2796.5 secs

     total energy              =  -26543.63408547 Ry
     estimated scf accuracy    <       0.36510003 Ry

     iteration #  8     ecut=    77.00 Ry     beta= 0.20
     Davidson diagonalization with overlap
     ethr =  2.77E-05,  avg # of iterations =  5.0

     negative rho (up, down):  4.924E-05 0.000E+00

     total cpu time spent up to now is     3028.9 secs

     total energy              =  -26543.58836770 Ry
     estimated scf accuracy    <       0.29984800 Ry

     iteration #  9     ecut=    77.00 Ry     beta= 0.20
     Davidson diagonalization with overlap
     ethr =  2.28E-05,  avg # of iterations =  6.0

     negative rho (up, down):  8.416E-04 0.000E+00

     total cpu time spent up to now is     3265.1 secs

     total energy              =  -26543.49387427 Ry
     estimated scf accuracy    <       0.18996429 Ry

     iteration # 10     ecut=    77.00 Ry     beta= 0.20
     Davidson diagonalization with overlap
     c_bands:  3 eigenvalues not converged
     c_bands:  1 eigenvalues not converged
     ethr =  1.44E-05,  avg # of iterations = 18.2

     negative rho (up, down):  4.189E-04 0.000E+00

     total cpu time spent up to now is     3790.9 secs

     total energy              =  -26543.64468417 Ry
     estimated scf accuracy    <       0.78548655 Ry

     iteration # 11     ecut=    77.00 Ry     beta= 0.20
     Davidson diagonalization with overlap
     c_bands:  1 eigenvalues not converged
     ethr =  1.44E-05,  avg # of iterations = 14.8

     negative rho (up, down):  2.287E-04 0.000E+00

     total cpu time spent up to now is     4091.9 secs

     total energy              =  -26543.58235238 Ry
     estimated scf accuracy    <       0.44600769 Ry

     iteration # 12     ecut=    77.00 Ry     beta= 0.20
     Davidson diagonalization with overlap
     ethr =  1.44E-05,  avg # of iterations =  7.8

     negative rho (up, down):  2.972E-04 0.000E+00

     total cpu time spent up to now is     4332.6 secs

     total energy              =  -26543.60366822 Ry
     estimated scf accuracy    <       0.03343788 Ry

     iteration # 13     ecut=    77.00 Ry     beta= 0.20
     Davidson diagonalization with overlap
     c_bands:  1 eigenvalues not converged
     c_bands:  3 eigenvalues not converged
     c_bands:  4 eigenvalues not converged
     ethr =  2.54E-06,  avg # of iterations = 63.5

     negative rho (up, down):  6.117E-04 0.000E+00

     total cpu time spent up to now is     5600.4 secs

     total energy              =  -26543.64920277 Ry
     estimated scf accuracy    <       0.14892042 Ry

     iteration # 14     ecut=    77.00 Ry     beta= 0.20
     Davidson diagonalization with overlap
     c_bands:  2 eigenvalues not converged
     c_bands:  1 eigenvalues not converged
     ethr =  2.54E-06,  avg # of iterations = 13.2

     negative rho (up, down):  6.248E-04 0.000E+00

     total cpu time spent up to now is     5855.5 secs

     total energy              =  -26543.64521858 Ry
     estimated scf accuracy    <       0.17887139 Ry

     iteration # 15     ecut=    77.00 Ry     beta= 0.20
     Davidson diagonalization with overlap
     c_bands:  1 eigenvalues not converged
     ethr =  2.54E-06,  avg # of iterations =  5.8

     negative rho (up, down):  6.747E-04 0.000E+00

     total cpu time spent up to now is     6072.9 secs

     total energy              =  -26543.64215407 Ry
     estimated scf accuracy    <       0.05642132 Ry

     iteration # 16     ecut=    77.00 Ry     beta= 0.20
     Davidson diagonalization with overlap
     c_bands:  1 eigenvalues not converged
     ethr =  2.54E-06,  avg # of iterations =  6.5

     negative rho (up, down):  7.332E-04 0.000E+00

     total cpu time spent up to now is     6304.9 secs

     total energy              =  -26543.64175704 Ry
     estimated scf accuracy    <       0.00792825 Ry

     iteration # 17     ecut=    77.00 Ry     beta= 0.20
     Davidson diagonalization with overlap
     c_bands:  1 eigenvalues not converged
     ethr =  6.02E-07,  avg # of iterations = 16.2

     negative rho (up, down):  7.288E-04 0.000E+00

     total cpu time spent up to now is     6632.8 secs

     total energy              =  -26543.64515944 Ry
     estimated scf accuracy    <       0.00091116 Ry

     iteration # 18     ecut=    77.00 Ry     beta= 0.20
     Davidson diagonalization with overlap
     ethr =  6.92E-08,  avg # of iterations = 16.2

     negative rho (up, down):  7.224E-04 0.000E+00

     total cpu time spent up to now is     7414.9 secs

     total energy              =  -26543.64723966 Ry
     estimated scf accuracy    <       0.00203516 Ry

     iteration # 19     ecut=    77.00 Ry     beta= 0.20
     Davidson diagonalization with overlap
     ethr =  6.92E-08,  avg # of iterations =  1.0

     negative rho (up, down):  7.371E-04 0.000E+00

     total cpu time spent up to now is     7618.9 secs

     total energy              =  -26543.64680613 Ry
     estimated scf accuracy    <       0.00187503 Ry

     iteration # 20     ecut=    77.00 Ry     beta= 0.20
     Davidson diagonalization with overlap
     ethr =  6.92E-08,  avg # of iterations =  7.2

     negative rho (up, down):  7.980E-04 0.000E+00

     total cpu time spent up to now is     7856.6 secs

     total energy              =  -26543.64670807 Ry
     estimated scf accuracy    <       0.00061317 Ry

     iteration # 21     ecut=    77.00 Ry     beta= 0.20
     Davidson diagonalization with overlap
     ethr =  4.66E-08,  avg # of iterations =  8.2

     negative rho (up, down):  7.764E-04 0.000E+00

     total cpu time spent up to now is     8173.2 secs

     total energy              =  -26543.64688266 Ry
     estimated scf accuracy    <       0.00047185 Ry

     iteration # 22     ecut=    77.00 Ry     beta= 0.20
     Davidson diagonalization with overlap
     ethr =  3.59E-08,  avg # of iterations = 11.5

     negative rho (up, down):  8.172E-04 0.000E+00

     total cpu time spent up to now is     8425.4 secs

     total energy              =  -26543.64689875 Ry
     estimated scf accuracy    <       0.00010348 Ry

     iteration # 23     ecut=    77.00 Ry     beta= 0.20
     Davidson diagonalization with overlap
     c_bands:  1 eigenvalues not converged
     ethr =  7.86E-09,  avg # of iterations = 19.0

     negative rho (up, down):  8.114E-04 0.000E+00

     total cpu time spent up to now is     9037.4 secs

     total energy              =  -26543.64702247 Ry
     estimated scf accuracy    <       0.00019295 Ry

     iteration # 24     ecut=    77.00 Ry     beta= 0.20
     Davidson diagonalization with overlap
     ethr =  7.86E-09,  avg # of iterations =  5.5

     negative rho (up, down):  8.137E-04 0.000E+00

     total cpu time spent up to now is     9271.9 secs

     total energy              =  -26543.64701371 Ry
     estimated scf accuracy    <       0.00006675 Ry

     iteration # 25     ecut=    77.00 Ry     beta= 0.20
     Davidson diagonalization with overlap
     ethr =  5.07E-09,  avg # of iterations = 10.8

     negative rho (up, down):  8.235E-04 0.000E+00

     total cpu time spent up to now is     9546.9 secs

     total energy              =  -26543.64701525 Ry
     estimated scf accuracy    <       0.00002400 Ry

     iteration # 26     ecut=    77.00 Ry     beta= 0.20
     Davidson diagonalization with overlap
     ethr =  1.82E-09,  avg # of iterations = 14.8

     negative rho (up, down):  8.273E-04 0.000E+00

     total cpu time spent up to now is    10055.0 secs

     total energy              =  -26543.64704317 Ry
     estimated scf accuracy    <       0.00000785 Ry

     iteration # 27     ecut=    77.00 Ry     beta= 0.20
     Davidson diagonalization with overlap
     ethr =  5.97E-10,  avg # of iterations = 18.0

     negative rho (up, down):  8.313E-04 0.000E+00

     total cpu time spent up to now is    10505.0 secs

     total energy              =  -26543.64704515 Ry
     estimated scf accuracy    <       0.00000278 Ry

     iteration # 28     ecut=    77.00 Ry     beta= 0.20
     Davidson diagonalization with overlap
     ethr =  2.11E-10,  avg # of iterations = 16.0

     negative rho (up, down):  8.342E-04 0.000E+00

     total cpu time spent up to now is    10973.3 secs

     total energy              =  -26543.64704605 Ry
     estimated scf accuracy    <       0.00000111 Ry

     iteration # 29     ecut=    77.00 Ry     beta= 0.20
     Davidson diagonalization with overlap
     ethr =  8.45E-11,  avg # of iterations = 12.8

     negative rho (up, down):  8.327E-04 0.000E+00

     total cpu time spent up to now is    11398.0 secs

     End of self-consistent calculation

          k = 0.0000 0.0000 0.0000 (321495 PWs)   bands (ev):

  -101.3662 -89.7369 -89.1207 -69.8390 -69.8335 -69.7957 -69.7523 -69.7441
   -69.6137 -69.6136 -66.9663 -66.9452 -66.9452 -66.9452 -66.9452 -66.9452
   -66.9452 -66.9240 -66.9240 -66.9240 -66.9240 -66.9240 -66.9240 -66.9240
   -66.9240 -66.9240 -66.9006 -66.8799 -66.8799 -66.8797 -66.8792 -66.8791
   -66.8790 -66.8590 -66.8589 -66.8587 -66.8585 -66.8584 -66.8581 -66.8579
   -66.8578 -66.8572 -66.8395 -66.8227 -66.8165 -66.8107 -66.8028 -66.8019
   -66.7970 -66.7885 -66.7866 -66.7846 -66.7787 -66.7743 -66.7689 -66.7672
   -66.7601 -66.7540 -56.0540 -55.5473 -55.4589 -55.3545 -55.3373 -55.2833
   -54.9917 -54.9147 -54.8249 -41.2927 -41.2927 -41.2927 -41.2260 -41.2258
   -41.2256 -41.2179 -41.2179 -41.2179 -41.2179 -41.2179 -41.2179 -41.1514
   -41.1513 -41.1511 -41.1510 -41.1508 -41.1507 -41.1464 -41.1447 -41.1420
   -41.1264 -41.0924 -41.0924 -41.0924 -41.0924 -41.0924 -41.0924 -41.0850
   -41.0850 -41.0850 -41.0850 -41.0850 -41.0850 -41.0751 -41.0724 -41.0691
   -41.0668 -41.0647 -41.0613 -41.0609 -41.0575 -41.0575 -41.0575 -41.0575
   -41.0575 -41.0575 -41.0433 -41.0433 -41.0433 -41.0433 -41.0433 -41.0433
   -41.0433 -41.0432 -41.0432 -41.0347 -41.0259 -41.0258 -41.0257 -41.0255
   -41.0255 -41.0253 -41.0203 -41.0203 -41.0201 -41.0197 -41.0196 -41.0194
   -41.0021 -40.9911 -40.9910 -40.9910 -40.9907 -40.9907 -40.9905 -40.9834
   -40.9797 -40.9797 -40.9797 -40.9789 -40.9789 -40.9786 -40.9784 -40.9784
   -40.9780 -40.9780 -40.9778 -40.9773 -40.9677 -40.9517 -40.9502 -40.9478
   -40.9467 -40.9449 -40.9431 -40.9414 -40.9397 -40.9329 -40.9329 -40.9329
   -40.9329 -40.9329 -40.9329 -40.9320 -40.9258 -40.9251 -40.9160 -40.9135
   -40.9132 -40.9131 -40.9130 -40.9124 -40.9086 -40.9073 -40.9059 -40.9041
   -40.9023 -40.9010 -40.9003 -40.8953 -40.8946 -40.8927 -40.8856 -40.8856
   -40.8668 -40.8666 -40.8665 -40.8662 -40.8661 -40.8659 -40.8340 -40.8294
   -40.8260 -40.8191 -40.8191 -40.7899 -40.7874 -40.7849 -40.7792 -40.7764
   -40.7716 -40.7339 -40.7328 -20.4057 -20.3252 -20.1952 -19.7305 -19.5393
   -19.5372 -19.5325 -19.5324 -19.5312 -19.5235 -19.4759 -19.4684 -19.4271
   -19.4254 -19.4145 -19.3774 -19.3520 -19.3494 -19.3131 -19.3086 -19.2823
   -19.1531 -19.0115 -18.9223 -18.7986 -18.7776 -18.7677 -18.7509 -18.7379
   -18.7327 -18.7056 -18.6500 -18.6447 -18.6353 -18.6073 -18.5766 -18.5442
   -18.5235 -18.4911 -18.4884 -18.4763 -18.4355 -18.4277 -18.4268 -18.4264
   -18.4263 -18.4257 -18.4257 -18.4209 -18.4184 -18.3858 -18.3858 -18.3857
   -18.3523 -18.3510 -18.3464 -18.3436 -18.3406 -18.3385 -18.3235 -18.3136
   -18.3132 -18.3037 -18.2782 -18.2569 -18.2510 -18.2442 -18.2428 -18.2386
   -18.2320 -18.2258 -18.2255 -18.2134 -18.1999 -18.1980 -18.1949 -18.1936
   -18.1914 -18.1759 -18.1659 -18.1629 -18.1488 -18.1411 -18.1296 -18.1277
   -18.1224 -18.1218 -18.1048 -18.0979 -18.0929 -18.0735 -18.0548 -18.0488
   -18.0394 -18.0363 -18.0323 -12.2373 -12.2002 -12.1139 -12.0509 -12.0392
   -12.0378 -12.0157 -11.9549 -11.9539 -11.9419 -11.8924 -11.6365 -11.5503
   -11.5170 -11.5022 -11.4913 -11.4892 -11.4844 -11.4690 -11.4516 -11.4313
   -11.4175 -11.4145 -11.4140 -11.4087 -11.4038 -11.3953 -11.3381 -11.3214
   -11.3047 -11.2897 -11.2738 -11.2615 -11.2590 -11.2522 -11.2439 -11.2232
   -11.2043 -11.1997 -11.1963 -11.1937 -11.1888 -11.1593 -11.1552 -11.1434
   -11.1252 -11.1223 -11.1194 -11.1166 -11.1163 -11.1145 -11.1098 -11.1035
   -11.0942 -11.0885 -11.0875 -11.0837 -11.0701 -11.0696 -11.0678 -11.0657
   -11.0591 -11.0550 -11.0380 -11.0077 -11.0069 -10.9911 -10.9682 -10.9587
   -10.9280 -10.9070 -10.9046 -10.8882 -10.8796 -10.8742 -10.7416 -10.5225
   -10.4360 -10.3341 -10.3328 -10.3311 -10.2965 -10.1841 -10.1767 -10.1660
   -10.0996 -10.0733 -10.0640 -10.0618 -10.0587 -10.0521 -10.0351 -10.0212
   -10.0112  -9.9899  -9.9804  -9.9742  -9.9677  -9.9634  -9.9483  -9.9285
    -9.9134  -9.9075  -9.9044  -9.9010  -9.8998  -9.8877  -9.8693  -9.8616
    -9.8613  -9.8605  -9.8588  -9.8563  -9.8559  -9.8497  -9.8282  -9.8127
    -9.8090  -9.7942  -9.7902  -9.7516  -9.7396  -9.7258  -9.7211  -9.7174
    -9.7119  -9.6794  -9.6425  -9.6320  -9.6220  -9.6156  -9.6061  -9.5952
    -9.5810  -9.5669  -9.5379  -9.5281  -9.5074  -9.4902  -9.4834  -9.4797
    -9.4716  -9.4666  -9.4567  -9.4207  -9.4056  -9.3700  -9.3208  -9.3117
    -9.3048  -9.3045  -9.3043  -9.3003  -9.2987  -9.2942  -9.2845  -9.2614
    -9.2297  -9.2274  -9.2244  -9.2132  -9.1667  -9.1579  -9.1417  -9.1302
    -9.1051  -9.0945  -9.0926  -9.0841  -9.0827  -9.0801  -9.0787  -9.0720
    -9.0697  -9.0404  -9.0333  -9.0252  -9.0186  -9.0053  -9.0011  -9.0000
    -8.9832  -8.9803  -8.9195  -8.7619  -8.7425  -8.7156  -8.7156  -8.6724
    -8.6434  -8.6434  -8.6047  -8.6037  -8.6035  -8.6035  -8.6034  -8.6034
    -8.5959  -8.5843  -8.5633  -8.5558  -8.5356  -8.5314  -8.5277  -8.5261
    -8.5252  -8.5240  -8.4956  -8.4588  -8.4379  -8.4113  -8.3030  -8.2481
    -8.2220  -8.2107  -8.1758  -8.0917  -8.0274  -7.9874  -7.9721  -7.9552
    -7.9160  -7.9079  -7.8682  -7.8680  -7.8679  -7.8678  -7.8676  -7.8675
    -7.8222  -7.8221  -7.8215  -7.8214  -7.8213  -7.8212  -7.8107  -7.7977
    -7.7960  -7.7929  -7.7917  -7.7905  -7.7844  -7.7759  -7.7714  -7.7582
    -7.7510  -7.7498  -7.7482  -7.7467  -7.7462  -7.7386  -7.7348  -7.7212
    -7.7077  -7.7063  -7.7003  -7.7001  -7.6986  -7.6925  -7.6724  -7.6596
    -7.6323  -7.6092  -7.5867  -7.5867  -7.5844  -7.5677  -7.5516  -7.5177
    -7.5170  -7.4879  -7.4766  -7.4702  -7.4318  -7.4283  -7.3803  -7.3265
    -7.2578  -7.2322  -7.2175  -7.1777  -7.1686  -7.1385  -7.1109  -7.0910
    -7.0840  -7.0820  -7.0514  -6.9973  -6.9810  -6.9612  -6.9563  -6.9475
    -6.9235  -6.9138  -6.9024  -6.8980  -6.8923  -6.8820  -6.8739  -6.8372
    -6.8214  -6.8053  -6.8044  -6.8003  -6.7993  -6.7857  -6.7831  -6.7777
    -6.7615  -6.7537  -6.7344  -6.7223  -6.7152  -6.7084  -6.7072  -6.6995
    -6.6959  -6.6704  -6.6377  -6.6347  -6.6347  -6.6347  -6.6347  -6.6347
    -6.6345  -6.6264  -6.5854  -6.5616  -6.5587  -6.5579  -6.5572  -6.5568
    -6.5557  -6.5437  -6.5223  -6.4870  -6.4797  -6.4569  -6.4176  -6.3782
    -6.2111  -6.0501  -5.9292  -5.7573  -5.4573  -5.2966  -5.2827  -5.2768
    -5.2297  -5.2043  -5.1129  -4.1508  -4.1204  -4.1160  -4.1155  -4.1140
    -4.1056  -4.0893  -4.0863  -4.0836  -4.0831  -4.0826  -4.0782  -3.9729
    -3.8865  -3.8827  -3.8740  -3.8664  -3.8647  -3.8595  -3.8492  -3.8477
    -3.8449  -3.8429  -3.8079  -3.7753  -3.7752  -3.7751  -3.7603  -3.7582
    -3.7572  -3.7565  -3.7561  -3.7551  -3.7084  -3.7083  -3.7081  -3.6864
    -3.6767  -3.6644  -3.6640  -3.6576  -3.6549  -3.6533  -3.6481  -3.6459
    -3.6438  -3.6403  -3.6363  -3.6231  -3.6191  -3.6073  -3.5876  -3.5753
    -3.5509  -3.5399  -3.5376  -3.5258  -3.5212  -3.5110  -3.5041  -3.5006
    -3.4973  -3.4633  -3.3094  -3.3093  -3.3088  -3.3040  -3.3040  -3.2440
    -3.2389  -3.2377  -3.2370  -3.2368  -3.2368  -3.2364  -3.2362  -3.2360
    -3.2176  -3.2151  -3.2149  -3.2074  -3.1986  -3.1906  -3.1842  -3.1784
    -3.1745  -3.1713  -3.1680  -3.1652  -3.1642  -3.1617  -3.1531  -3.1492
    -3.1413  -3.1346  -3.1255  -3.0956  -3.0890  -3.0822  -3.0661  -3.0622
    -3.0517  -3.0488  -3.0457  -3.0236  -3.0231  -3.0217  -3.0210  -3.0176
    -3.0121  -2.9781  -2.9770  -2.9558  -2.9394  -2.9363  -2.9138  -2.9072
    -2.8965  -2.8878  -2.8818  -2.8333  -2.8183  -2.8076  -2.7992  -2.7964
    -2.7712  -2.7580  -2.7523  -2.7354  -2.7260  -2.7176

          k = 0.0000-0.5773 0.0000 (321564 PWs)   bands (ev):

  -101.3662 -89.7369 -89.1207 -69.8390 -69.8335 -69.7957 -69.7523 -69.7441
   -69.6137 -69.6136 -66.9601 -66.9601 -66.9496 -66.9496 -66.9346 -66.9346
   -66.9346 -66.9346 -66.9302 -66.9302 -66.9240 -66.9240 -66.9240 -66.9240
   -66.9196 -66.9196 -66.8947 -66.8940 -66.8839 -66.8838 -66.8693 -66.8691
   -66.8686 -66.8685 -66.8649 -66.8641 -66.8587 -66.8587 -66.8585 -66.8572
   -66.8539 -66.8538 -66.8390 -66.8226 -66.8182 -66.8096 -66.8051 -66.8015
   -66.7930 -66.7900 -66.7865 -66.7845 -66.7790 -66.7737 -66.7702 -66.7672
   -66.7599 -66.7539 -56.0540 -55.5473 -55.4589 -55.3545 -55.3373 -55.2833
   -54.9917 -54.9147 -54.8249 -41.2613 -41.2613 -41.2613 -41.2613 -41.2347
   -41.2347 -41.2228 -41.2228 -41.1948 -41.1947 -41.1945 -41.1937 -41.1723
   -41.1723 -41.1723 -41.1723 -41.1681 -41.1675 -41.1559 -41.1558 -41.1242
   -41.1191 -41.1143 -41.1143 -41.1056 -41.1056 -41.1055 -41.1054 -41.1044
   -41.1044 -41.1039 -41.1014 -41.0946 -41.0936 -41.0936 -41.0814 -41.0730
   -41.0695 -41.0642 -41.0642 -41.0642 -41.0642 -41.0555 -41.0555 -41.0495
   -41.0489 -41.0434 -41.0434 -41.0433 -41.0433 -41.0433 -41.0433 -41.0377
   -41.0377 -41.0347 -41.0347 -41.0344 -41.0285 -41.0285 -41.0263 -41.0253
   -41.0204 -41.0183 -41.0126 -41.0126 -41.0126 -41.0126 -41.0014 -40.9995
   -40.9994 -40.9988 -40.9987 -40.9908 -40.9901 -40.9858 -40.9787 -40.9785
   -40.9784 -40.9781 -40.9781 -40.9781 -40.9781 -40.9773 -40.9767 -40.9767
   -40.9697 -40.9696 -40.9661 -40.9660 -40.9621 -40.9584 -40.9571 -40.9508
   -40.9471 -40.9469 -40.9469 -40.9465 -40.9463 -40.9459 -40.9453 -40.9328
   -40.9300 -40.9300 -40.9228 -40.9199 -40.9153 -40.9116 -40.9116 -40.9115
   -40.9114 -40.9105 -40.9085 -40.9078 -40.8998 -40.8995 -40.8995 -40.8991
   -40.8990 -40.8985 -40.8949 -40.8907 -40.8879 -40.8807 -40.8798 -40.8713
   -40.8685 -40.8634 -40.8634 -40.8627 -40.8512 -40.8334 -40.8326 -40.8314
   -40.8308 -40.8276 -40.8247 -40.8212 -40.8058 -40.8031 -40.7891 -40.7785
   -40.7751 -40.7521 -40.7420 -20.2004 -20.1625 -20.1347 -20.0483 -19.9801
   -19.9237 -19.7347 -19.7297 -19.6759 -19.6385 -19.5517 -19.5234 -19.2724
   -19.0618 -19.0293 -19.0231 -19.0201 -19.0184 -19.0147 -18.9702 -18.9512
   -18.9426 -18.9133 -18.8911 -18.8738 -18.8690 -18.8630 -18.8245 -18.8171
   -18.8163 -18.7723 -18.7704 -18.7356 -18.7303 -18.6996 -18.6857 -18.6795
   -18.6701 -18.6408 -18.5979 -18.5681 -18.5558 -18.5401 -18.5069 -18.4965
   -18.4953 -18.4625 -18.4435 -18.4160 -18.4066 -18.4064 -18.4063 -18.4060
   -18.3951 -18.3876 -18.3766 -18.3578 -18.3379 -18.3318 -18.3302 -18.3264
   -18.3243 -18.3195 -18.2887 -18.2864 -18.2678 -18.2624 -18.2551 -18.2460
   -18.2430 -18.2280 -18.2166 -18.2123 -18.2027 -18.1978 -18.1823 -18.1699
   -18.1521 -18.1429 -18.1429 -18.1398 -18.1346 -18.1039 -18.0861 -18.0835
   -18.0832 -18.0674 -18.0669 -18.0620 -18.0526 -18.0285 -18.0275 -18.0171
   -18.0126 -17.9653 -17.9562 -12.0992 -12.0378 -11.9559 -11.9182 -11.7882
   -11.7541 -11.7539 -11.7502 -11.7496 -11.7306 -11.7176 -11.6939 -11.6742
   -11.6724 -11.6537 -11.6526 -11.6287 -11.6204 -11.5909 -11.5871 -11.5717
   -11.5695 -11.5599 -11.5422 -11.5357 -11.5356 -11.5144 -11.4908 -11.4902
   -11.4846 -11.4457 -11.4333 -11.4304 -11.4298 -11.3732 -11.3189 -11.2703
   -11.2692 -11.2538 -11.2387 -11.2284 -11.2083 -11.1901 -11.1876 -11.1785
   -11.1740 -11.1588 -11.1313 -11.1260 -11.1196 -11.1107 -11.1092 -11.1087
   -11.1068 -11.1057 -11.1048 -11.0746 -11.0657 -11.0514 -11.0441 -11.0412
   -11.0332 -11.0236 -10.9755 -10.9365 -10.8538 -10.8499 -10.7884 -10.7695
   -10.7350 -10.6562 -10.6207 -10.6147 -10.5184 -10.4263 -10.4096 -10.4074
   -10.4015 -10.3887 -10.3592 -10.3442 -10.3234 -10.3093 -10.2570 -10.2461
   -10.2279 -10.2185 -10.2153 -10.2081 -10.2063 -10.1948 -10.1769 -10.1753
   -10.1709 -10.1614 -10.1325 -10.0958 -10.0716 -10.0602 -10.0572 -10.0315
   -10.0235 -10.0126  -9.9965  -9.9921  -9.9904  -9.9810  -9.9750  -9.9431
    -9.9323  -9.9243  -9.9183  -9.9123  -9.8882  -9.8867  -9.8711  -9.8642
    -9.8153  -9.8081  -9.8063  -9.7884  -9.7711  -9.7487  -9.7478  -9.7259
    -9.7049  -9.6107  -9.6040  -9.5637  -9.5463  -9.5145  -9.4917  -9.4804
    -9.4761  -9.4525  -9.4237  -9.4185  -9.4075  -9.4063  -9.4042  -9.3858
    -9.3815  -9.3731  -9.3424  -9.3185  -9.3077  -9.3005  -9.2922  -9.2804
    -9.2722  -9.2641  -9.2449  -9.2387  -9.2337  -9.2230  -9.2158  -9.2127
    -9.2097  -9.2039  -9.1944  -9.1811  -9.1685  -9.1546  -9.1478  -9.1416
    -9.1364  -9.1316  -9.1242  -9.1184  -9.1177  -9.1082  -9.1034  -9.0919
    -9.0845  -9.0652  -9.0489  -9.0466  -9.0411  -9.0258  -9.0131  -8.9974
    -8.9859  -8.9396  -8.8441  -8.8334  -8.7905  -8.7902  -8.7354  -8.7120
    -8.7038  -8.6839  -8.6563  -8.5575  -8.5312  -8.5113  -8.4720  -8.4720
    -8.4456  -8.4009  -8.3995  -8.3626  -8.3347  -8.3235  -8.2863  -8.2294
    -8.2117  -8.2069  -8.1731  -8.1424  -8.1408  -8.1380  -8.1275  -8.1261
    -8.1254  -8.1253  -8.1243  -8.1086  -8.1031  -8.0811  -8.0795  -8.0791
    -8.0762  -8.0732  -8.0552  -8.0549  -8.0378  -8.0359  -8.0346  -8.0283
    -8.0133  -8.0089  -8.0026  -7.9993  -7.9938  -7.9805  -7.9708  -7.9684
    -7.9595  -7.9530  -7.9408  -7.9400  -7.9386  -7.9366  -7.9175  -7.9035
    -7.9012  -7.8896  -7.8722  -7.8700  -7.8667  -7.8614  -7.8453  -7.8270
    -7.8094  -7.8068  -7.7467  -7.7369  -7.7325  -7.7006  -7.6594  -7.6269
    -7.5650  -7.5480  -7.5337  -7.5201  -7.5067  -7.4888  -7.4809  -7.4601
    -7.3975  -7.3927  -7.3734  -7.3467  -7.3131  -7.3001  -7.2920  -7.2866
    -7.2820  -7.2757  -7.2282  -7.2198  -7.2165  -7.2101  -7.1812  -7.1757
    -7.1509  -7.1231  -7.1129  -7.1068  -7.0936  -7.0700  -7.0092  -6.9785
    -6.9584  -6.9439  -6.9379  -6.9370  -6.9369  -6.9368  -6.9344  -6.8885
    -6.8791  -6.8733  -6.8694  -6.8689  -6.8672  -6.8632  -6.8384  -6.8152
    -6.7957  -6.7811  -6.7621  -6.7188  -6.7045  -6.6554  -6.6082  -6.6056
    -6.6054  -6.6053  -6.5986  -6.5426  -6.5391  -6.5291  -6.5285  -6.5257
    -6.5214  -6.5162  -6.4822  -6.4740  -6.4614  -6.4386  -6.4320  -6.4082
    -6.2919  -6.2568  -6.2568  -6.1833  -6.1806  -6.1375  -6.1197  -6.0709
    -6.0255  -5.9348  -5.9010  -5.8178  -5.7654  -5.2971  -5.2841  -5.2768
    -5.2235  -5.2043  -5.0823  -4.3033  -4.2926  -4.2912  -4.2833  -4.1722
    -4.1722  -4.1611  -4.1463  -4.1080  -4.1077  -4.0863  -4.0441  -4.0435
    -4.0384  -4.0379  -4.0128  -3.9640  -3.9359  -3.8783  -3.8774  -3.8717
    -3.8713  -3.8583  -3.8577  -3.8481  -3.8256  -3.8173  -3.7949  -3.7845
    -3.7775  -3.7723  -3.7627  -3.7573  -3.7555  -3.7469  -3.7391  -3.7372
    -3.7304  -3.7057  -3.6737  -3.6497  -3.6483  -3.6285  -3.6253  -3.6247
    -3.6197  -3.5980  -3.5955  -3.5883  -3.5855  -3.5655  -3.5508  -3.5489
    -3.5483  -3.5481  -3.5437  -3.5314  -3.5188  -3.5152  -3.5099  -3.4952
    -3.4842  -3.4781  -3.4751  -3.4722  -3.4652  -3.4611  -3.4505  -3.4230
    -3.4022  -3.3931  -3.3844  -3.3735  -3.3689  -3.3457  -3.3431  -3.3106
    -3.3052  -3.3027  -3.2923  -3.2856  -3.2849  -3.2847  -3.2845  -3.2533
    -3.2401  -3.2364  -3.2357  -3.2190  -3.2114  -3.2032  -3.2017  -3.1900
    -3.1877  -3.1725  -3.1713  -3.1573  -3.1523  -3.1442  -3.1422  -3.1339
    -3.1125  -3.0973  -3.0937  -3.0779  -3.0770  -3.0696  -3.0657  -3.0109
    -3.0079  -2.9822  -2.9780  -2.9246  -2.9220  -2.9160  -2.9097  -2.9074
    -2.9054  -2.8443  -2.8372  -2.7862  -2.7772  -2.7682  -2.7644  -2.7544
    -2.7339  -2.6354  -2.6306  -2.5798  -2.5708  -2.5638

          k =-0.5000-0.2887 0.0000 (321564 PWs)   bands (ev):

  -101.3662 -89.7369 -89.1207 -69.8390 -69.8335 -69.7957 -69.7523 -69.7441
   -69.6137 -69.6136 -66.9601 -66.9601 -66.9496 -66.9496 -66.9346 -66.9346
   -66.9346 -66.9346 -66.9302 -66.9302 -66.9240 -66.9240 -66.9240 -66.9240
   -66.9196 -66.9196 -66.8946 -66.8942 -66.8839 -66.8838 -66.8690 -66.8689
   -66.8689 -66.8688 -66.8647 -66.8643 -66.8586 -66.8585 -66.8581 -66.8579
   -66.8539 -66.8538 -66.8390 -66.8229 -66.8164 -66.8125 -66.8057 -66.7974
   -66.7937 -66.7900 -66.7885 -66.7839 -66.7795 -66.7741 -66.7695 -66.7661
   -66.7608 -66.7537 -56.0540 -55.5473 -55.4589 -55.3545 -55.3373 -55.2833
   -54.9917 -54.9147 -54.8249 -41.2613 -41.2613 -41.2613 -41.2613 -41.2347
   -41.2347 -41.2228 -41.2228 -41.1947 -41.1946 -41.1943 -41.1942 -41.1723
   -41.1723 -41.1723 -41.1723 -41.1680 -41.1677 -41.1559 -41.1558 -41.1159
   -41.1143 -41.1143 -41.1138 -41.1125 -41.1090 -41.1056 -41.1056 -41.1055
   -41.1055 -41.1044 -41.1044 -41.0942 -41.0936 -41.0936 -41.0865 -41.0741
   -41.0642 -41.0642 -41.0642 -41.0642 -41.0630 -41.0555 -41.0555 -41.0494
   -41.0490 -41.0434 -41.0434 -41.0433 -41.0433 -41.0433 -41.0433 -41.0378
   -41.0377 -41.0347 -41.0347 -41.0343 -41.0285 -41.0285 -41.0258 -41.0232
   -41.0195 -41.0179 -41.0126 -41.0126 -41.0126 -41.0126 -41.0026 -40.9992
   -40.9992 -40.9991 -40.9990 -40.9906 -40.9903 -40.9819 -40.9785 -40.9784
   -40.9781 -40.9781 -40.9781 -40.9781 -40.9781 -40.9779 -40.9767 -40.9767
   -40.9696 -40.9696 -40.9687 -40.9661 -40.9660 -40.9591 -40.9572 -40.9502
   -40.9469 -40.9469 -40.9463 -40.9462 -40.9458 -40.9458 -40.9421 -40.9312
   -40.9300 -40.9300 -40.9249 -40.9227 -40.9159 -40.9122 -40.9116 -40.9116
   -40.9115 -40.9114 -40.9078 -40.9020 -40.8998 -40.8996 -40.8995 -40.8995
   -40.8993 -40.8991 -40.8963 -40.8903 -40.8884 -40.8805 -40.8801 -40.8715
   -40.8682 -40.8635 -40.8634 -40.8607 -40.8563 -40.8336 -40.8332 -40.8328
   -40.8313 -40.8277 -40.8240 -40.8140 -40.8080 -40.8039 -40.7885 -40.7815
   -40.7719 -40.7484 -40.7461 -20.1988 -20.1624 -20.1339 -20.0500 -19.9804
   -19.9273 -19.7353 -19.7290 -19.6770 -19.6351 -19.5521 -19.5213 -19.2670
   -19.0621 -19.0380 -19.0212 -19.0194 -19.0186 -19.0149 -18.9746 -18.9519
   -18.9382 -18.9114 -18.8889 -18.8808 -18.8724 -18.8540 -18.8271 -18.8243
   -18.8135 -18.7717 -18.7707 -18.7363 -18.7294 -18.7033 -18.6868 -18.6769
   -18.6668 -18.6505 -18.5849 -18.5773 -18.5508 -18.5247 -18.5122 -18.5009
   -18.4939 -18.4598 -18.4366 -18.4268 -18.4065 -18.4064 -18.4063 -18.4062
   -18.3959 -18.3815 -18.3803 -18.3452 -18.3427 -18.3330 -18.3299 -18.3291
   -18.3219 -18.3138 -18.3019 -18.2769 -18.2705 -18.2625 -18.2577 -18.2499
   -18.2416 -18.2228 -18.2188 -18.2150 -18.2068 -18.1975 -18.1874 -18.1595
   -18.1588 -18.1429 -18.1428 -18.1427 -18.1349 -18.0954 -18.0938 -18.0833
   -18.0831 -18.0701 -18.0672 -18.0664 -18.0519 -18.0295 -18.0249 -18.0158
   -18.0055 -17.9643 -17.9567 -12.0746 -12.0182 -11.9542 -11.9227 -11.8177
   -11.7575 -11.7544 -11.7514 -11.7479 -11.7342 -11.7222 -11.7209 -11.6921
   -11.6716 -11.6568 -11.6505 -11.6426 -11.6224 -11.6016 -11.5851 -11.5809
   -11.5614 -11.5600 -11.5357 -11.5357 -11.5252 -11.5207 -11.4903 -11.4901
   -11.4671 -11.4375 -11.4330 -11.4323 -11.4299 -11.3655 -11.3060 -11.2818
   -11.2608 -11.2547 -11.2401 -11.2251 -11.2028 -11.1928 -11.1871 -11.1783
   -11.1728 -11.1593 -11.1301 -11.1273 -11.1137 -11.1119 -11.1088 -11.1083
   -11.1040 -11.1016 -11.0957 -11.0834 -11.0703 -11.0541 -11.0463 -11.0396
   -11.0369 -11.0258 -10.9987 -10.8942 -10.8493 -10.8224 -10.7833 -10.7699
   -10.7428 -10.6624 -10.6291 -10.5725 -10.5460 -10.4889 -10.4402 -10.4049
   -10.3938 -10.3920 -10.3859 -10.3215 -10.3089 -10.2885 -10.2797 -10.2233
   -10.2198 -10.2168 -10.2142 -10.2137 -10.2050 -10.1851 -10.1788 -10.1720
   -10.1718 -10.1567 -10.1234 -10.0785 -10.0699 -10.0449 -10.0418 -10.0333
   -10.0272 -10.0092 -10.0048  -9.9903  -9.9882  -9.9773  -9.9716  -9.9519
    -9.9289  -9.9233  -9.9144  -9.8962  -9.8896  -9.8843  -9.8770  -9.8360
    -9.8253  -9.8097  -9.8084  -9.7994  -9.7812  -9.7491  -9.7480  -9.7361
    -9.7040  -9.6321  -9.6077  -9.5909  -9.5664  -9.5343  -9.4942  -9.4845
    -9.4680  -9.4421  -9.4341  -9.4271  -9.4131  -9.4054  -9.4024  -9.3897
    -9.3752  -9.3572  -9.3309  -9.3218  -9.3002  -9.2950  -9.2906  -9.2889
    -9.2699  -9.2626  -9.2489  -9.2462  -9.2340  -9.2278  -9.2181  -9.2105
    -9.2100  -9.2016  -9.1978  -9.1813  -9.1691  -9.1507  -9.1414  -9.1355
    -9.1330  -9.1307  -9.1230  -9.1183  -9.1178  -9.1089  -9.1015  -9.0941
    -9.0874  -9.0791  -9.0605  -9.0447  -9.0409  -9.0287  -9.0194  -8.9935
    -8.9811  -8.9541  -8.8500  -8.8021  -8.7906  -8.7875  -8.7417  -8.7121
    -8.7042  -8.6779  -8.6664  -8.5987  -8.5194  -8.4728  -8.4720  -8.4720
    -8.4018  -8.4003  -8.3983  -8.3650  -8.3357  -8.3273  -8.2629  -8.2241
    -8.2114  -8.2055  -8.1624  -8.1461  -8.1428  -8.1360  -8.1268  -8.1262
    -8.1253  -8.1253  -8.1214  -8.1160  -8.1064  -8.0799  -8.0792  -8.0780
    -8.0779  -8.0611  -8.0560  -8.0530  -8.0478  -8.0374  -8.0311  -8.0257
    -8.0232  -8.0103  -8.0050  -8.0014  -7.9975  -7.9812  -7.9724  -7.9685
    -7.9629  -7.9552  -7.9401  -7.9400  -7.9382  -7.9283  -7.9222  -7.9066
    -7.8929  -7.8896  -7.8797  -7.8707  -7.8673  -7.8616  -7.8500  -7.8282
    -7.8094  -7.7972  -7.7711  -7.7453  -7.7244  -7.7108  -7.6506  -7.6030
    -7.5748  -7.5372  -7.5349  -7.5306  -7.5098  -7.5011  -7.4894  -7.4754
    -7.3985  -7.3926  -7.3769  -7.3490  -7.3299  -7.3212  -7.2917  -7.2898
    -7.2794  -7.2440  -7.2296  -7.2219  -7.2155  -7.1978  -7.1851  -7.1771
    -7.1600  -7.1222  -7.1104  -7.1054  -7.0798  -7.0582  -7.0108  -7.0034
    -6.9628  -6.9525  -6.9370  -6.9370  -6.9369  -6.9368  -6.9165  -6.9073
    -6.8851  -6.8788  -6.8688  -6.8684  -6.8666  -6.8588  -6.8154  -6.8054
    -6.7836  -6.7663  -6.7468  -6.7212  -6.7044  -6.6501  -6.6066  -6.6056
    -6.6054  -6.6052  -6.5863  -6.5452  -6.5397  -6.5289  -6.5257  -6.5246
    -6.5192  -6.5146  -6.4853  -6.4778  -6.4593  -6.4409  -6.4263  -6.4146
    -6.2569  -6.2568  -6.2320  -6.1898  -6.1822  -6.1708  -6.1381  -6.0878
    -6.0302  -5.9365  -5.9035  -5.8410  -5.7527  -5.2993  -5.2857  -5.2780
    -5.2301  -5.1984  -5.0890  -4.3001  -4.2961  -4.2919  -4.2802  -4.1722
    -4.1722  -4.1577  -4.1475  -4.1080  -4.1077  -4.0769  -4.0531  -4.0503
    -4.0433  -4.0314  -4.0074  -3.9646  -3.9394  -3.8770  -3.8769  -3.8742
    -3.8715  -3.8579  -3.8578  -3.8489  -3.8264  -3.8215  -3.7990  -3.7829
    -3.7773  -3.7706  -3.7562  -3.7542  -3.7494  -3.7464  -3.7431  -3.7394
    -3.7344  -3.7010  -3.6624  -3.6504  -3.6455  -3.6331  -3.6277  -3.6253
    -3.6250  -3.5973  -3.5966  -3.5891  -3.5850  -3.5696  -3.5496  -3.5490
    -3.5488  -3.5481  -3.5432  -3.5260  -3.5161  -3.5126  -3.5093  -3.4981
    -3.4869  -3.4797  -3.4765  -3.4704  -3.4662  -3.4632  -3.4385  -3.4240
    -3.3948  -3.3934  -3.3830  -3.3742  -3.3670  -3.3456  -3.3442  -3.3077
    -3.3054  -3.3031  -3.2934  -3.2852  -3.2852  -3.2847  -3.2847  -3.2505
    -3.2419  -3.2368  -3.2362  -3.2196  -3.2114  -3.1982  -3.1948  -3.1937
    -3.1875  -3.1708  -3.1622  -3.1559  -3.1477  -3.1441  -3.1361  -3.1296
    -3.1107  -3.1081  -3.0893  -3.0861  -3.0771  -3.0764  -3.0668  -3.0123
    -3.0103  -2.9828  -2.9803  -2.9250  -2.9226  -2.9205  -2.9140  -2.9063
    -2.9022  -2.8422  -2.8385  -2.7866  -2.7847  -2.7677  -2.7606  -2.7566
    -2.7475  -2.6398  -2.6282  -2.5702  -2.5577  -2.5375

          k =-0.5000-0.8660 0.0000 (321564 PWs)   bands (ev):

  -101.3662 -89.7369 -89.1207 -69.8390 -69.8335 -69.7957 -69.7523 -69.7441
   -69.6137 -69.6136 -66.9601 -66.9601 -66.9496 -66.9496 -66.9346 -66.9346
   -66.9346 -66.9346 -66.9302 -66.9302 -66.9240 -66.9240 -66.9240 -66.9240
   -66.9196 -66.9196 -66.8945 -66.8943 -66.8839 -66.8838 -66.8691 -66.8690
   -66.8688 -66.8688 -66.8646 -66.8644 -66.8584 -66.8584 -66.8584 -66.8580
   -66.8539 -66.8538 -66.8391 -66.8214 -66.8190 -66.8114 -66.8051 -66.7981
   -66.7934 -66.7911 -66.7877 -66.7840 -66.7785 -66.7738 -66.7711 -66.7655
   -66.7605 -66.7538 -56.0540 -55.5473 -55.4589 -55.3545 -55.3373 -55.2833
   -54.9917 -54.9147 -54.8249 -41.2613 -41.2613 -41.2613 -41.2613 -41.2347
   -41.2347 -41.2228 -41.2228 -41.1946 -41.1945 -41.1945 -41.1942 -41.1723
   -41.1723 -41.1723 -41.1723 -41.1679 -41.1678 -41.1559 -41.1558 -41.1210
   -41.1177 -41.1143 -41.1143 -41.1091 -41.1056 -41.1055 -41.1055 -41.1055
   -41.1044 -41.1044 -41.1040 -41.0936 -41.0936 -41.0934 -41.0854 -41.0710
   -41.0654 -41.0642 -41.0642 -41.0642 -41.0642 -41.0555 -41.0555 -41.0493
   -41.0491 -41.0434 -41.0434 -41.0433 -41.0433 -41.0433 -41.0433 -41.0377
   -41.0377 -41.0347 -41.0347 -41.0344 -41.0285 -41.0285 -41.0264 -41.0228
   -41.0201 -41.0190 -41.0126 -41.0126 -41.0126 -41.0126 -41.0021 -40.9993
   -40.9992 -40.9991 -40.9989 -40.9905 -40.9904 -40.9836 -40.9784 -40.9783
   -40.9783 -40.9781 -40.9781 -40.9781 -40.9781 -40.9779 -40.9767 -40.9767
   -40.9696 -40.9696 -40.9669 -40.9661 -40.9660 -40.9606 -40.9574 -40.9491
   -40.9469 -40.9469 -40.9462 -40.9461 -40.9460 -40.9457 -40.9423 -40.9331
   -40.9300 -40.9300 -40.9247 -40.9216 -40.9145 -40.9117 -40.9116 -40.9115
   -40.9115 -40.9114 -40.9082 -40.9048 -40.9008 -40.8995 -40.8995 -40.8995
   -40.8994 -40.8978 -40.8968 -40.8903 -40.8887 -40.8805 -40.8801 -40.8733
   -40.8640 -40.8635 -40.8634 -40.8590 -40.8578 -40.8331 -40.8329 -40.8327
   -40.8295 -40.8282 -40.8235 -40.8198 -40.8055 -40.8022 -40.7895 -40.7791
   -40.7730 -40.7533 -40.7426 -20.1985 -20.1625 -20.1338 -20.0504 -19.9804
   -19.9278 -19.7356 -19.7289 -19.6778 -19.6339 -19.5523 -19.5202 -19.2658
   -19.0655 -19.0376 -19.0213 -19.0194 -19.0186 -19.0150 -18.9798 -18.9454
   -18.9375 -18.9120 -18.8890 -18.8818 -18.8703 -18.8556 -18.8270 -18.8239
   -18.8145 -18.7716 -18.7708 -18.7364 -18.7322 -18.7021 -18.6862 -18.6767
   -18.6666 -18.6506 -18.5828 -18.5754 -18.5504 -18.5247 -18.5121 -18.5008
   -18.4946 -18.4590 -18.4381 -18.4277 -18.4065 -18.4064 -18.4063 -18.4061
   -18.3957 -18.3817 -18.3805 -18.3449 -18.3428 -18.3334 -18.3296 -18.3292
   -18.3216 -18.3139 -18.3010 -18.2787 -18.2703 -18.2623 -18.2579 -18.2518
   -18.2406 -18.2229 -18.2186 -18.2144 -18.2085 -18.1963 -18.1872 -18.1588
   -18.1582 -18.1443 -18.1429 -18.1429 -18.1336 -18.0940 -18.0936 -18.0833
   -18.0833 -18.0739 -18.0673 -18.0666 -18.0494 -18.0298 -18.0250 -18.0161
   -18.0055 -17.9633 -17.9574 -12.0582 -12.0286 -11.9543 -11.9292 -11.8227
   -11.7570 -11.7543 -11.7513 -11.7479 -11.7336 -11.7222 -11.7186 -11.6913
   -11.6717 -11.6562 -11.6491 -11.6440 -11.6213 -11.6032 -11.5861 -11.5818
   -11.5614 -11.5599 -11.5357 -11.5356 -11.5251 -11.5207 -11.4904 -11.4900
   -11.4696 -11.4371 -11.4333 -11.4322 -11.4299 -11.3658 -11.3077 -11.2830
   -11.2601 -11.2563 -11.2405 -11.2279 -11.2005 -11.1931 -11.1846 -11.1735
   -11.1706 -11.1580 -11.1327 -11.1283 -11.1133 -11.1104 -11.1088 -11.1082
   -11.1026 -11.0997 -11.0945 -11.0832 -11.0694 -11.0565 -11.0465 -11.0402
   -11.0370 -11.0272 -10.9997 -10.8921 -10.8465 -10.8267 -10.7796 -10.7689
   -10.7339 -10.6595 -10.6301 -10.5962 -10.5445 -10.4868 -10.4359 -10.4045
   -10.3928 -10.3909 -10.3851 -10.3220 -10.3061 -10.2889 -10.2796 -10.2253
   -10.2225 -10.2168 -10.2143 -10.2119 -10.2044 -10.1832 -10.1789 -10.1724
   -10.1715 -10.1557 -10.1233 -10.0879 -10.0682 -10.0450 -10.0370 -10.0327
   -10.0276 -10.0090 -10.0010  -9.9908  -9.9879  -9.9769  -9.9709  -9.9499
    -9.9325  -9.9267  -9.9117  -9.8950  -9.8885  -9.8846  -9.8760  -9.8324
    -9.8221  -9.8089  -9.8064  -9.7942  -9.7817  -9.7497  -9.7479  -9.7430
    -9.7087  -9.6404  -9.6077  -9.5945  -9.5799  -9.5397  -9.4912  -9.4766
    -9.4671  -9.4364  -9.4355  -9.4239  -9.4170  -9.4083  -9.4019  -9.3875
    -9.3723  -9.3583  -9.3365  -9.3209  -9.3137  -9.2997  -9.2924  -9.2794
    -9.2687  -9.2619  -9.2510  -9.2367  -9.2346  -9.2267  -9.2161  -9.2102
    -9.2099  -9.2020  -9.1986  -9.1761  -9.1678  -9.1513  -9.1423  -9.1367
    -9.1334  -9.1289  -9.1188  -9.1182  -9.1157  -9.1074  -9.0997  -9.0920
    -9.0901  -9.0709  -9.0641  -9.0505  -9.0411  -9.0359  -9.0163  -9.0004
    -8.9793  -8.9507  -8.8590  -8.7983  -8.7907  -8.7860  -8.7392  -8.7109
    -8.7077  -8.6901  -8.6352  -8.6213  -8.4880  -8.4724  -8.4720  -8.4720
    -8.4359  -8.4005  -8.3997  -8.3763  -8.3528  -8.2928  -8.2692  -8.2128
    -8.2107  -8.1984  -8.1754  -8.1439  -8.1389  -8.1367  -8.1274  -8.1254
    -8.1253  -8.1252  -8.1215  -8.1189  -8.1043  -8.0796  -8.0790  -8.0783
    -8.0774  -8.0676  -8.0556  -8.0541  -8.0409  -8.0346  -8.0314  -8.0271
    -8.0150  -8.0085  -8.0053  -8.0014  -7.9960  -7.9805  -7.9693  -7.9667
    -7.9607  -7.9560  -7.9401  -7.9401  -7.9372  -7.9265  -7.9229  -7.9046
    -7.8915  -7.8817  -7.8800  -7.8724  -7.8697  -7.8608  -7.8462  -7.8254
    -7.8199  -7.7941  -7.7873  -7.7498  -7.7349  -7.7171  -7.6522  -7.6018
    -7.5911  -7.5654  -7.5292  -7.5181  -7.5115  -7.4971  -7.4785  -7.4302
    -7.4003  -7.3898  -7.3716  -7.3461  -7.3329  -7.3173  -7.2918  -7.2885
    -7.2634  -7.2587  -7.2458  -7.2243  -7.2057  -7.2035  -7.1915  -7.1808
    -7.1617  -7.1417  -7.1132  -7.1071  -7.0817  -7.0495  -7.0001  -6.9868
    -6.9689  -6.9590  -6.9396  -6.9370  -6.9369  -6.9368  -6.9365  -6.9062
    -6.8775  -6.8753  -6.8701  -6.8672  -6.8653  -6.8565  -6.8370  -6.8216
    -6.7767  -6.7751  -6.7335  -6.7121  -6.6900  -6.6786  -6.6058  -6.6055
    -6.6054  -6.6051  -6.5505  -6.5417  -6.5352  -6.5270  -6.5261  -6.5237
    -6.5171  -6.5068  -6.4782  -6.4757  -6.4586  -6.4422  -6.4341  -6.4160
    -6.2929  -6.2568  -6.2568  -6.1892  -6.1813  -6.1705  -6.1067  -6.0730
    -6.0332  -5.9343  -5.8941  -5.8430  -5.7697  -5.2990  -5.2845  -5.2774
    -5.2274  -5.2011  -5.0962  -4.2998  -4.2967  -4.2939  -4.2818  -4.1722
    -4.1722  -4.1565  -4.1452  -4.1081  -4.1077  -4.0787  -4.0542  -4.0515
    -4.0432  -4.0314  -4.0106  -3.9589  -3.9277  -3.8806  -3.8746  -3.8725
    -3.8715  -3.8581  -3.8579  -3.8465  -3.8256  -3.8219  -3.7975  -3.7822
    -3.7786  -3.7759  -3.7551  -3.7526  -3.7476  -3.7469  -3.7393  -3.7360
    -3.7150  -3.6970  -3.6698  -3.6553  -3.6345  -3.6341  -3.6262  -3.6253
    -3.6245  -3.6019  -3.5960  -3.5872  -3.5847  -3.5728  -3.5546  -3.5492
    -3.5489  -3.5481  -3.5476  -3.5249  -3.5181  -3.5130  -3.5104  -3.4976
    -3.4874  -3.4848  -3.4759  -3.4695  -3.4648  -3.4597  -3.4561  -3.4145
    -3.4070  -3.3918  -3.3887  -3.3718  -3.3607  -3.3455  -3.3441  -3.3061
    -3.3049  -3.3020  -3.2930  -3.2855  -3.2851  -3.2848  -3.2847  -3.2513
    -3.2416  -3.2372  -3.2362  -3.2188  -3.2149  -3.1995  -3.1960  -3.1935
    -3.1880  -3.1709  -3.1685  -3.1569  -3.1475  -3.1439  -3.1406  -3.1271
    -3.1107  -3.1066  -3.0931  -3.0819  -3.0767  -3.0762  -3.0681  -3.0128
    -3.0097  -2.9816  -2.9777  -2.9303  -2.9224  -2.9205  -2.9142  -2.9069
    -2.8994  -2.8420  -2.8388  -2.7908  -2.7831  -2.7705  -2.7571  -2.7550
    -2.7459  -2.6421  -2.6287  -2.5644  -2.5618  -2.5306

     the Fermi energy is    -5.1151 ev

!    total energy              =  -26543.64704636 Ry
     total all-electron energy =   -522376.243354 Ry
     estimated scf accuracy    <       0.00000052 Ry
     smearing contrib. (-TS)   =      -0.01557365 Ry
     internal energy E=F+TS    =  -26543.63147270 Ry

     The total energy is F=E-TS. E is the sum of the following terms:
     one-electron contribution =  520294.60977085 Ry
     hartree contribution      = -260304.09969010 Ry
     xc contribution           =   -1565.18754636 Ry
     ewald contribution        = -268520.85069053 Ry
     DFT-D3 Dispersion         =      -4.03546486 Ry
     one-center paw contrib.   =  -16444.06785170 Ry

     convergence has been achieved in  29 iterations

     negative rho (up, down):  8.327E-04 0.000E+00

     Forces acting on atoms (cartesian axes, Ry/au):

     atom    1 type  1   force =    -0.00038450   -0.00127000    0.00077101
     atom    2 type  1   force =     0.00000068    0.00000070    0.00187855
     atom    3 type  1   force =     0.00000661   -0.00000856   -0.00010116
     atom    4 type  2   force =     0.00000043   -0.00000051   -0.00331146
     atom    5 type  2   force =    -0.00000399   -0.00000230   -0.00001423
     atom    6 type  2   force =     0.00074818    0.00039810   -0.00005568
     atom    7 type  2   force =    -0.00000303    0.00000239    0.00151076
     atom    8 type  2   force =    -0.00001939    0.00001947    0.00007522
     atom    9 type  2   force =    -0.00117389   -0.00169864    0.00113696
     atom   10 type  1   force =     0.00464708   -0.00002227    0.01291855
     atom   11 type  1   force =     0.00000029    0.00000775    0.00187240
     atom   12 type  1   force =     0.00004417    0.00002842   -0.00000516
     atom   13 type  2   force =     0.00000044   -0.00000102   -0.00331029
     atom   14 type  2   force =    -0.00000554   -0.00001564   -0.00002572
     atom   15 type  2   force =    -0.00047725    0.00012817   -0.00134763
     atom   16 type  2   force =    -0.00000151    0.00000590    0.00152355
     atom   17 type  2   force =    -0.00002335   -0.00004475   -0.00000995
     atom   18 type  2   force =    -0.00444339   -0.00256965   -0.00575784
     atom   19 type  1   force =     0.00025631   -0.00038143   -0.00255300
     atom   20 type  1   force =     0.00000559   -0.00000587    0.00187726
     atom   21 type  1   force =     0.00001461   -0.00000511   -0.00009241
     atom   22 type  2   force =    -0.00000199    0.00000057   -0.00331123
     atom   23 type  2   force =    -0.00000883   -0.00000109   -0.00004486
     atom   24 type  2   force =     0.00026589    0.00007370    0.00044566
     atom   25 type  2   force =     0.00000276   -0.00000446    0.00150952
     atom   26 type  2   force =    -0.00004211   -0.00000124   -0.00005083
     atom   27 type  2   force =    -0.00100382    0.00041437    0.00161041
     atom   28 type  1   force =    -0.00046503   -0.00055791   -0.00037612
     atom   29 type  1   force =    -0.00000218    0.00000288    0.00188392
     atom   30 type  1   force =     0.00000494   -0.00002367    0.00007722
     atom   31 type  2   force =     0.00000053    0.00000042   -0.00331060
     atom   32 type  2   force =     0.00000152   -0.00000149   -0.00002439
     atom   33 type  2   force =    -0.00012001   -0.00017666    0.00006893
     atom   34 type  2   force =    -0.00000467   -0.00000434    0.00150937
     atom   35 type  2   force =     0.00001583   -0.00001866    0.00004455
     atom   36 type  2   force =    -0.00019035   -0.00024183    0.00071352
     atom   37 type  1   force =    -0.00124910    0.00028676    0.00002894
     atom   38 type  1   force =     0.00000101    0.00000374    0.00188389
     atom   39 type  1   force =    -0.00002428   -0.00003833    0.00001203
     atom   40 type  2   force =     0.00000056   -0.00000067   -0.00331168
     atom   41 type  2   force =     0.00004101    0.00002535    0.00002502
     atom   42 type  2   force =    -0.00042078    0.00030706   -0.00030392
     atom   43 type  2   force =    -0.00000539    0.00000312    0.00150587
     atom   44 type  2   force =    -0.00005820   -0.00003081    0.00007660
     atom   45 type  2   force =     0.00206748   -0.00124559    0.00054312
     atom   46 type  1   force =    -0.00412205    0.00150294    0.00598396
     atom   47 type  1   force =     0.00000006    0.00000288    0.00187423
     atom   48 type  1   force =    -0.00002468    0.00004001    0.00003200
     atom   49 type  2   force =    -0.00000090   -0.00000237   -0.00330984
     atom   50 type  2   force =     0.00002623   -0.00002513    0.00000225
     atom   51 type  2   force =     0.00043805   -0.00014391   -0.00149058
     atom   52 type  2   force =    -0.00000452    0.00001284    0.00151347
     atom   53 type  2   force =     0.00002942   -0.00002304    0.00003688
     atom   54 type  2   force =     0.00292809    0.00564761   -0.01620263
     atom   55 type  1   force =    -0.00061616   -0.00050532    0.00022402
     atom   56 type  1   force =    -0.00000274   -0.00000321    0.00187544
     atom   57 type  1   force =     0.00001755   -0.00006877   -0.00000799
     atom   58 type  2   force =     0.00000080    0.00000133   -0.00330946
     atom   59 type  2   force =    -0.00000373   -0.00002773   -0.00004820
     atom   60 type  2   force =    -0.00037485   -0.00054852   -0.00216889
     atom   61 type  2   force =     0.00000214   -0.00000516    0.00150477
     atom   62 type  2   force =     0.00001931    0.00001454   -0.00013163
     atom   63 type  2   force =    -0.00052818    0.00789172   -0.00835211
     atom   64 type  1   force =    -0.00033068   -0.00047105   -0.00031727
     atom   65 type  1   force =     0.00000566    0.00000152    0.00188033
     atom   66 type  1   force =    -0.00003465    0.00002740    0.00004023
     atom   67 type  2   force =    -0.00000346    0.00000318   -0.00331304
     atom   68 type  2   force =    -0.00001705    0.00001750   -0.00002293
     atom   69 type  2   force =    -0.00040198   -0.00020808   -0.00005670
     atom   70 type  2   force =     0.00000496   -0.00000399    0.00151463
     atom   71 type  2   force =     0.00000638    0.00002869    0.00006919
     atom   72 type  2   force =     0.00036671    0.00084133    0.00109961
     atom   73 type  1   force =     0.00014038    0.00039563    0.00003643
     atom   74 type  1   force =    -0.00000129   -0.00000111    0.00187977
     atom   75 type  1   force =    -0.00002916    0.00001312    0.00017962
     atom   76 type  2   force =    -0.00000173    0.00000054   -0.00330905
     atom   77 type  2   force =    -0.00005255    0.00004646   -0.00001299
     atom   78 type  2   force =     0.00023157    0.00001189   -0.00025546
     atom   79 type  2   force =     0.00000123    0.00000141    0.00151574
     atom   80 type  2   force =     0.00005229   -0.00002677   -0.00004294
     atom   81 type  2   force =     0.00003478   -0.00034467    0.00027171
     atom   82 type  1   force =    -0.00086932    0.00150744    0.00035351
     atom   83 type  1   force =    -0.00000130   -0.00000033    0.00187865
     atom   84 type  1   force =     0.00000515    0.00002203   -0.00000573
     atom   85 type  2   force =    -0.00000046    0.00000114   -0.00330964
     atom   86 type  2   force =    -0.00000036   -0.00004844    0.00001637
     atom   87 type  2   force =     0.00082433   -0.00049649    0.00006020
     atom   88 type  2   force =    -0.00000089    0.00000891    0.00151775
     atom   89 type  2   force =    -0.00002025    0.00006726    0.00003509
     atom   90 type  2   force =     0.00147635   -0.00193926    0.00259583
     atom   91 type  1   force =     0.00025763   -0.00083585   -0.00172366
     atom   92 type  1   force =    -0.00000393   -0.00000379    0.00187506
     atom   93 type  1   force =    -0.00004023   -0.00003665   -0.00014586
     atom   94 type  2   force =    -0.00000008    0.00000207   -0.00331038
     atom   95 type  2   force =     0.00000121   -0.00000966   -0.00003056
     atom   96 type  2   force =    -0.00047619   -0.00046568   -0.00087234
     atom   97 type  2   force =    -0.00000239    0.00000066    0.00150003
     atom   98 type  2   force =     0.00000537    0.00000115    0.00003152
     atom   99 type  2   force =     0.00227962    0.00358729   -0.00314331
     atom  100 type  1   force =     0.00062548   -0.00020610   -0.00024874
     atom  101 type  1   force =    -0.00000126    0.00000341    0.00187730
     atom  102 type  1   force =     0.00001834   -0.00001029   -0.00001178
     atom  103 type  2   force =    -0.00000082   -0.00000056   -0.00331046
     atom  104 type  2   force =     0.00000812   -0.00001538   -0.00004461
     atom  105 type  2   force =    -0.00005578   -0.00012245   -0.00044626
     atom  106 type  2   force =     0.00000433   -0.00000556    0.00150370
     atom  107 type  2   force =    -0.00001232   -0.00001108    0.00002255
     atom  108 type  2   force =    -0.00042053    0.00122571    0.00120523
     atom  109 type  1   force =    -0.00071940    0.00126976   -0.00056718
     atom  110 type  1   force =    -0.00000632   -0.00000265    0.00187882
     atom  111 type  1   force =     0.00001878   -0.00003259    0.00003446
     atom  112 type  2   force =     0.00000106    0.00000233   -0.00330933
     atom  113 type  2   force =    -0.00000285   -0.00000436   -0.00003533
[...]
     atom   54 type  2   force =    -0.00020873    0.00080101   -0.00241824
     atom   55 type  1   force =     0.00006762    0.00005683   -0.00062033
     atom   56 type  1   force =    -0.00000477   -0.00000361    0.00188371
     atom   57 type  1   force =    -0.00005183    0.00005065    0.00002514
     atom   58 type  2   force =    -0.00000235   -0.00000011   -0.00328345
     atom   59 type  2   force =    -0.00005034    0.00003831    0.00005970
     atom   60 type  2   force =    -0.00006832   -0.00016855    0.00007466
     atom   61 type  2   force =    -0.00000415   -0.00000526    0.00145410
     atom   62 type  2   force =    -0.00003583    0.00008256   -0.00006125
     atom   63 type  2   force =     0.00041440    0.00019000    0.00001879
     atom   64 type  1   force =    -0.00005105   -0.00055506   -0.00021315
     atom   65 type  1   force =    -0.00000134    0.00000125    0.00189117
     atom   66 type  1   force =    -0.00006798    0.00000840    0.00004634
     atom   67 type  2   force =    -0.00000272   -0.00000037   -0.00328059
     atom   68 type  2   force =    -0.00007406    0.00006968   -0.00001732
     atom   69 type  2   force =     0.00006815   -0.00061655   -0.00025768
     atom   70 type  2   force =    -0.00000261   -0.00000184    0.00148007
     atom   71 type  2   force =    -0.00007590    0.00008768    0.00009779
     atom   72 type  2   force =    -0.00087049    0.00047159   -0.00045342
     atom   73 type  1   force =     0.00051868    0.00004614    0.00056614
     atom   74 type  1   force =    -0.00000373   -0.00000216    0.00188617
     atom   75 type  1   force =    -0.00006033    0.00002787    0.00009688
     atom   76 type  2   force =    -0.00000295   -0.00000097   -0.00328248
     atom   77 type  2   force =    -0.00007168    0.00004708    0.00004846
     atom   78 type  2   force =     0.00070861   -0.00000877    0.00075544
     atom   79 type  2   force =    -0.00000115    0.00000465    0.00146992
     atom   80 type  2   force =     0.00002676   -0.00001626   -0.00012340
     atom   81 type  2   force =    -0.00028677   -0.00003800   -0.00095263
     atom   82 type  1   force =    -0.00091736    0.00015139   -0.00010593
     atom   83 type  1   force =    -0.00000682    0.00000163    0.00188577
     atom   84 type  1   force =    -0.00001522    0.00002256    0.00000581
     atom   85 type  2   force =    -0.00000275   -0.00000093   -0.00328196
     atom   86 type  2   force =    -0.00001818   -0.00000936    0.00006891
     atom   87 type  2   force =     0.00145700   -0.00066227   -0.00153809
     atom   88 type  2   force =    -0.00000947    0.00001246    0.00146549
     atom   89 type  2   force =     0.00000183    0.00007277    0.00004613
     atom   90 type  2   force =    -0.00071655   -0.00005925    0.00050304
     atom   91 type  1   force =    -0.00021888   -0.00087325   -0.00020188
     atom   92 type  1   force =    -0.00000796   -0.00000280    0.00188222
     atom   93 type  1   force =    -0.00002761    0.00001930   -0.00001754
     atom   94 type  2   force =    -0.00000305   -0.00000032   -0.00328323
     atom   95 type  2   force =    -0.00007774   -0.00003177    0.00002325
     atom   96 type  2   force =     0.00046437    0.00056177   -0.00138727
     atom   97 type  2   force =    -0.00000839    0.00000288    0.00144938
     atom   98 type  2   force =    -0.00005603   -0.00003706    0.00010322
     atom   99 type  2   force =    -0.00000504    0.00082717   -0.00008774
     atom  100 type  1   force =    -0.00012251   -0.00002225    0.00005600
     atom  101 type  1   force =    -0.00000571    0.00000270    0.00188503
     atom  102 type  1   force =    -0.00003769   -0.00002159   -0.00000562
     atom  103 type  2   force =    -0.00000290   -0.00000104   -0.00328211
     atom  104 type  2   force =    -0.00007426    0.00000807   -0.00002504
     atom  105 type  2   force =     0.00012702   -0.00030459   -0.00067305
     atom  106 type  2   force =    -0.00000063    0.00000176    0.00146345
     atom  107 type  2   force =    -0.00001338    0.00004332    0.00005057
     atom  108 type  2   force =    -0.00006093    0.00011521   -0.00006143
     atom  109 type  1   force =    -0.00016653    0.00041080   -0.00068670
     atom  110 type  1   force =    -0.00000676   -0.00000041    0.00188713
     atom  111 type  1   force =     0.00001022   -0.00000324    0.00000571
     atom  112 type  2   force =    -0.00000264   -0.00000116   -0.00328318
     atom  113 type  2   force =    -0.00001812    0.00001389   -0.00001137
     atom  114 type  2   force =    -0.00045241   -0.00064865   -0.00033325
     atom  115 type  2   force =    -0.00000942    0.00000384    0.00147167
     atom  116 type  2   force =    -0.00011159   -0.00010713    0.00008984
     atom  117 type  2   force =     0.00058652   -0.00031899    0.00030075
     atom  118 type  1   force =     0.00065962    0.00022354   -0.00044737
     atom  119 type  1   force =    -0.00000382    0.00000005    0.00188624
     atom  120 type  1   force =    -0.00004060    0.00004267    0.00002906
     atom  121 type  2   force =    -0.00000290   -0.00000068   -0.00328183
     atom  122 type  2   force =    -0.00003676    0.00003043   -0.00002377
     atom  123 type  2   force =    -0.00020698   -0.00013346    0.00045804
     atom  124 type  2   force =    -0.00000895   -0.00000182    0.00148887
     atom  125 type  2   force =    -0.00005098    0.00000936    0.00001089
     atom  126 type  2   force =    -0.00043219    0.00066651   -0.00011401
     atom  127 type  1   force =     0.00015463   -0.00003389   -0.00009013
     atom  128 type  1   force =    -0.00000616   -0.00000310    0.00188841
     atom  129 type  1   force =    -0.00008025   -0.00001026    0.00003586
     atom  130 type  2   force =    -0.00000265   -0.00000018   -0.00328297
     atom  131 type  2   force =    -0.00003833    0.00006199    0.00000849
     atom  132 type  2   force =     0.00017487   -0.00052078    0.00087349
     atom  133 type  2   force =    -0.00001644   -0.00000181    0.00145373
     atom  134 type  2   force =    -0.00011177   -0.00002390    0.00009533
     atom  135 type  2   force =     0.00029108   -0.00043435   -0.00038917
     atom  136 type  1   force =     0.00002869    0.00038789   -0.00036479
     atom  137 type  1   force =    -0.00000568    0.00000327    0.00189128
     atom  138 type  1   force =    -0.00007889    0.00000766   -0.00000840
     atom  139 type  2   force =    -0.00000248   -0.00000063   -0.00328108
     atom  140 type  2   force =    -0.00004744   -0.00003862    0.00004270
     atom  141 type  2   force =    -0.00083285   -0.00023742    0.00098735
     atom  142 type  2   force =    -0.00001694    0.00000460    0.00147297
     atom  143 type  2   force =    -0.00013335    0.00001170   -0.00005196
     atom  144 type  2   force =     0.00028209    0.00003952   -0.00040753
     atom  145 type  3   force =     0.00193462    0.00334418    0.00128819
     atom  146 type  3   force =     0.00116597   -0.00015145    0.00147595
     atom  147 type  4   force =    -0.00003192    0.00175368    0.00028312

     Total force =     0.009731     Total SCF correction =     0.000494
     Energy error            =      1.8E-04 Ry
     Gradient error          =      4.1E-03 Ry/Bohr

     number of scf cycles    =  32
     number of bfgs steps    =  30

     energy             old  =  -26543.7368731635 Ry
     energy             new  =  -26543.7370503119 Ry

     CASE: energy            _new < energy            _old

     new trust radius        =       0.0202433405 bohr
     new conv_thr            =       0.0000000177 Ry


ATOMIC_POSITIONS (angstrom)
Mo               1.5463162860        2.6916791894        6.0725488232
Mo               1.5769197498        0.9104407117       -6.0872367793    0   0   0
Mo              -0.0016045269        1.8219541881       -0.0021781793
S                0.0000044503        0.0000077495       -7.6506323570    0   0   0
S                1.5750747857        0.9117593519       -1.5683353436
S               -0.0367798087        1.8194139991        4.5013382811
S                0.0000053241        0.0000068460       -4.5222282367    0   0   0
S                1.5755137399        0.9114555761        1.5640310126
S               -0.0358077158        1.8018896320        7.6489070826
Mo              -0.0583396876        5.4741958206        6.1334970546
Mo               0.0000011799        3.6417399547       -6.0872367793    0   0   0
Mo              -1.5782579089        4.5527894570       -0.0016077280
S               -1.5769141197        2.7313069925       -7.6506323570    0   0   0
S               -0.0018524511        3.6424859936       -1.5675813564
S               -1.5922841638        4.5686535784        4.5428326164
S               -1.5769132459        2.7313060890       -4.5222282367    0   0   0
S               -0.0008346467        3.6430357429        1.5659630244
S               -1.7144577538        4.5021320822        7.7166273536
Mo              -1.6159361148        8.2127093679        6.0820805420
Mo              -1.5769173901        6.3730391977       -6.0872367793    0   0   0
Mo              -3.1551880876        7.2838272491       -0.0040814952
S               -3.1538326896        5.4626062355       -7.6506323570    0   0   0
S               -1.5779851321        6.3723372263       -1.5685859924
S               -3.1816461450        7.2895163206        4.5098355769
S               -3.1538318159        5.4626053320       -4.5222282367    0   0   0
S               -1.5787704196        6.3744182351        1.5643761061
S               -3.1892440764        7.2942116596        7.6495660413
Mo               3.1302484509        0.0027757762        6.0745200129
Mo              -3.1538359601        9.1043384407       -6.0872367793    0   0   0
Mo              -4.7320025916       10.0157293397       -0.0034676368
S               -4.7307512596        8.1939054785       -7.6506323570    0   0   0
S               -3.1552064333        9.1050404382       -1.5692810879
S               -4.7548775053       10.0178715144        4.5073986601
S               -4.7307503859        8.1939045750       -4.5222282367    0   0   0
S               -3.1551579099        9.1045850676        1.5628388967
S               -4.7578204890       10.0170147399        7.6414913793
Mo               4.7054971577        2.7263388900        6.0900642168
Mo               4.7307503218        0.9104407117       -6.0872367793    0   0   0
Mo               3.1521955118        1.8220119200       -0.0033563572
S                3.1538350223        0.0000077495       -7.6506323570    0   0   0
S                4.7297050607        0.9114662409       -1.5689298845
S                3.1337261243        1.8218559541        4.5045049624
S                3.1538358961        0.0000068460       -4.5222282367    0   0   0
S                4.7284244404        0.9105204739        1.5629013327
S                3.1297726815        1.8069563270        7.6508015641
Mo               3.1514973621        5.4653203349        6.1456011515
Mo               3.1538317519        3.6417399547       -6.0872367793    0   0   0
Mo               1.5752020857        4.5531074379       -0.0027020019
S                1.5769164523        2.7313069925       -7.6506323570    0   0   0
S                3.1521635634        3.6429062956       -1.5683915729
S                1.5481903561        4.5794851686        4.5797002285
S                1.5769173261        2.7313060890       -4.5222282367    0   0   0
S                3.1512207933        3.6429017732        1.5650933774
S                1.5368765232        4.4638801854        7.6449597550
Mo               1.5497812123        8.2166901694        6.1032514766
Mo               1.5769131819        6.3730391977       -6.0872367793    0   0   0
Mo              -0.0013853750        7.2833956524       -0.0034365274
S               -0.0000021176        5.4626062355       -7.6506323570    0   0   0
S                1.5756434764        6.3731593769       -1.5690001308
S               -0.0252699819        7.2778823147        4.5495458309
S               -0.0000012439        5.4626053320       -4.5222282367    0   0   0
S                1.5750290371        6.3738023983        1.5643792504
S               -0.0476911634        7.3733043561        7.6935985976
Mo               6.2830200794        0.0049280294        6.0756562228
Mo              -0.0000053881        9.1043384407       -6.0872367793    0   0   0
Mo              -1.5781934271       10.0151091220       -0.0039732702
S               -1.5769206876        8.1939054785       -7.6506323570    0   0   0
S               -0.0004068089        9.1045115784       -1.5683000867
S               -1.6024268470       10.0204147920        4.5077568534
S               -1.5769198139        8.1939045750       -4.5222282367    0   0   0
S               -0.0025389837        9.1035416436        1.5644392738
S               -1.6055958586       10.0318827823        7.6501836403
Mo               7.8561684199        2.7377548878        6.0754418985
Mo               7.8845808939        0.9104407117       -6.0872367793    0   0   0
Mo               6.3059797592        1.8215265280       -0.0023847825
S                6.3076655943        0.0000077495       -7.6506323570    0   0   0
S                7.8834969261        0.9107606471       -1.5671841100
S                6.2778627283        1.8277551188        4.5100562748
S                6.3076664681        0.0000068460       -4.5222282367    0   0   0
S                7.8820464671        0.9106172508        1.5656603076
S                6.2904121292        1.8139154942        7.6495742590
Mo               6.2907651842        5.4689683671        6.0876539783
Mo               6.3076623239        3.6417399547       -6.0872367793    0   0   0
Mo               4.7286159538        4.5530682011       -0.0025029586
S                4.7307470244        2.7313069925       -7.6506323570    0   0   0
S                6.3061403428        3.6424617954       -1.5674950354
S                4.6887832867        4.5666693545        4.5554870511
S                4.7307478981        2.7313060890       -4.5222282367    0   0   0
S                6.3043032692        3.6429060846        1.5654712028
S                4.8109396442        4.4971531942        7.7254953077
Mo               4.7121342380        8.2084717099        6.0858225590
Mo               4.7307437539        6.3730391977       -6.0872367793    0   0   0
Mo               3.1521148918        7.2835831757       -0.0030223162
S                3.1538284544        5.4626062355       -7.6506323570    0   0   0
S                4.7291924547        6.3734634527       -1.5684850088
S                3.1230502506        7.2663729721        4.5599511160
S                3.1538293281        5.4626053320       -4.5222282367    0   0   0
S                4.7289155412        6.3740484024        1.5644970472
S                3.1419931881        7.3626989775        7.7003646165
Mo               9.4346298681        0.0047732380        6.0735759197
Mo               3.1538251839        9.1043384407       -6.0872367793    0   0   0
Mo               1.5754070627       10.0148756333       -0.0015809135
S                1.5769098844        8.1939054785       -7.6506323570    0   0   0
S                3.1523619278        9.1049326781       -1.5674730610
S                1.5514268868       10.0106581741        4.5122923292
S                1.5769107581        8.1939045750       -4.5222282367    0   0   0
S                3.1521778684        9.1031914121        1.5655605829
S                1.5528925964       10.0461314213        7.6579742781
Mo              -1.6059871497        2.7284250344        6.0850343606
Mo              11.0384114659        0.9104407117       -6.0872367793    0   0   0
Mo               9.4595771837        1.8214387493       -0.0011765122
S                9.4614961663        0.0000077495       -7.6506323570    0   0   0
S               11.0364805485        0.9113409831       -1.5670610654
S                9.4358856957        1.8295181192        4.5095285485
S                9.4614970401        0.0000068460       -4.5222282367    0   0   0
S               11.0368220114        0.9107146055        1.5644769998
S                9.4250021109        1.8157015840        7.6457833073
Mo              -3.1934020233        5.4694977998        6.0824398462
Mo               9.4614928959        3.6417399547       -6.0872367793    0   0   0
Mo               7.8827154114        4.5528799108       -0.0016342401
S                7.8845775964        2.7313069925       -7.6506323570    0   0   0
S                9.4600160103        3.6419886657       -1.5665470942
S                7.8548040979        4.5605789350        4.5070257951
S                7.8845784701        2.7313060890       -4.5222282367    0   0   0
S                9.4600451929        3.6431352311        1.5660549990
S                7.8574681576        4.5524288288        7.6538704592
Mo              -4.7584995294        8.1989871294        6.0757027210
Mo               7.8845743259        6.3730391977       -6.0872367793    0   0   0
Mo               6.3062059853        7.2840326119       -0.0035933465
S                6.3076590264        5.4626062355       -7.6506323570    0   0   0
S                7.8831601990        6.3727095331       -1.5687326166
S                6.2781373558        7.2879178058        4.5120979964
S                6.3076599001        5.4626053320       -4.5222282367    0   0   0
S                7.8830701239        6.3747971334        1.5635988862
S                6.2875568746        7.2947999185        7.6517858791
Mo              -0.0304017484       -0.0005930562        6.0714921869
Mo               6.3076557559        9.1043384407       -6.0872367793    0   0   0
Mo               4.7291096599       10.0150922871       -0.0022898705
S                4.7307404564        8.1939054785       -7.6506323570    0   0   0
S                6.3061706573        9.1054537217       -1.5685540872
S                4.7027662936       10.0139623984        4.5060449399
S                4.7307413301        8.1939045750       -4.5222282367    0   0   0
S                6.3067361555        9.1047495550        1.5634589409
S                4.7057850305       10.0302306931        7.6488948924
Pd               3.0536736635        5.3391407991        9.0693718971
Pd               0.0219331853        5.3743234240        9.0682608897
Pt               1.5393928881        5.5031363370       11.0852164600



     Writing config-only to output data dir ./outdir/pwscf.save/ :
     XML data file
     NEW-OLD atomic charge density approx. for the potential

     negative rho (up, down):  9.083E-04 0.000E+00

     total cpu time spent up to now is   258050.6 secs

     Self-consistent Calculation

     iteration #  1     ecut=    77.00 Ry     beta= 0.20
     Davidson diagonalization with overlap
     ethr =  1.00E-06,  avg # of iterations = 14.0

     Threshold (ethr) on eigenvalues was too large:
     Diagonalizing with lowered threshold

     Davidson diagonalization with overlap
     ethr =  7.94E-08,  avg # of iterations = 10.0

     negative rho (up, down):  9.076E-04 0.000E+00

     total cpu time spent up to now is   258836.4 secs

     total energy              =  -26543.73730751 Ry
     estimated scf accuracy    <       0.00097986 Ry

     iteration #  2     ecut=    77.00 Ry     beta= 0.20
     Davidson diagonalization with overlap
     ethr =  7.45E-08,  avg # of iterations = 16.2

     negative rho (up, down):  9.067E-04 0.000E+00

     total cpu time spent up to now is   259101.2 secs

     total energy              =  -26543.73710974 Ry
     estimated scf accuracy    <       0.01158945 Ry

     iteration #  3     ecut=    77.00 Ry     beta= 0.20
     Davidson diagonalization with overlap
