
     Program PWSCF v.7.2 starts on 26Jul2023 at 14: 3: 7 

     This program is part of the open-source Quantum ESPRESSO suite
     for quantum simulation of materials; please cite
         "P. Giannozzi et al., J. Phys.:Condens. Matter 21 395502 (2009);
         "P. Giannozzi et al., J. Phys.:Condens. Matter 29 465901 (2017);
         "P. Giannozzi et al., J. Chem. Phys. 152 154105 (2020);
          URL http://www.quantum-espresso.org", 
     in publications or presentations arising from this work. More details at
     http://www.quantum-espresso.org/quote

     Parallel version (MPI), running on    48 processors

     MPI processes distributed on     1 nodes
     1384500 MiB available memory on the printing compute node when the environment starts
 
     Waiting for input...
     Reading input from standard input

     Current dimensions of program PWSCF are:
     Max number of different atomic species (ntypx) = 10
     Max number of k-points (npk) =  40000
     Max angular momentum in pseudopotentials (lmaxx) =  4
     file Mo.pbe-spn-kjpaw_psl.1.0.0.UPF: wavefunction(s)  4S 4D renormalized
     file S.pbe-n-kjpaw_psl.1.0.0.UPF: wavefunction(s)  3S 3P renormalized
     Found identity + ( -0.3333  0.3333  0.3333) symmetry
     This is a supercell, fractional translations are disabled
 
     R & G space division:  proc/nbgrp/npool/nimage =      48
     Subspace diagonalization in iterative solution of the eigenvalue problem:
     a serial algorithm will be used

 
     Parallelization info
     --------------------
     sticks:   dense  smooth     PW     G-vecs:    dense   smooth      PW
     Min          45      25      7                10253     4421     711
     Max          46      26      8                10273     4452     742
     Sum        2161    1237    367               492859   213055   34901
 
     Using Slab Decomposition
 


     bravais-lattice index     =            0
     lattice parameter (alat)  =       6.0175  a.u.
     unit-cell volume          =    1152.3731 (a.u.)^3
     number of atoms/cell      =            9
     number of atomic types    =            2
     number of electrons       =        78.00
     number of Kohn-Sham states=           47
     kinetic-energy cutoff     =     123.2000  Ry
     charge density cutoff     =     862.4000  Ry
     scf convergence threshold =      1.0E-06
     mixing beta               =       0.2000
     number of iterations used =            8  plain     mixing
     energy convergence thresh.=      1.0E-04
     force convergence thresh. =      1.0E-03
     press convergence thresh. =      5.0E-01
     Exchange-correlation= SLA  PW   PBX  PBC
                           (   1   4   3   4   0   0   0)
     nstep                     =         1000


     celldm(1)=   6.017462  celldm(2)=   0.000000  celldm(3)=   0.000000
     celldm(4)=   0.000000  celldm(5)=   0.000000  celldm(6)=   0.000000

     crystal axes: (cart. coord. in units of alat)
               a(1) = (   1.000000   0.000000   0.000000 )  
               a(2) = (  -0.500000   0.866025   0.000000 )  
               a(3) = (   0.000000   0.000000   6.106922 )  

     reciprocal axes: (cart. coord. in units 2 pi/alat)
               b(1) = (  1.000000  0.577350  0.000000 )  
               b(2) = (  0.000000  1.154701  0.000000 )  
               b(3) = (  0.000000  0.000000  0.163749 )  


     PseudoPot. # 1 for Mo read from file:
     ./pseudo/Mo.pbe-spn-kjpaw_psl.1.0.0.UPF
     MD5 check sum: 317bf72632116215fd98f72de1686f13
     Pseudo is Projector augmented-wave + core cor, Zval = 14.0
     Generated using 'atomic' code by A. Dal Corso  v.7.2
     Shape of augmentation charge: PSQ
     Using radial grid of 1229 points,  6 beta functions with: 
                l(1) =   0
                l(2) =   0
                l(3) =   1
                l(4) =   1
                l(5) =   2
                l(6) =   2
     Q(r) pseudized with 0 coefficients 


     PseudoPot. # 2 for S  read from file:
     ./pseudo/S.pbe-n-kjpaw_psl.1.0.0.UPF
     MD5 check sum: 8b7b5302570d38d5e87fed6a1065abda
     Pseudo is Projector augmented-wave + core cor, Zval =  6.0
     Generated using 'atomic' code by A. Dal Corso  v.7.2
     Shape of augmentation charge: PSQ
     Using radial grid of 1151 points,  6 beta functions with: 
                l(1) =   0
                l(2) =   0
                l(3) =   1
                l(4) =   1
                l(5) =   2
                l(6) =   2
     Q(r) pseudized with 0 coefficients 


     atomic species   valence    mass     pseudopotential
        Mo            14.00    95.95000     Mo( 1.00)
        S              6.00    32.06000     S ( 1.00)

     No symmetry found



   Cartesian axes

     site n.     atom                  positions (alat units)
         1           Mo  tau(   1) = (   0.0000000   0.0000000   6.1055482  )
         2           Mo  tau(   2) = (   0.5000000   0.2886751   2.0342669  )
         3           Mo  tau(   3) = (   0.0000000   0.5773503   4.0699075  )
         4           S   tau(   4) = (   0.0000000   0.0000000   1.5468573  )
         5           S   tau(   5) = (   0.5000000   0.2886751   3.5824980  )
         6           S   tau(   6) = (   0.0000000   0.5773503   5.6181387  )
         7           S   tau(   7) = (   0.0000000   0.0000000   2.5217326  )
         8           S   tau(   8) = (   0.5000000   0.2886751   4.5573733  )
         9           S   tau(   9) = (   0.0000000   0.5773503   0.4860920  )

     --------------------------------------------
     DFT-D3 Dispersion Correction (3-body terms):
     --------------------------------------------
       Reference C6 values for interpolation: 

         atom   Coordination number   C6
         S          0.000           268.01
         S          0.995           261.99
         S          1.990           251.62
         Mo         0.000          1691.79
         Mo         1.942          1004.01
         Mo        11.056           674.22

       Values used:

         atom   Coordination number  R0_AB[au]  C6      C8
         Mo         9.961            3.547    674.22  77634.20
         Mo         9.961            3.547    674.22  77634.20
         Mo         9.961            3.547    674.22  77634.20
         S          3.726            3.128    251.62  12327.25
         S          3.726            3.128    251.62  12327.25
         S          3.726            3.128    251.62  12327.25
         S          3.726            3.128    251.62  12327.25
         S          3.726            3.128    251.62  12327.25
         S          3.726            3.128    251.62  12327.25

         Molecular C6 ( Ry / a.u.^6 ) =     29912.92


     number of k points=    36  Gaussian smearing, width (Ry)=  0.0100
                       cart. coord. in units 2pi/alat
        k(    1) = (   0.0000000   0.0000000   0.0000000), wk =   0.0312500
        k(    2) = (   0.0000000   0.0000000   0.0409372), wk =   0.0625000
        k(    3) = (   0.0000000   0.0000000  -0.0818743), wk =   0.0312500
        k(    4) = (   0.0000000   0.2886751   0.0000000), wk =   0.0625000
        k(    5) = (   0.0000000   0.2886751   0.0409372), wk =   0.0625000
        k(    6) = (   0.0000000   0.2886751  -0.0818743), wk =   0.0625000
        k(    7) = (   0.0000000   0.2886751  -0.0409372), wk =   0.0625000
        k(    8) = (   0.0000000  -0.5773503   0.0000000), wk =   0.0312500
        k(    9) = (   0.0000000  -0.5773503   0.0409372), wk =   0.0625000
        k(   10) = (   0.0000000  -0.5773503  -0.0818743), wk =   0.0312500
        k(   11) = (   0.2500000   0.1443376   0.0000000), wk =   0.0625000
        k(   12) = (   0.2500000   0.1443376   0.0409372), wk =   0.0625000
        k(   13) = (   0.2500000   0.1443376  -0.0818743), wk =   0.0625000
        k(   14) = (   0.2500000   0.1443376  -0.0409372), wk =   0.0625000
        k(   15) = (   0.2500000   0.4330127   0.0000000), wk =   0.0625000
        k(   16) = (   0.2500000   0.4330127   0.0409372), wk =   0.0625000
        k(   17) = (   0.2500000   0.4330127  -0.0818743), wk =   0.0625000
        k(   18) = (   0.2500000   0.4330127  -0.0409372), wk =   0.0625000
        k(   19) = (   0.2500000  -0.4330127   0.0000000), wk =   0.0625000
        k(   20) = (   0.2500000  -0.4330127   0.0409372), wk =   0.0625000
        k(   21) = (   0.2500000  -0.4330127  -0.0818743), wk =   0.0625000
        k(   22) = (   0.2500000  -0.4330127  -0.0409372), wk =   0.0625000
        k(   23) = (   0.2500000  -0.1443376   0.0000000), wk =   0.0625000
        k(   24) = (   0.2500000  -0.1443376   0.0409372), wk =   0.0625000
        k(   25) = (   0.2500000  -0.1443376  -0.0818743), wk =   0.0625000
        k(   26) = (   0.2500000  -0.1443376  -0.0409372), wk =   0.0625000
        k(   27) = (  -0.5000000  -0.2886751   0.0000000), wk =   0.0312500
        k(   28) = (  -0.5000000  -0.2886751   0.0409372), wk =   0.0625000
        k(   29) = (  -0.5000000  -0.2886751  -0.0818743), wk =   0.0312500
        k(   30) = (  -0.5000000   0.0000000   0.0000000), wk =   0.0625000
        k(   31) = (  -0.5000000   0.0000000   0.0409372), wk =   0.0625000
        k(   32) = (  -0.5000000   0.0000000  -0.0818743), wk =   0.0625000
        k(   33) = (  -0.5000000   0.0000000  -0.0409372), wk =   0.0625000
        k(   34) = (  -0.5000000  -0.8660254   0.0000000), wk =   0.0312500
        k(   35) = (  -0.5000000  -0.8660254   0.0409372), wk =   0.0625000
        k(   36) = (  -0.5000000  -0.8660254  -0.0818743), wk =   0.0312500

     Dense  grid:   492859 G-vectors     FFT dimensions: (  60,  60, 360)

     Smooth grid:   213055 G-vectors     FFT dimensions: (  45,  45, 270)

     Estimated max dynamical RAM per process >      63.78 MB

     Estimated total dynamical RAM >       2.99 GB

     Initial potential from superposition of free atoms

     starting charge      77.9972, renormalised to      78.0000
     Starting wfcs are   54 randomized atomic wfcs
     Checking if some PAW data can be deallocated... 

     total cpu time spent up to now is        2.2 secs

     Self-consistent Calculation

     iteration #  1     ecut=   123.20 Ry     beta= 0.20
     Davidson diagonalization with overlap
     ethr =  1.00E-02,  avg # of iterations =  2.5

     Threshold (ethr) on eigenvalues was too large:
     Diagonalizing with lowered threshold

     Davidson diagonalization with overlap
     ethr =  2.92E-04,  avg # of iterations =  3.5

     total cpu time spent up to now is        9.8 secs

     total energy              =   -1490.36210343 Ry
     estimated scf accuracy    <       0.31279555 Ry

     iteration #  2     ecut=   123.20 Ry     beta= 0.20
     Davidson diagonalization with overlap
     ethr =  4.01E-04,  avg # of iterations =  1.1

     total cpu time spent up to now is       12.8 secs

     total energy              =   -1490.33722211 Ry
     estimated scf accuracy    <       0.11507983 Ry

     iteration #  3     ecut=   123.20 Ry     beta= 0.20
     Davidson diagonalization with overlap
     ethr =  1.48E-04,  avg # of iterations =  2.0

     total cpu time spent up to now is       16.4 secs

     total energy              =   -1490.34813558 Ry
     estimated scf accuracy    <       0.02033651 Ry

     iteration #  4     ecut=   123.20 Ry     beta= 0.20
     Davidson diagonalization with overlap
     ethr =  2.61E-05,  avg # of iterations =  3.9

     total cpu time spent up to now is       20.0 secs

     total energy              =   -1490.34927149 Ry
     estimated scf accuracy    <       0.00676471 Ry

     iteration #  5     ecut=   123.20 Ry     beta= 0.20
     Davidson diagonalization with overlap
     ethr =  8.67E-06,  avg # of iterations =  5.2

     total cpu time spent up to now is       24.2 secs

     total energy              =   -1490.34943708 Ry
     estimated scf accuracy    <       0.00490333 Ry

     iteration #  6     ecut=   123.20 Ry     beta= 0.20
     Davidson diagonalization with overlap
     ethr =  6.29E-06,  avg # of iterations =  1.2

     total cpu time spent up to now is       27.2 secs

     total energy              =   -1490.34942607 Ry
     estimated scf accuracy    <       0.00103860 Ry

     iteration #  7     ecut=   123.20 Ry     beta= 0.20
     Davidson diagonalization with overlap
     c_bands:  1 eigenvalues not converged
     c_bands:  1 eigenvalues not converged
     ethr =  1.33E-06,  avg # of iterations =  3.9

     total cpu time spent up to now is       31.2 secs

     total energy              =   -1490.34958493 Ry
     estimated scf accuracy    <       0.00006327 Ry

     iteration #  8     ecut=   123.20 Ry     beta= 0.20
     Davidson diagonalization with overlap
     c_bands:  1 eigenvalues not converged
     ethr =  8.11E-08,  avg # of iterations =  6.4

     total cpu time spent up to now is       35.9 secs

     total energy              =   -1490.34958354 Ry
     estimated scf accuracy    <       0.00010434 Ry

     iteration #  9     ecut=   123.20 Ry     beta= 0.20
     Davidson diagonalization with overlap
     ethr =  8.11E-08,  avg # of iterations =  3.1

     total cpu time spent up to now is       39.7 secs

     total energy              =   -1490.34960631 Ry
     estimated scf accuracy    <       0.00001382 Ry

     iteration # 10     ecut=   123.20 Ry     beta= 0.20
     Davidson diagonalization with overlap
     ethr =  1.77E-08,  avg # of iterations =  1.1

     total cpu time spent up to now is       42.7 secs

     total energy              =   -1490.34960611 Ry
     estimated scf accuracy    <       0.00000286 Ry

     iteration # 11     ecut=   123.20 Ry     beta= 0.20
     Davidson diagonalization with overlap
     ethr =  3.66E-09,  avg # of iterations =  3.7

     total cpu time spent up to now is       46.8 secs

     total energy              =   -1490.34960696 Ry
     estimated scf accuracy    <       0.00000228 Ry

     iteration # 12     ecut=   123.20 Ry     beta= 0.20
     Davidson diagonalization with overlap
     ethr =  2.93E-09,  avg # of iterations =  1.8

     total cpu time spent up to now is       49.9 secs

     End of self-consistent calculation

          k = 0.0000 0.0000 0.0000 ( 26745 PWs)   bands (ev):

   -51.5215 -51.5212 -51.5211 -25.6528 -25.6526 -25.6525 -25.4583 -25.4583
   -25.4580 -25.4580 -25.4579 -25.4579  -4.8347  -4.7405  -4.7402  -3.4860
    -3.4857  -3.3203   3.3924   3.8444   3.8446   6.6867   6.6867   6.6869
     6.6869   6.6920   6.6920   7.2056   7.2059   7.8036   7.8036   7.8135
     7.8135   7.8138   7.8138   8.4901   9.0235   9.7941   9.7944  12.0947
    12.0947  12.1283  12.1283  12.1285  12.1285  12.3717  12.3717

          k = 0.0000 0.0000 0.0409 ( 26674 PWs)   bands (ev):

   -51.5215 -51.5212 -51.5211 -25.6528 -25.6526 -25.6525 -25.4583 -25.4583
   -25.4580 -25.4580 -25.4579 -25.4579  -4.8270  -4.7740  -4.7139  -3.5292
    -3.4289  -3.3345   3.4281   3.6789   3.9801   6.6856   6.6856   6.6885
     6.6885   6.6915   6.6915   6.9655   7.5424   7.8045   7.8045   7.8103
     7.8103   7.8161   7.8161   8.2852   9.1873   9.6441   9.8835  12.0974
    12.0975  12.1162  12.1164  12.1382  12.1382  12.3586  12.3601

          k = 0.0000 0.0000-0.0819 ( 26722 PWs)   bands (ev):

   -51.5215 -51.5212 -51.5211 -25.6528 -25.6526 -25.6525 -25.4583 -25.4583
   -25.4580 -25.4580 -25.4579 -25.4579  -4.8055  -4.8052  -4.7037  -3.5454
    -3.3739  -3.3736   3.5294   3.5297   4.0338   6.6851   6.6851   6.6901
     6.6901   6.6904   6.6904   6.8767   7.8068   7.8068   7.8071   7.8071
     7.8170   7.8170   7.9208   7.9209   9.4354   9.4355   9.9129  12.1050
    12.1050  12.1052  12.1052  12.1420  12.1420  12.3535  12.3536

          k = 0.0000 0.2887 0.0000 ( 26662 PWs)   bands (ev):

   -51.5028 -51.5026 -51.5025 -25.6465 -25.6463 -25.6462 -25.6153 -25.6150
   -25.6149 -25.5014 -25.5012 -25.5011  -4.0057  -3.9232  -3.9209  -3.1430
    -3.1393  -3.0215   4.0811   4.3990   4.4007   5.4566   5.4741   5.4929
     5.7534   5.7580   5.9329   6.8239   6.8257   6.8479   7.5004   7.5221
     7.5246   7.8464   7.9382   8.3666   8.5995   8.6809   8.7171  11.2877
    11.6726  11.7137  11.7401  11.7455  11.7514  12.3120  12.3290

          k = 0.0000 0.2887 0.0409 ( 26634 PWs)   bands (ev):

   -51.5028 -51.5026 -51.5025 -25.6465 -25.6463 -25.6462 -25.6153 -25.6150
   -25.6149 -25.5014 -25.5012 -25.5011  -3.9986  -3.9536  -3.8971  -3.1752
    -3.0969  -3.0323   4.1062   4.2826   4.4963   5.4421   5.4865   5.5119
     5.6650   5.8411   5.9164   6.8199   6.8313   6.8463   7.5018   7.5173
     7.5279   7.7798   8.0751   8.2701   8.6474   8.6605   8.7153  11.3267
    11.5584  11.6776  11.7253  11.7668  11.8950  12.2006  12.4194

          k = 0.0000 0.2887-0.0819 ( 26634 PWs)   bands (ev):

   -51.5028 -51.5026 -51.5025 -25.6465 -25.6463 -25.6462 -25.6153 -25.6150
   -25.6149 -25.5014 -25.5012 -25.5011  -3.9811  -3.9792  -3.8883  -3.1867
    -3.0609  -3.0575   4.1769   4.1772   4.5357   5.4452   5.4915   5.5519
     5.5836   5.8838   5.9010   6.8175   6.8391   6.8409   7.5069   7.5095
     7.5306   7.7771   8.1220   8.2222   8.6315   8.6877   8.7076  11.4205
    11.4309  11.6942  11.6995  11.7761  11.9752  12.1328  12.4813

          k = 0.0000 0.2887-0.0409 ( 26634 PWs)   bands (ev):

   -51.5028 -51.5026 -51.5025 -25.6465 -25.6463 -25.6462 -25.6153 -25.6150
   -25.6149 -25.5014 -25.5012 -25.5011  -3.9996  -3.9512  -3.8985  -3.1729
    -3.1009  -3.0305   4.1059   4.2818   4.4977   5.4582   5.4908   5.4965
     5.6540   5.8325   5.9300   6.8189   6.8333   6.8452   7.5033   7.5144
     7.5294   7.8337   7.9687   8.3432   8.5974   8.6960   8.7096  11.3227
    11.5774  11.6805  11.7189  11.7703  11.8671  12.2218  12.4078

          k = 0.0000-0.5774 0.0000 ( 26560 PWs)   bands (ev):

   -51.4841 -51.4839 -51.4838 -25.8293 -25.8291 -25.8290 -25.5775 -25.5772
   -25.5771 -25.5442 -25.5439 -25.5438  -2.9238  -2.9235  -2.8868  -2.7345
    -2.6922  -2.6919   3.5423   3.5426   3.5998   4.5025   4.5827   4.5830
     5.2160   5.2163   5.3656   6.1439   6.1442   6.1714   7.3101   7.5849
     7.5851   8.2929   8.3622   8.3625   8.6929   8.6931   8.7784  11.5741
    11.5920  11.5922  12.0852  12.0855  12.1419  13.0762  13.3285

          k = 0.0000-0.5774 0.0409 ( 26590 PWs)   bands (ev):

   -51.4841 -51.4839 -51.4838 -25.8293 -25.8291 -25.8290 -25.5775 -25.5772
   -25.5771 -25.5442 -25.5439 -25.5438  -2.9307  -2.9130  -2.8909  -2.7299
    -2.7045  -2.6836   3.5292   3.5609   3.5944   4.5096   4.5556   4.6033
     5.1816   5.2642   5.3514   6.1375   6.1530   6.1689   7.3345   7.4922
     7.6550   8.2991   8.3392   8.3793   8.6667   8.7248   8.7718  11.5756
    11.5858  11.5970  12.0646  12.1096  12.1390  13.0960  13.2386

          k = 0.0000-0.5774-0.0819 ( 26636 PWs)   bands (ev):

   -51.4841 -51.4839 -51.4838 -25.8293 -25.8291 -25.8290 -25.5775 -25.5772
   -25.5771 -25.5442 -25.5439 -25.5438  -2.9332  -2.9011  -2.9008  -2.7186
    -2.7183  -2.6806   3.5244   3.5799   3.5801   4.5288   4.5291   4.6110
     5.1689   5.3136   5.3139   6.1352   6.1620   6.1623   7.4009   7.4012
     7.6812   8.3159   8.3162   8.3855   8.6562   8.7528   8.7531  11.5797
    11.5799  11.5988  12.0564  12.1286  12.1288  13.1532  13.1535

          k = 0.2500 0.1443 0.0000 ( 26662 PWs)   bands (ev):

   -51.5028 -51.5026 -51.5025 -25.6465 -25.6463 -25.6462 -25.6153 -25.6150
   -25.6149 -25.5014 -25.5012 -25.5011  -4.0057  -3.9232  -3.9209  -3.1430
    -3.1393  -3.0215   4.0811   4.3990   4.4007   5.4566   5.4741   5.4929
     5.7534   5.7580   5.9329   6.8239   6.8257   6.8479   7.5004   7.5221
     7.5246   7.8464   7.9382   8.3666   8.5995   8.6809   8.7171  11.2877
    11.6726  11.7137  11.7401  11.7455  11.7514  12.3120  12.3290

          k = 0.2500 0.1443 0.0409 ( 26634 PWs)   bands (ev):

   -51.5028 -51.5026 -51.5025 -25.6465 -25.6463 -25.6462 -25.6153 -25.6150
   -25.6149 -25.5014 -25.5012 -25.5011  -3.9996  -3.9512  -3.8985  -3.1729
    -3.1009  -3.0305   4.1059   4.2818   4.4977   5.4582   5.4908   5.4965
     5.6540   5.8325   5.9300   6.8189   6.8333   6.8452   7.5033   7.5144
     7.5294   7.8337   7.9687   8.3432   8.5974   8.6960   8.7096  11.3227
    11.5774  11.6805  11.7189  11.7703  11.8671  12.2218  12.4078

          k = 0.2500 0.1443-0.0819 ( 26634 PWs)   bands (ev):

   -51.5028 -51.5026 -51.5025 -25.6465 -25.6463 -25.6462 -25.6153 -25.6150
   -25.6149 -25.5014 -25.5012 -25.5011  -3.9811  -3.9792  -3.8883  -3.1867
    -3.0609  -3.0575   4.1769   4.1772   4.5357   5.4452   5.4915   5.5519
     5.5836   5.8838   5.9010   6.8175   6.8391   6.8409   7.5069   7.5095
     7.5306   7.7771   8.1220   8.2222   8.6315   8.6877   8.7076  11.4205
    11.4309  11.6942  11.6995  11.7761  11.9752  12.1328  12.4802

          k = 0.2500 0.1443-0.0409 ( 26634 PWs)   bands (ev):

   -51.5028 -51.5026 -51.5025 -25.6465 -25.6463 -25.6462 -25.6153 -25.6150
   -25.6149 -25.5014 -25.5012 -25.5011  -3.9986  -3.9536  -3.8971  -3.1752
    -3.0969  -3.0323   4.1062   4.2826   4.4963   5.4421   5.4865   5.5119
     5.6650   5.8411   5.9164   6.8199   6.8313   6.8463   7.5018   7.5173
     7.5279   7.7798   8.0751   8.2701   8.6474   8.6605   8.7153  11.3267
    11.5584  11.6776  11.7253  11.7668  11.8950  12.2006  12.4193

          k = 0.2500 0.4330 0.0000 ( 26587 PWs)   bands (ev):

   -51.4841 -51.4839 -51.4838 -25.7612 -25.7610 -25.7609 -25.6147 -25.6145
   -25.6144 -25.5775 -25.5773 -25.5772  -2.9682  -2.9248  -2.9246  -2.6992
    -2.6989  -2.6497   4.1349   4.2421   4.2424   4.4126   4.4131   4.4134
     5.6669   5.6943   5.6945   6.0838   6.0840   6.2769   6.4221   6.4224
     6.4415   7.7240   7.7243   7.7436   8.8175   8.8177   8.8365  11.3426
    11.5986  11.5988  12.0926  12.1716  12.1718  12.5138  12.5143

          k = 0.2500 0.4330 0.0409 ( 26606 PWs)   bands (ev):

   -51.4841 -51.4839 -51.4838 -25.7612 -25.7610 -25.7609 -25.6147 -25.6145
   -25.6144 -25.5775 -25.5773 -25.5772  -2.9649  -2.9410  -2.9109  -2.7143
    -2.6808  -2.6536   4.1439   4.2045   4.2719   4.4101   4.4133   4.4148
     5.6640   5.6679   5.7370   6.0036   6.1638   6.2647   6.4054   6.4378
     6.4428   7.7205   7.7326   7.7380   8.8126   8.8243   8.8350  11.3651
    11.5127  11.6604  12.0963  12.1312  12.2326  12.4461  12.5563

          k = 0.2500 0.4330-0.0819 ( 26582 PWs)   bands (ev):

   -51.4841 -51.4839 -51.4838 -25.7612 -25.7610 -25.7609 -25.6147 -25.6145
   -25.6144 -25.5775 -25.5773 -25.5772  -2.9555  -2.9552  -2.9053  -2.7204
    -2.6647  -2.6644   4.1687   4.1690   4.2835   4.4084   4.4143   4.4146
     5.6604   5.6606   5.7646   5.9624   6.2265   6.2268   6.3982   6.4438
     6.4440   7.7267   7.7269   7.7368   8.8107   8.8306   8.8308  11.4270
    11.4272  11.6823  12.1081  12.1087  12.2807  12.3951  12.5713

          k = 0.2500 0.4330-0.0409 ( 26606 PWs)   bands (ev):

   -51.4841 -51.4839 -51.4838 -25.7612 -25.7610 -25.7609 -25.6147 -25.6145
   -25.6144 -25.5775 -25.5773 -25.5772  -2.9649  -2.9410  -2.9109  -2.7143
    -2.6808  -2.6536   4.1439   4.2045   4.2719   4.4101   4.4133   4.4148
     5.6640   5.6679   5.7370   6.0036   6.1638   6.2647   6.4054   6.4378
     6.4428   7.7205   7.7326   7.7380   8.8126   8.8243   8.8350  11.3651
    11.5127  11.6604  12.0964  12.1313  12.2326  12.4462  12.5566

          k = 0.2500-0.4330 0.0000 ( 26587 PWs)   bands (ev):

   -51.4841 -51.4839 -51.4838 -25.7612 -25.7610 -25.7609 -25.6147 -25.6145
   -25.6144 -25.5775 -25.5773 -25.5772  -2.9682  -2.9248  -2.9246  -2.6992
    -2.6989  -2.6497   4.1349   4.2421   4.2424   4.4126   4.4131   4.4134
     5.6669   5.6943   5.6945   6.0838   6.0840   6.2769   6.4221   6.4224
     6.4415   7.7240   7.7243   7.7436   8.8175   8.8177   8.8365  11.3426
    11.5986  11.5988  12.0927  12.1716  12.1717  12.5137  12.5144

          k = 0.2500-0.4330 0.0409 ( 26606 PWs)   bands (ev):

   -51.4841 -51.4839 -51.4838 -25.7612 -25.7610 -25.7609 -25.6147 -25.6145
   -25.6144 -25.5775 -25.5773 -25.5772  -2.9649  -2.9410  -2.9109  -2.7143
    -2.6808  -2.6536   4.1439   4.2045   4.2719   4.4101   4.4133   4.4148
     5.6640   5.6679   5.7370   6.0036   6.1638   6.2647   6.4054   6.4378
     6.4428   7.7205   7.7326   7.7380   8.8126   8.8243   8.8350  11.3651
    11.5127  11.6604  12.0963  12.1313  12.2326  12.4462  12.5563

          k = 0.2500-0.4330-0.0819 ( 26582 PWs)   bands (ev):

   -51.4841 -51.4839 -51.4838 -25.7612 -25.7610 -25.7609 -25.6147 -25.6145
   -25.6144 -25.5775 -25.5773 -25.5772  -2.9555  -2.9552  -2.9053  -2.7204
    -2.6647  -2.6644   4.1687   4.1690   4.2835   4.4084   4.4143   4.4146
     5.6604   5.6606   5.7646   5.9624   6.2265   6.2268   6.3982   6.4438
     6.4440   7.7267   7.7269   7.7368   8.8107   8.8306   8.8308  11.4270
    11.4272  11.6823  12.1083  12.1084  12.2806  12.3950  12.5710

          k = 0.2500-0.4330-0.0409 ( 26606 PWs)   bands (ev):

   -51.4841 -51.4839 -51.4838 -25.7612 -25.7610 -25.7609 -25.6147 -25.6145
   -25.6144 -25.5775 -25.5773 -25.5772  -2.9649  -2.9410  -2.9109  -2.7143
    -2.6808  -2.6536   4.1439   4.2045   4.2719   4.4101   4.4133   4.4148
     5.6640   5.6679   5.7370   6.0036   6.1638   6.2647   6.4054   6.4378
     6.4428   7.7205   7.7326   7.7380   8.8126   8.8243   8.8350  11.3651
    11.5127  11.6604  12.0964  12.1312  12.2326  12.4462  12.5562

          k = 0.2500-0.1443 0.0000 ( 26662 PWs)   bands (ev):

   -51.5028 -51.5026 -51.5025 -25.6465 -25.6463 -25.6462 -25.6153 -25.6150
   -25.6149 -25.5014 -25.5012 -25.5011  -4.0057  -3.9232  -3.9209  -3.1430
    -3.1393  -3.0215   4.0811   4.3990   4.4007   5.4566   5.4741   5.4929
     5.7534   5.7580   5.9329   6.8239   6.8257   6.8479   7.5004   7.5221
     7.5246   7.8464   7.9382   8.3666   8.5995   8.6809   8.7171  11.2877
    11.6726  11.7137  11.7401  11.7455  11.7514  12.3120  12.3290

          k = 0.2500-0.1443 0.0409 ( 26634 PWs)   bands (ev):

   -51.5028 -51.5026 -51.5025 -25.6465 -25.6463 -25.6462 -25.6153 -25.6150
   -25.6149 -25.5014 -25.5012 -25.5011  -3.9986  -3.9536  -3.8971  -3.1752
    -3.0969  -3.0323   4.1062   4.2826   4.4963   5.4421   5.4865   5.5119
     5.6650   5.8411   5.9164   6.8199   6.8313   6.8463   7.5018   7.5173
     7.5279   7.7798   8.0751   8.2701   8.6474   8.6605   8.7153  11.3267
    11.5584  11.6776  11.7253  11.7668  11.8950  12.2006  12.4193

          k = 0.2500-0.1443-0.0819 ( 26634 PWs)   bands (ev):

   -51.5028 -51.5026 -51.5025 -25.6465 -25.6463 -25.6462 -25.6153 -25.6150
   -25.6149 -25.5014 -25.5012 -25.5011  -3.9811  -3.9792  -3.8883  -3.1867
    -3.0609  -3.0575   4.1769   4.1772   4.5357   5.4452   5.4915   5.5519
     5.5836   5.8838   5.9010   6.8175   6.8391   6.8409   7.5069   7.5095
     7.5306   7.7771   8.1220   8.2222   8.6315   8.6877   8.7076  11.4205
    11.4309  11.6942  11.6995  11.7761  11.9752  12.1328  12.4811

          k = 0.2500-0.1443-0.0409 ( 26634 PWs)   bands (ev):

   -51.5028 -51.5026 -51.5025 -25.6465 -25.6463 -25.6462 -25.6153 -25.6150
   -25.6149 -25.5014 -25.5012 -25.5011  -3.9996  -3.9512  -3.8985  -3.1729
    -3.1009  -3.0305   4.1059   4.2818   4.4977   5.4582   5.4908   5.4965
     5.6540   5.8325   5.9300   6.8189   6.8333   6.8452   7.5033   7.5144
     7.5294   7.8337   7.9687   8.3432   8.5974   8.6960   8.7096  11.3227
    11.5774  11.6805  11.7189  11.7703  11.8671  12.2218  12.4078

          k =-0.5000-0.2887 0.0000 ( 26560 PWs)   bands (ev):

   -51.4841 -51.4839 -51.4838 -25.8293 -25.8291 -25.8290 -25.5775 -25.5772
   -25.5771 -25.5441 -25.5439 -25.5438  -2.9238  -2.9235  -2.8868  -2.7345
    -2.6922  -2.6919   3.5423   3.5425   3.5998   4.5025   4.5827   4.5830
     5.2160   5.2163   5.3656   6.1439   6.1442   6.1714   7.3101   7.5849
     7.5851   8.2929   8.3622   8.3625   8.6929   8.6931   8.7784  11.5741
    11.5920  11.5922  12.0852  12.0855  12.1419  13.0763  13.3284

          k =-0.5000-0.2887 0.0409 ( 26590 PWs)   bands (ev):

   -51.4841 -51.4839 -51.4838 -25.8293 -25.8291 -25.8290 -25.5775 -25.5772
   -25.5771 -25.5441 -25.5439 -25.5438  -2.9307  -2.9130  -2.8909  -2.7299
    -2.7045  -2.6836   3.5292   3.5609   3.5944   4.5096   4.5556   4.6033
     5.1816   5.2642   5.3514   6.1375   6.1530   6.1689   7.3345   7.4922
     7.6550   8.2991   8.3392   8.3793   8.6667   8.7248   8.7718  11.5756
    11.5858  11.5970  12.0646  12.1096  12.1390  13.0961  13.2379

          k =-0.5000-0.2887-0.0819 ( 26636 PWs)   bands (ev):

   -51.4841 -51.4839 -51.4838 -25.8293 -25.8291 -25.8290 -25.5775 -25.5772
   -25.5771 -25.5441 -25.5439 -25.5438  -2.9332  -2.9011  -2.9008  -2.7186
    -2.7183  -2.6806   3.5244   3.5799   3.5801   4.5288   4.5291   4.6110
     5.1689   5.3136   5.3139   6.1352   6.1620   6.1623   7.4009   7.4012
     7.6812   8.3159   8.3162   8.3855   8.6562   8.7528   8.7531  11.5797
    11.5799  11.5988  12.0564  12.1286  12.1288  13.1533  13.1535

          k =-0.5000 0.0000 0.0000 ( 26587 PWs)   bands (ev):

   -51.4841 -51.4839 -51.4838 -25.7612 -25.7610 -25.7609 -25.6147 -25.6145
   -25.6144 -25.5775 -25.5773 -25.5772  -2.9682  -2.9248  -2.9246  -2.6992
    -2.6989  -2.6497   4.1349   4.2421   4.2424   4.4126   4.4131   4.4134
     5.6669   5.6943   5.6945   6.0838   6.0840   6.2769   6.4221   6.4224
     6.4415   7.7240   7.7243   7.7436   8.8175   8.8177   8.8365  11.3426
    11.5986  11.5988  12.0926  12.1716  12.1717  12.5137  12.5140

          k =-0.5000 0.0000 0.0409 ( 26606 PWs)   bands (ev):

   -51.4841 -51.4839 -51.4838 -25.7612 -25.7610 -25.7609 -25.6147 -25.6145
   -25.6144 -25.5775 -25.5773 -25.5772  -2.9649  -2.9410  -2.9109  -2.7143
    -2.6808  -2.6536   4.1439   4.2045   4.2719   4.4101   4.4133   4.4148
     5.6640   5.6679   5.7370   6.0036   6.1638   6.2647   6.4054   6.4378
     6.4428   7.7205   7.7326   7.7380   8.8126   8.8243   8.8350  11.3651
    11.5127  11.6604  12.0964  12.1313  12.2326  12.4462  12.5564

          k =-0.5000 0.0000-0.0819 ( 26582 PWs)   bands (ev):

   -51.4841 -51.4839 -51.4838 -25.7612 -25.7610 -25.7609 -25.6147 -25.6145
   -25.6144 -25.5775 -25.5773 -25.5772  -2.9555  -2.9552  -2.9053  -2.7204
    -2.6647  -2.6644   4.1687   4.1690   4.2835   4.4084   4.4143   4.4146
     5.6604   5.6606   5.7646   5.9624   6.2265   6.2268   6.3982   6.4438
     6.4440   7.7267   7.7269   7.7368   8.8107   8.8306   8.8308  11.4270
    11.4272  11.6823  12.1081  12.1085  12.2807  12.3951  12.5712

          k =-0.5000 0.0000-0.0409 ( 26606 PWs)   bands (ev):

   -51.4841 -51.4839 -51.4838 -25.7612 -25.7610 -25.7609 -25.6147 -25.6145
   -25.6144 -25.5775 -25.5773 -25.5772  -2.9649  -2.9410  -2.9109  -2.7143
    -2.6808  -2.6536   4.1439   4.2045   4.2719   4.4101   4.4133   4.4148
     5.6640   5.6679   5.7370   6.0036   6.1638   6.2647   6.4054   6.4378
     6.4428   7.7205   7.7326   7.7380   8.8126   8.8243   8.8350  11.3651
    11.5127  11.6604  12.0964  12.1313  12.2327  12.4465  12.5563

          k =-0.5000-0.8660 0.0000 ( 26560 PWs)   bands (ev):

   -51.4841 -51.4839 -51.4838 -25.8293 -25.8291 -25.8290 -25.5775 -25.5772
   -25.5771 -25.5441 -25.5439 -25.5438  -2.9238  -2.9235  -2.8868  -2.7345
    -2.6922  -2.6919   3.5423   3.5426   3.5998   4.5025   4.5827   4.5830
     5.2160   5.2163   5.3656   6.1439   6.1442   6.1714   7.3101   7.5849
     7.5851   8.2929   8.3622   8.3625   8.6929   8.6931   8.7784  11.5741
    11.5920  11.5922  12.0852  12.0855  12.1419  13.0762  13.3284

          k =-0.5000-0.8660 0.0409 ( 26590 PWs)   bands (ev):

   -51.4841 -51.4839 -51.4838 -25.8293 -25.8291 -25.8290 -25.5775 -25.5772
   -25.5771 -25.5442 -25.5439 -25.5438  -2.9307  -2.9130  -2.8909  -2.7299
    -2.7045  -2.6836   3.5292   3.5609   3.5944   4.5096   4.5556   4.6033
     5.1816   5.2642   5.3514   6.1375   6.1530   6.1689   7.3345   7.4922
     7.6550   8.2991   8.3392   8.3793   8.6667   8.7248   8.7718  11.5756
    11.5858  11.5970  12.0646  12.1096  12.1390  13.0960  13.2379

          k =-0.5000-0.8660-0.0819 ( 26636 PWs)   bands (ev):

   -51.4841 -51.4839 -51.4838 -25.8293 -25.8291 -25.8290 -25.5775 -25.5772
   -25.5771 -25.5442 -25.5439 -25.5438  -2.9332  -2.9011  -2.9008  -2.7186
    -2.7183  -2.6806   3.5244   3.5799   3.5801   4.5288   4.5291   4.6110
     5.1689   5.3136   5.3139   6.1352   6.1620   6.1623   7.4009   7.4012
     7.6812   8.3159   8.3162   8.3855   8.6562   8.7528   8.7531  11.5797
    11.5799  11.5988  12.0564  12.1286  12.1288  13.1533  13.1537

     the Fermi energy is    10.5978 ev

!    total energy              =   -1490.34960670 Ry
     total all-electron energy =    -29085.340240 Ry
     estimated scf accuracy    <       0.00000060 Ry
     smearing contrib. (-TS)   =      -0.00000000 Ry
     internal energy E=F+TS    =   -1490.34960670 Ry

     The total energy is F=E-TS. E is the sum of the following terms:
     one-electron contribution =    -298.82419772 Ry
     hartree contribution      =     186.47025652 Ry
     xc contribution           =     -89.14557240 Ry
     ewald contribution        =    -329.69999174 Ry
     DFT-D3 Dispersion         =      -0.24690878 Ry
     one-center paw contrib.   =    -958.90319257 Ry

     convergence has been achieved in  12 iterations

     Forces acting on atoms (cartesian axes, Ry/au):

     atom    1 type  1   force =    -0.00000052    0.00000088    0.00011847
     atom    2 type  1   force =     0.00000046   -0.00000009   -0.00033871
     atom    3 type  1   force =     0.00000088    0.00000035   -0.00024260
     atom    4 type  2   force =     0.00000114    0.00000073   -0.00542316
     atom    5 type  2   force =    -0.00000037    0.00000015   -0.00541736
     atom    6 type  2   force =    -0.00000031   -0.00000024   -0.00533943
     atom    7 type  2   force =     0.00000025   -0.00000222    0.00551495
     atom    8 type  2   force =    -0.00000038    0.00000006    0.00553199
     atom    9 type  2   force =    -0.00000115    0.00000038    0.00559585
     The non-local contrib.  to forces
     atom    1 type  1   force =     0.00000157   -0.00000161   -0.00029001
     atom    2 type  1   force =     0.00000033   -0.00000112   -0.00036042
     atom    3 type  1   force =    -0.00000002    0.00000013   -0.00031054
     atom    4 type  2   force =    -0.00000122   -0.00000065    0.26605046
     atom    5 type  2   force =     0.00000058   -0.00000074    0.26606219
     atom    6 type  2   force =     0.00000301    0.00000106    0.26607409
     atom    7 type  2   force =    -0.00000117    0.00000100   -0.26521941
     atom    8 type  2   force =    -0.00000053   -0.00000014   -0.26520901
     atom    9 type  2   force =     0.00000020    0.00000155   -0.26520307
     The ionic contribution  to forces
     atom    1 type  1   force =    -0.00000000   -0.00000000   -0.00312271
     atom    2 type  1   force =    -0.00000000    0.00000000   -0.00312271
     atom    3 type  1   force =    -0.00000000    0.00000000   -0.00312271
     atom    4 type  2   force =    -0.00000000   -0.00000000  -15.64429015
     atom    5 type  2   force =    -0.00000000   -0.00000000  -15.64429015
     atom    6 type  2   force =    -0.00000000    0.00000000  -15.64429015
     atom    7 type  2   force =     0.00000000   -0.00000000   15.64741286
     atom    8 type  2   force =    -0.00000000   -0.00000000   15.64741286
     atom    9 type  2   force =     0.00000000    0.00000000   15.64741286
     The local contribution  to forces
     atom    1 type  1   force =    -0.00000041    0.00000216    0.00427368
     atom    2 type  1   force =     0.00000329   -0.00000370    0.00241548
     atom    3 type  1   force =     0.00000196    0.00000247    0.00310598
     atom    4 type  2   force =     0.00000335    0.00000226   15.37528285
     atom    5 type  2   force =    -0.00000147    0.00000167   15.37537687
     atom    6 type  2   force =    -0.00000578   -0.00000242   15.37553525
     atom    7 type  2   force =     0.00000129   -0.00000447  -15.37937263
     atom    8 type  2   force =     0.00000032    0.00000065  -15.37922984
     atom    9 type  2   force =    -0.00000259   -0.00000230  -15.37905482
     The core correction contribution to forces
     atom    1 type  1   force =    -0.00000008    0.00000008    0.00002028
     atom    2 type  1   force =    -0.00000001    0.00000004    0.00001313
     atom    3 type  1   force =     0.00000002    0.00000001    0.00001494
     atom    4 type  2   force =     0.00000008    0.00000004   -0.00217262
     atom    5 type  2   force =    -0.00000004    0.00000003   -0.00217268
     atom    6 type  2   force =    -0.00000012   -0.00000005   -0.00217210
     atom    7 type  2   force =     0.00000003   -0.00000009    0.00215385
     atom    8 type  2   force =     0.00000001    0.00000001    0.00215404
     atom    9 type  2   force =    -0.00000005   -0.00000005    0.00215491
     The Hubbard contrib.    to forces
     atom    1 type  1   force =     0.00000000    0.00000000    0.00000000
     atom    2 type  1   force =     0.00000000    0.00000000    0.00000000
     atom    3 type  1   force =     0.00000000    0.00000000    0.00000000
     atom    4 type  2   force =     0.00000000    0.00000000    0.00000000
     atom    5 type  2   force =     0.00000000    0.00000000    0.00000000
     atom    6 type  2   force =     0.00000000    0.00000000    0.00000000
     atom    7 type  2   force =     0.00000000    0.00000000    0.00000000
     atom    8 type  2   force =     0.00000000    0.00000000    0.00000000
     atom    9 type  2   force =     0.00000000    0.00000000    0.00000000
     The SCF correction term to forces
     atom    1 type  1   force =    -0.00000185    0.00000020   -0.00075295
     atom    2 type  1   force =    -0.00000341    0.00000464    0.00072561
     atom    3 type  1   force =    -0.00000134   -0.00000232    0.00007955
     atom    4 type  2   force =    -0.00000132   -0.00000098   -0.00066465
     atom    5 type  2   force =     0.00000030   -0.00000086   -0.00076455
     atom    6 type  2   force =     0.00000234    0.00000112   -0.00085747
     atom    7 type  2   force =    -0.00000015    0.00000130    0.00089288
     atom    8 type  2   force =    -0.00000043   -0.00000052    0.00075655
     atom    9 type  2   force =     0.00000105    0.00000113    0.00063857

     DFT-D3 dispersion contribution to forces:
     atom    1 type  1   force =     0.00000000    0.00000000   -0.00001265
     atom    2 type  1   force =     0.00000000   -0.00000000   -0.00001265
     atom    3 type  1   force =     0.00000000   -0.00000000   -0.00001265
     atom    4 type  2   force =    -0.00000000    0.00000000    0.00036810
     atom    5 type  2   force =    -0.00000000    0.00000000    0.00036810
     atom    6 type  2   force =    -0.00000000   -0.00000000    0.00036810
     atom    7 type  2   force =    -0.00000000    0.00000000   -0.00035545
     atom    8 type  2   force =    -0.00000000    0.00000000   -0.00035545
     atom    9 type  2   force =    -0.00000000   -0.00000000   -0.00035545

     Total force =     0.013408     Total SCF correction =     0.002154
     SCF correction compared to forces is large: reduce conv_thr to get better values


     Computing stress (Cartesian axis) and pressure

          total   stress  (Ry/bohr**3)                   (kbar)     P=      -18.05
  -0.00016863   0.00000000  -0.00000000          -24.81        0.00       -0.00
   0.00000000  -0.00016863  -0.00000000            0.00      -24.81       -0.00
  -0.00000000  -0.00000000  -0.00003076           -0.00       -0.00       -4.52


     BFGS Geometry Optimization
     Energy error            =      0.0E+00 Ry
     Gradient error          =      5.6E-03 Ry/Bohr
     Cell gradient error     =      2.5E+01 kbar

     number of scf cycles    =   1
     number of bfgs steps    =   0

     enthalpy           new  =   -1490.3496067001 Ry

     new trust radius        =       0.0286214017 bohr
     new conv_thr            =       0.0000010000 Ry

     new unit-cell volume =   1141.79889 a.u.^3 (   169.19714 Ang^3 )
     density =      4.71289 g/cm^3

CELL_PARAMETERS (angstrom)
   3.170879976   0.000000073  -0.000000019
  -1.585439925   2.746062532  -0.000000166
  -0.000000117  -0.000001240  19.431341414

ATOMIC_POSITIONS (angstrom)
Mo           -0.0000003883       -0.0000007770       19.4270327833
Mo            1.5854402150        0.9153537662        6.4725633619
Mo            0.0000004252        1.8307077373       12.9497279406
S             0.0000005716        0.0000000683        4.9190083958
S             1.5854397455        0.9153535802       11.3961251994
S            -0.0000002282        1.8307071115       17.8732801649
S             0.0000000820       -0.0000016796        8.0267042253
S             1.5854397211        0.9153533300       14.5038269722
S            -0.0000005743        1.8307084799        1.5496330831



     Writing config-only to output data dir ./outdir/pwscf.save/
     NEW-OLD atomic charge density approx. for the potential
     extrapolated charge   77.27767, renormalised to   78.00000

     total cpu time spent up to now is       57.3 secs

     Self-consistent Calculation

     iteration #  1     ecut=   123.20 Ry     beta= 0.20
     Davidson diagonalization with overlap
     ethr =  1.00E-06,  avg # of iterations = 10.0

     total cpu time spent up to now is       66.1 secs

     total energy              =   -1490.14333937 Ry
     estimated scf accuracy    <       0.40633640 Ry

     iteration #  2     ecut=   123.20 Ry     beta= 0.20
     Davidson diagonalization with overlap
     ethr =  5.21E-04,  avg # of iterations =  4.3

     total cpu time spent up to now is       70.4 secs

     total energy              =   -1490.35152560 Ry
     estimated scf accuracy    <       0.57869180 Ry

     iteration #  3     ecut=   123.20 Ry     beta= 0.20
     Davidson diagonalization with overlap
     ethr =  5.21E-04,  avg # of iterations =  1.1

     total cpu time spent up to now is       73.4 secs

     total energy              =   -1490.34160592 Ry
     estimated scf accuracy    <       0.18762457 Ry

     iteration #  4     ecut=   123.20 Ry     beta= 0.20
     Davidson diagonalization with overlap
     ethr =  2.41E-04,  avg # of iterations =  2.9

     total cpu time spent up to now is       76.8 secs

     total energy              =   -1490.35057040 Ry
     estimated scf accuracy    <       0.03616812 Ry

     iteration #  5     ecut=   123.20 Ry     beta= 0.20
     Davidson diagonalization with overlap
     ethr =  4.64E-05,  avg # of iterations =  3.4

     total cpu time spent up to now is       80.2 secs

     total energy              =   -1490.35187315 Ry
     estimated scf accuracy    <       0.01808299 Ry

     iteration #  6     ecut=   123.20 Ry     beta= 0.20
     Davidson diagonalization with overlap
     ethr =  2.32E-05,  avg # of iterations =  1.5

     total cpu time spent up to now is       83.3 secs

     total energy              =   -1490.35148177 Ry
     estimated scf accuracy    <       0.01336529 Ry

     iteration #  7     ecut=   123.20 Ry     beta= 0.20
     Davidson diagonalization with overlap
     ethr =  1.71E-05,  avg # of iterations =  1.4

     total cpu time spent up to now is       86.4 secs

     total energy              =   -1490.35111642 Ry
     estimated scf accuracy    <       0.00841229 Ry

     iteration #  8     ecut=   123.20 Ry     beta= 0.20
     Davidson diagonalization with overlap
     ethr =  1.08E-05,  avg # of iterations =  2.0

     total cpu time spent up to now is       89.6 secs

     total energy              =   -1490.35046250 Ry
     estimated scf accuracy    <       0.00436586 Ry

     iteration #  9     ecut=   123.20 Ry     beta= 0.20
     Davidson diagonalization with overlap
     ethr =  5.60E-06,  avg # of iterations =  4.3

     total cpu time spent up to now is       93.3 secs

     total energy              =   -1490.35100730 Ry
     estimated scf accuracy    <       0.00012385 Ry

     iteration # 10     ecut=   123.20 Ry     beta= 0.20
     Davidson diagonalization with overlap
     ethr =  1.59E-07,  avg # of iterations =  5.4

     total cpu time spent up to now is       97.7 secs

     total energy              =   -1490.35107932 Ry
     estimated scf accuracy    <       0.00002691 Ry

     iteration # 11     ecut=   123.20 Ry     beta= 0.20
     Davidson diagonalization with overlap
     ethr =  3.45E-08,  avg # of iterations =  3.2

     total cpu time spent up to now is      101.1 secs

     total energy              =   -1490.35108000 Ry
     estimated scf accuracy    <       0.00005721 Ry

     iteration # 12     ecut=   123.20 Ry     beta= 0.20
     Davidson diagonalization with overlap
     ethr =  3.45E-08,  avg # of iterations =  1.0

     total cpu time spent up to now is      104.1 secs

     total energy              =   -1490.35106759 Ry
     estimated scf accuracy    <       0.00005216 Ry

     iteration # 13     ecut=   123.20 Ry     beta= 0.20
     Davidson diagonalization with overlap
     ethr =  3.45E-08,  avg # of iterations =  2.0

     total cpu time spent up to now is      107.3 secs

     total energy              =   -1490.35106316 Ry
     estimated scf accuracy    <       0.00001153 Ry

     iteration # 14     ecut=   123.20 Ry     beta= 0.20
     Davidson diagonalization with overlap
     ethr =  1.48E-08,  avg # of iterations =  4.0

     total cpu time spent up to now is      111.5 secs

     total energy              =   -1490.35106676 Ry
     estimated scf accuracy    <       0.00002051 Ry

     iteration # 15     ecut=   123.20 Ry     beta= 0.20
     Davidson diagonalization with overlap
     ethr =  1.48E-08,  avg # of iterations =  1.0

     total cpu time spent up to now is      114.5 secs

     total energy              =   -1490.35106593 Ry
     estimated scf accuracy    <       0.00001078 Ry

     iteration # 16     ecut=   123.20 Ry     beta= 0.20
     Davidson diagonalization with overlap
     ethr =  1.38E-08,  avg # of iterations =  1.0

     total cpu time spent up to now is      117.5 secs

     total energy              =   -1490.35106512 Ry
     estimated scf accuracy    <       0.00000579 Ry

     iteration # 17     ecut=   123.20 Ry     beta= 0.20
     Davidson diagonalization with overlap
     ethr =  7.42E-09,  avg # of iterations =  1.8

     total cpu time spent up to now is      120.6 secs

     total energy              =   -1490.35106468 Ry
     estimated scf accuracy    <       0.00000153 Ry

     iteration # 18     ecut=   123.20 Ry     beta= 0.20
     Davidson diagonalization with overlap
     ethr =  1.97E-09,  avg # of iterations =  4.9

     total cpu time spent up to now is      124.6 secs

     End of self-consistent calculation

          k = 0.0000 0.0000 0.0000 ( 26745 PWs)   bands (ev):

   -51.3682 -51.3680 -51.3678 -25.5099 -25.5097 -25.5094 -25.2991 -25.2991
   -25.2989 -25.2988 -25.2987 -25.2986  -4.7422  -4.6459  -4.6458  -3.3901
    -3.3900  -3.2210   3.4841   3.9406   3.9408   6.8352   6.8352   6.8353
     6.8353   6.8404   6.8404   7.2974   7.2977   7.9606   7.9607   7.9707
     7.9707   7.9708   7.9708   8.5983   9.1162   9.9073   9.9077  12.2665
    12.2665  12.3006  12.3006  12.3006  12.3006  12.5399  12.5399

          k = 0.0000 0.0000 0.0410 ( 26674 PWs)   bands (ev):

   -51.3682 -51.3680 -51.3678 -25.5099 -25.5097 -25.5094 -25.2991 -25.2991
   -25.2989 -25.2988 -25.2987 -25.2986  -4.7344  -4.6803  -4.6187  -3.4343
    -3.3318  -3.2355   3.5201   3.7733   4.0779   6.8340   6.8340   6.8370
     6.8370   6.8399   6.8399   7.0555   7.6367   7.9615   7.9616   7.9674
     7.9674   7.9732   7.9732   8.3876   9.2862   9.7538   9.9990  12.2693
    12.2693  12.2883  12.2883  12.3105  12.3105  12.5265  12.5270

          k =-0.0000-0.0000-0.0819 ( 26722 PWs)   bands (ev):

   -51.3682 -51.3680 -51.3678 -25.5099 -25.5097 -25.5094 -25.2991 -25.2991
   -25.2989 -25.2988 -25.2987 -25.2986  -4.7123  -4.7122  -4.6083  -3.4509
    -3.2757  -3.2755   3.6225   3.6226   4.1322   6.8336   6.8336   6.8386
     6.8386   6.8387   6.8388   6.9659   7.9639   7.9639   7.9641   7.9641
     7.9741   7.9741   8.0183   8.0186   9.5402   9.5406  10.0293  12.2769
    12.2769  12.2771  12.2771  12.3144  12.3144  12.5214  12.5214

          k =-0.0000 0.2899 0.0000 ( 26662 PWs)   bands (ev):

   -51.3485 -51.3483 -51.3481 -25.4958 -25.4955 -25.4954 -25.4705 -25.4703
   -25.4701 -25.3441 -25.3438 -25.3437  -3.8971  -3.8126  -3.8103  -3.0384
    -3.0346  -2.9145   4.1838   4.5045   4.5060   5.5803   5.6039   5.6143
     5.8640   5.8716   6.0431   6.9660   6.9677   6.9901   7.6621   7.6840
     7.6865   7.9627   8.0555   8.4876   8.7127   8.8016   8.8378  11.4203
    11.8354  11.8562  11.8841  11.9094  11.9153  12.4783  12.4961

          k =-0.0000 0.2899 0.0410 ( 26634 PWs)   bands (ev):

   -51.3485 -51.3483 -51.3481 -25.4958 -25.4955 -25.4954 -25.4705 -25.4703
   -25.4701 -25.3441 -25.3438 -25.3437  -3.8897  -3.8437  -3.7857  -3.0714
    -2.9914  -2.9256   4.2091   4.3868   4.6031   5.5687   5.6160   5.6269
     5.7826   5.9510   6.0267   6.9619   6.9734   6.9885   7.6635   7.6792
     7.6899   7.8967   8.1925   8.3883   8.7635   8.7800   8.8365  11.4604
    11.6973  11.8404  11.8888  11.9310  12.0412  12.3659  12.5882

          k =-0.0000 0.2899-0.0819 ( 26634 PWs)   bands (ev):

   -51.3485 -51.3483 -51.3481 -25.4958 -25.4955 -25.4954 -25.4705 -25.4703
   -25.4701 -25.3441 -25.3438 -25.3437  -3.8718  -3.8700  -3.7767  -3.0832
    -2.9546  -2.9512   4.2804   4.2805   4.6432   5.5735   5.6197   5.6549
     5.7120   5.9946   6.0110   6.9595   6.9813   6.9830   7.6687   7.6713
     7.6926   7.8945   8.2385   8.3402   8.7490   8.8060   8.8290  11.5560
    11.5673  11.8573  11.8626  11.9404  12.1189  12.3008  12.6509

          k =-0.0000 0.2899-0.0410 ( 26634 PWs)   bands (ev):

   -51.3485 -51.3483 -51.3481 -25.4958 -25.4955 -25.4954 -25.4705 -25.4703
   -25.4701 -25.3441 -25.3438 -25.3437  -3.8908  -3.8414  -3.7872  -3.0691
    -2.9954  -2.9237   4.2088   4.3860   4.6045   5.5876   5.6148   5.6164
     5.7679   5.9442   6.0402   6.9610   6.9754   6.9874   7.6650   7.6763
     7.6914   7.9512   8.0847   8.4635   8.7118   8.8173   8.8293  11.4560
    11.7175  11.8433  11.8823  11.9345  12.0124  12.3876  12.5760

          k = 0.0000-0.5798-0.0000 ( 26560 PWs)   bands (ev):

   -51.3287 -51.3285 -51.3283 -25.6866 -25.6864 -25.6862 -25.4308 -25.4306
   -25.4304 -25.3886 -25.3884 -25.3882  -2.7882  -2.7881  -2.7502  -2.6183
    -2.5750  -2.5750   3.6331   3.6332   3.6913   4.5907   4.6719   4.6721
     5.3257   5.3258   5.4757   6.2771   6.2773   6.3047   7.4127   7.6917
     7.6918   8.4582   8.5290   8.5291   8.8200   8.8201   8.9094  11.7604
    11.7783  11.7785  12.2670  12.2672  12.3277  13.2352  13.4903

          k = 0.0000-0.5798 0.0410 ( 26590 PWs)   bands (ev):

   -51.3287 -51.3285 -51.3283 -25.6866 -25.6864 -25.6862 -25.4308 -25.4306
   -25.4304 -25.3886 -25.3884 -25.3882  -2.7952  -2.7774  -2.7545  -2.6135
    -2.5875  -2.5665   3.6197   3.6520   3.6858   4.5978   4.6442   4.6932
     5.2906   5.3742   5.4616   6.2707   6.2862   6.3022   7.4375   7.5975
     7.7629   8.4646   8.5054   8.5463   8.7926   8.8532   8.9025  11.7619
    11.7720  11.7832  12.2447  12.2933  12.3247  13.2549  13.3977

          k = 0.0000-0.5798-0.0819 ( 26636 PWs)   bands (ev):

   -51.3287 -51.3285 -51.3283 -25.6866 -25.6864 -25.6862 -25.4308 -25.4306
   -25.4304 -25.3886 -25.3884 -25.3882  -2.7977  -2.7651  -2.7650  -2.6017
    -2.6016  -2.5636   3.6148   3.6712   3.6714   4.6171   4.6173   4.7012
     5.2777   5.4238   5.4240   6.2683   6.2953   6.2955   7.5049   7.5050
     7.7896   8.4818   8.4819   8.5526   8.7818   8.8826   8.8828  11.7659
    11.7662  11.7850  12.2358  12.3137  12.3139  13.3121  13.3123

          k = 0.2511 0.1449 0.0000 ( 26662 PWs)   bands (ev):

   -51.3485 -51.3483 -51.3481 -25.4957 -25.4955 -25.4953 -25.4705 -25.4703
   -25.4701 -25.3441 -25.3439 -25.3437  -3.8971  -3.8126  -3.8103  -3.0384
    -3.0346  -2.9145   4.1838   4.5045   4.5060   5.5803   5.6039   5.6143
     5.8640   5.8716   6.0431   6.9660   6.9677   6.9901   7.6621   7.6840
     7.6865   7.9627   8.0555   8.4876   8.7127   8.8016   8.8378  11.4203
    11.8354  11.8563  11.8841  11.9094  11.9153  12.4783  12.4961

          k = 0.2511 0.1449 0.0410 ( 26634 PWs)   bands (ev):

   -51.3485 -51.3483 -51.3481 -25.4957 -25.4955 -25.4953 -25.4705 -25.4703
   -25.4701 -25.3441 -25.3439 -25.3437  -3.8908  -3.8414  -3.7872  -3.0691
    -2.9954  -2.9237   4.2088   4.3860   4.6045   5.5876   5.6148   5.6164
     5.7679   5.9442   6.0402   6.9609   6.9754   6.9874   7.6650   7.6763
     7.6914   7.9512   8.0847   8.4635   8.7118   8.8173   8.8293  11.4560
    11.7175  11.8433  11.8823  11.9345  12.0124  12.3876  12.5760

          k = 0.2511 0.1449-0.0819 ( 26634 PWs)   bands (ev):

   -51.3485 -51.3483 -51.3481 -25.4957 -25.4955 -25.4953 -25.4705 -25.4703
   -25.4701 -25.3441 -25.3439 -25.3437  -3.8718  -3.8700  -3.7767  -3.0832
    -2.9546  -2.9512   4.2804   4.2805   4.6432   5.5735   5.6197   5.6549
     5.7120   5.9946   6.0110   6.9595   6.9812   6.9830   7.6687   7.6713
     7.6926   7.8946   8.2385   8.3402   8.7490   8.8060   8.8290  11.5560
    11.5673  11.8573  11.8626  11.9404  12.1189  12.3008  12.6500

          k = 0.2511 0.1449-0.0410 ( 26634 PWs)   bands (ev):

   -51.3485 -51.3483 -51.3481 -25.4957 -25.4955 -25.4953 -25.4705 -25.4703
   -25.4701 -25.3441 -25.3439 -25.3437  -3.8897  -3.8437  -3.7857  -3.0714
    -2.9914  -2.9255   4.2091   4.3868   4.6031   5.5687   5.6160   5.6269
     5.7826   5.9510   6.0267   6.9619   6.9734   6.9885   7.6635   7.6792
     7.6899   7.8967   8.1925   8.3883   8.7635   8.7800   8.8365  11.4604
    11.6973  11.8404  11.8888  11.9310  12.0412  12.3659  12.5882

          k = 0.2511 0.4348 0.0000 ( 26587 PWs)   bands (ev):

   -51.3287 -51.3285 -51.3283 -25.6155 -25.6152 -25.6151 -25.4625 -25.4623
   -25.4621 -25.4309 -25.4307 -25.4305  -2.8341  -2.7899  -2.7897  -2.5814
    -2.5813  -2.5315   4.2342   4.3418   4.3420   4.5108   4.5113   4.5115
     5.7951   5.8193   5.8193   6.1922   6.1923   6.3863   6.5419   6.5420
     6.5605   7.8435   7.8436   7.8623   8.9592   8.9594   8.9789  11.4923
    11.7687  11.7688  12.2843  12.3498  12.3500  12.6663  12.6667

          k = 0.2511 0.4348 0.0410 ( 26606 PWs)   bands (ev):

   -51.3287 -51.3285 -51.3283 -25.6155 -25.6152 -25.6151 -25.4625 -25.4623
   -25.4621 -25.4309 -25.4307 -25.4305  -2.8308  -2.8066  -2.7753  -2.5972
    -2.5627  -2.5353   4.2432   4.3039   4.3718   4.5082   4.5114   4.5130
     5.7917   5.7935   5.8626   6.1104   6.2727   6.3741   6.5248   6.5575
     6.5620   7.8396   7.8523   7.8567   8.9542   8.9661   8.9773  11.5162
    11.6744  11.8382  12.2875  12.3161  12.4037  12.6027  12.7046

          k = 0.2511 0.4348-0.0819 ( 26582 PWs)   bands (ev):

   -51.3287 -51.3285 -51.3283 -25.6155 -25.6152 -25.6151 -25.4625 -25.4623
   -25.4621 -25.4309 -25.4307 -25.4305  -2.8212  -2.8211  -2.7693  -2.6037
    -2.5464  -2.5463   4.2682   4.2683   4.3835   4.5064   4.5126   4.5127
     5.7872   5.7874   5.8921   6.0670   6.3358   6.3360   6.5175   6.5634
     6.5635   7.8455   7.8456   7.8566   8.9523   8.9726   8.9728  11.5820
    11.5823  11.8634  12.2972  12.2974  12.4481  12.5535  12.7158

          k = 0.2511 0.4348-0.0410 ( 26606 PWs)   bands (ev):

   -51.3287 -51.3285 -51.3283 -25.6155 -25.6152 -25.6151 -25.4625 -25.4623
   -25.4621 -25.4309 -25.4307 -25.4305  -2.8308  -2.8066  -2.7753  -2.5972
    -2.5627  -2.5353   4.2432   4.3039   4.3718   4.5082   4.5114   4.5130
     5.7917   5.7935   5.8626   6.1104   6.2727   6.3741   6.5248   6.5575
     6.5620   7.8396   7.8523   7.8567   8.9542   8.9661   8.9773  11.5162
    11.6744  11.8382  12.2875  12.3161  12.4037  12.6027  12.7047

          k = 0.2511-0.4348-0.0000 ( 26587 PWs)   bands (ev):

   -51.3287 -51.3285 -51.3283 -25.6155 -25.6152 -25.6150 -25.4625 -25.4623
   -25.4621 -25.4309 -25.4307 -25.4305  -2.8341  -2.7899  -2.7897  -2.5814
    -2.5813  -2.5315   4.2342   4.3418   4.3420   4.5108   4.5113   4.5115
     5.7951   5.8193   5.8193   6.1922   6.1923   6.3863   6.5419   6.5420
     6.5605   7.8435   7.8436   7.8623   8.9592   8.9594   8.9789  11.4923
    11.7687  11.7688  12.2844  12.3498  12.3500  12.6665  12.6666

          k = 0.2511-0.4348 0.0410 ( 26606 PWs)   bands (ev):

   -51.3287 -51.3285 -51.3283 -25.6155 -25.6152 -25.6150 -25.4625 -25.4623
   -25.4621 -25.4309 -25.4307 -25.4305  -2.8308  -2.8066  -2.7753  -2.5972
    -2.5627  -2.5353   4.2432   4.3039   4.3718   4.5082   4.5114   4.5130
     5.7917   5.7935   5.8626   6.1104   6.2727   6.3741   6.5248   6.5575
     6.5620   7.8396   7.8523   7.8567   8.9542   8.9661   8.9773  11.5162
    11.6744  11.8382  12.2875  12.3161  12.4037  12.6027  12.7046

          k = 0.2511-0.4348-0.0819 ( 26582 PWs)   bands (ev):

   -51.3287 -51.3285 -51.3283 -25.6155 -25.6152 -25.6150 -25.4625 -25.4623
   -25.4621 -25.4309 -25.4307 -25.4305  -2.8212  -2.8211  -2.7693  -2.6037
    -2.5464  -2.5463   4.2682   4.2683   4.3835   4.5064   4.5126   4.5127
     5.7872   5.7874   5.8921   6.0670   6.3358   6.3360   6.5175   6.5634
     6.5635   7.8455   7.8456   7.8566   8.9523   8.9726   8.9728  11.5820
    11.5823  11.8634  12.2972  12.2974  12.4481  12.5535  12.7155

          k = 0.2511-0.4348-0.0410 ( 26606 PWs)   bands (ev):

   -51.3287 -51.3285 -51.3283 -25.6155 -25.6152 -25.6150 -25.4625 -25.4623
   -25.4621 -25.4309 -25.4307 -25.4305  -2.8308  -2.8066  -2.7753  -2.5972
    -2.5627  -2.5353   4.2432   4.3039   4.3718   4.5082   4.5114   4.5130
     5.7917   5.7935   5.8626   6.1104   6.2727   6.3741   6.5248   6.5575
     6.5620   7.8396   7.8523   7.8567   8.9542   8.9661   8.9773  11.5162
    11.6744  11.8382  12.2875  12.3161  12.4037  12.6027  12.7046

          k = 0.2511-0.1449-0.0000 ( 26662 PWs)   bands (ev):

   -51.3485 -51.3483 -51.3481 -25.4957 -25.4955 -25.4953 -25.4705 -25.4703
   -25.4701 -25.3441 -25.3439 -25.3437  -3.8971  -3.8126  -3.8103  -3.0384
    -3.0346  -2.9145   4.1838   4.5045   4.5060   5.5803   5.6039   5.6143
     5.8640   5.8716   6.0431   6.9660   6.9677   6.9901   7.6621   7.6840
     7.6865   7.9627   8.0555   8.4876   8.7127   8.8016   8.8378  11.4203
    11.8354  11.8563  11.8841  11.9094  11.9153  12.4783  12.4961

          k = 0.2511-0.1449 0.0410 ( 26634 PWs)   bands (ev):

   -51.3485 -51.3483 -51.3481 -25.4957 -25.4955 -25.4953 -25.4705 -25.4703
   -25.4701 -25.3441 -25.3439 -25.3437  -3.8897  -3.8437  -3.7857  -3.0714
    -2.9914  -2.9255   4.2091   4.3868   4.6031   5.5687   5.6160   5.6269
     5.7826   5.9510   6.0267   6.9619   6.9734   6.9885   7.6635   7.6792
     7.6899   7.8967   8.1925   8.3883   8.7635   8.7800   8.8365  11.4604
    11.6973  11.8404  11.8888  11.9310  12.0412  12.3659  12.5882

          k = 0.2511-0.1449-0.0819 ( 26634 PWs)   bands (ev):

   -51.3485 -51.3483 -51.3481 -25.4957 -25.4955 -25.4953 -25.4705 -25.4703
   -25.4701 -25.3441 -25.3439 -25.3437  -3.8718  -3.8700  -3.7767  -3.0832
    -2.9546  -2.9512   4.2804   4.2805   4.6432   5.5735   5.6197   5.6549
     5.7120   5.9946   6.0110   6.9595   6.9812   6.9830   7.6687   7.6713
     7.6926   7.8946   8.2385   8.3402   8.7490   8.8060   8.8290  11.5560
    11.5673  11.8573  11.8626  11.9404  12.1189  12.3008  12.6508

          k = 0.2511-0.1449-0.0410 ( 26634 PWs)   bands (ev):

   -51.3485 -51.3483 -51.3481 -25.4957 -25.4955 -25.4953 -25.4705 -25.4703
   -25.4701 -25.3441 -25.3439 -25.3437  -3.8908  -3.8414  -3.7872  -3.0691
    -2.9954  -2.9237   4.2088   4.3860   4.6045   5.5876   5.6148   5.6164
     5.7679   5.9442   6.0402   6.9609   6.9754   6.9874   7.6650   7.6763
     7.6914   7.9512   8.0847   8.4635   8.7118   8.8173   8.8293  11.4560
    11.7175  11.8433  11.8823  11.9345  12.0124  12.3876  12.5760

          k =-0.5021-0.2899-0.0000 ( 26560 PWs)   bands (ev):

   -51.3287 -51.3285 -51.3283 -25.6866 -25.6864 -25.6862 -25.4308 -25.4306
   -25.4304 -25.3887 -25.3884 -25.3883  -2.7882  -2.7881  -2.7502  -2.6183
    -2.5750  -2.5750   3.6331   3.6332   3.6913   4.5907   4.6719   4.6721
     5.3257   5.3258   5.4757   6.2771   6.2773   6.3047   7.4127   7.6917
     7.6918   8.4582   8.5290   8.5291   8.8200   8.8201   8.9094  11.7604
    11.7783  11.7785  12.2670  12.2672  12.3277  13.2352  13.4904

          k =-0.5021-0.2899 0.0410 ( 26590 PWs)   bands (ev):

   -51.3287 -51.3285 -51.3283 -25.6866 -25.6864 -25.6862 -25.4308 -25.4306
   -25.4304 -25.3887 -25.3884 -25.3883  -2.7952  -2.7774  -2.7545  -2.6135
    -2.5875  -2.5665   3.6197   3.6520   3.6858   4.5978   4.6442   4.6932
     5.2906   5.3742   5.4616   6.2707   6.2862   6.3022   7.4375   7.5975
     7.7629   8.4646   8.5054   8.5463   8.7926   8.8532   8.9025  11.7619
    11.7720  11.7832  12.2447  12.2933  12.3247  13.2549  13.3976

          k =-0.5021-0.2899-0.0819 ( 26636 PWs)   bands (ev):

   -51.3287 -51.3285 -51.3283 -25.6866 -25.6864 -25.6862 -25.4308 -25.4306
   -25.4304 -25.3887 -25.3884 -25.3883  -2.7977  -2.7651  -2.7650  -2.6017
    -2.6016  -2.5636   3.6148   3.6712   3.6714   4.6171   4.6173   4.7012
     5.2777   5.4238   5.4240   6.2683   6.2953   6.2955   7.5049   7.5050
     7.7896   8.4818   8.4819   8.5526   8.7818   8.8826   8.8828  11.7659
    11.7662  11.7850  12.2359  12.3137  12.3139  13.3121  13.3123

          k =-0.5021 0.0000-0.0000 ( 26587 PWs)   bands (ev):

   -51.3287 -51.3285 -51.3283 -25.6154 -25.6152 -25.6150 -25.4625 -25.4623
   -25.4621 -25.4309 -25.4307 -25.4305  -2.8341  -2.7899  -2.7897  -2.5814
    -2.5813  -2.5315   4.2342   4.3418   4.3420   4.5108   4.5113   4.5115
     5.7951   5.8193   5.8194   6.1922   6.1923   6.3863   6.5419   6.5420
     6.5605   7.8435   7.8436   7.8623   8.9592   8.9594   8.9789  11.4923
    11.7687  11.7688  12.2844  12.3498  12.3500  12.6664  12.6665

          k =-0.5021 0.0000 0.0410 ( 26606 PWs)   bands (ev):

   -51.3287 -51.3285 -51.3283 -25.6154 -25.6152 -25.6150 -25.4625 -25.4623
   -25.4621 -25.4309 -25.4307 -25.4305  -2.8308  -2.8066  -2.7753  -2.5972
    -2.5627  -2.5353   4.2432   4.3039   4.3718   4.5082   4.5114   4.5130
     5.7917   5.7935   5.8626   6.1104   6.2727   6.3741   6.5248   6.5575
     6.5620   7.8396   7.8523   7.8567   8.9542   8.9661   8.9773  11.5162
    11.6744  11.8382  12.2875  12.3161  12.4037  12.6027  12.7046

          k =-0.5021 0.0000-0.0819 ( 26582 PWs)   bands (ev):

   -51.3287 -51.3285 -51.3283 -25.6154 -25.6152 -25.6150 -25.4625 -25.4623
   -25.4621 -25.4309 -25.4307 -25.4305  -2.8212  -2.8211  -2.7693  -2.6037
    -2.5464  -2.5463   4.2682   4.2683   4.3835   4.5064   4.5126   4.5127
     5.7872   5.7874   5.8921   6.0670   6.3358   6.3360   6.5175   6.5634
     6.5635   7.8455   7.8456   7.8566   8.9523   8.9726   8.9728  11.5820
    11.5823  11.8634  12.2972  12.2975  12.4481  12.5535  12.7158

          k =-0.5021 0.0000-0.0410 ( 26606 PWs)   bands (ev):

   -51.3287 -51.3285 -51.3283 -25.6154 -25.6152 -25.6150 -25.4625 -25.4623
   -25.4621 -25.4309 -25.4307 -25.4305  -2.8308  -2.8066  -2.7753  -2.5972
    -2.5627  -2.5353   4.2432   4.3039   4.3718   4.5082   4.5114   4.5130
     5.7917   5.7935   5.8626   6.1104   6.2727   6.3741   6.5248   6.5575
     6.5620   7.8396   7.8523   7.8567   8.9542   8.9661   8.9773  11.5162
    11.6744  11.8382  12.2875  12.3161  12.4037  12.6027  12.7046

          k =-0.5021-0.8697-0.0000 ( 26560 PWs)   bands (ev):

   -51.3287 -51.3285 -51.3283 -25.6866 -25.6864 -25.6862 -25.4308 -25.4306
   -25.4304 -25.3887 -25.3884 -25.3883  -2.7882  -2.7881  -2.7502  -2.6183
    -2.5750  -2.5750   3.6331   3.6332   3.6913   4.5907   4.6719   4.6721
     5.3257   5.3258   5.4757   6.2771   6.2773   6.3047   7.4127   7.6917
     7.6918   8.4582   8.5290   8.5291   8.8200   8.8201   8.9094  11.7604
    11.7783  11.7785  12.2670  12.2672  12.3277  13.2352  13.4903

          k =-0.5021-0.8697 0.0410 ( 26590 PWs)   bands (ev):

   -51.3287 -51.3285 -51.3283 -25.6866 -25.6864 -25.6862 -25.4308 -25.4306
   -25.4304 -25.3887 -25.3884 -25.3883  -2.7952  -2.7774  -2.7545  -2.6135
    -2.5875  -2.5665   3.6197   3.6520   3.6858   4.5978   4.6442   4.6932
     5.2906   5.3742   5.4616   6.2707   6.2862   6.3022   7.4375   7.5975
     7.7629   8.4646   8.5054   8.5463   8.7926   8.8532   8.9025  11.7619
    11.7720  11.7832  12.2447  12.2933  12.3247  13.2549  13.3976

          k =-0.5021-0.8697-0.0819 ( 26636 PWs)   bands (ev):

   -51.3287 -51.3285 -51.3283 -25.6866 -25.6864 -25.6862 -25.4308 -25.4306
   -25.4304 -25.3887 -25.3884 -25.3883  -2.7977  -2.7651  -2.7650  -2.6017
    -2.6016  -2.5636   3.6148   3.6712   3.6714   4.6171   4.6173   4.7012
     5.2777   5.4238   5.4240   6.2683   6.2953   6.2955   7.5049   7.5050
     7.7896   8.4818   8.4819   8.5526   8.7818   8.8826   8.8828  11.7659
    11.7662  11.7850  12.2359  12.3137  12.3139  13.3121  13.3123

     the Fermi energy is    10.6272 ev

!    total energy              =   -1490.35106488 Ry
     total all-electron energy =    -29085.341698 Ry
     estimated scf accuracy    <       0.00000030 Ry
     smearing contrib. (-TS)   =      -0.00000000 Ry
     internal energy E=F+TS    =   -1490.35106488 Ry

     The total energy is F=E-TS. E is the sum of the following terms:
     one-electron contribution =    -297.71797060 Ry
     hartree contribution      =     186.32282079 Ry
     xc contribution           =     -89.19810004 Ry
     ewald contribution        =    -330.60124036 Ry
     DFT-D3 Dispersion         =      -0.24908472 Ry
     one-center paw contrib.   =    -958.90748995 Ry

     convergence has been achieved in  18 iterations

     Forces acting on atoms (cartesian axes, Ry/au):

     atom    1 type  1   force =    -0.00000024   -0.00000108   -0.00017517
     atom    2 type  1   force =     0.00000063    0.00000048    0.00011071
     atom    3 type  1   force =     0.00000033   -0.00000014    0.00001390
     atom    4 type  2   force =    -0.00000078    0.00000059   -0.00743666
     atom    5 type  2   force =     0.00000019   -0.00000018   -0.00740783
     atom    6 type  2   force =    -0.00000009    0.00000045   -0.00733550
     atom    7 type  2   force =    -0.00000005    0.00000089    0.00736311
     atom    8 type  2   force =     0.00000022   -0.00000053    0.00737946
     atom    9 type  2   force =    -0.00000020   -0.00000047    0.00748797
     The non-local contrib.  to forces
     atom    1 type  1   force =     0.00000008    0.00000054   -0.00033075
     atom    2 type  1   force =    -0.00000021   -0.00000089   -0.00038669
     atom    3 type  1   force =    -0.00000006   -0.00000063   -0.00039751
     atom    4 type  2   force =    -0.00000069   -0.00000056    0.26385547
     atom    5 type  2   force =    -0.00000083    0.00000083    0.26386342
     atom    6 type  2   force =    -0.00000093    0.00000075    0.26387629
     atom    7 type  2   force =     0.00000044    0.00000119   -0.26308907
     atom    8 type  2   force =    -0.00000107    0.00000094   -0.26309339
     atom    9 type  2   force =     0.00000070    0.00000221   -0.26303749
     The ionic contribution  to forces
     atom    1 type  1   force =    -0.00000112   -0.00000247   -0.00704949
     atom    2 type  1   force =     0.00000015   -0.00000204    0.00179223
     atom    3 type  1   force =    -0.00000406   -0.00000087   -0.00003264
     atom    4 type  2   force =    -0.00000084   -0.00000245  -15.76249815
     atom    5 type  2   force =     0.00000188   -0.00000116  -15.76281416
     atom    6 type  2   force =    -0.00000015    0.00000015  -15.76442433
     atom    7 type  2   force =     0.00000066    0.00000452   15.76577799
     atom    8 type  2   force =     0.00000218    0.00000200   15.76537412
     atom    9 type  2   force =     0.00000129    0.00000233   15.76387444
     The local contribution  to forces
     atom    1 type  1   force =    -0.00000143   -0.00000143    0.00704398
     atom    2 type  1   force =     0.00000208    0.00000456   -0.00111075
     atom    3 type  1   force =     0.00000760   -0.00000224    0.00032139
     atom    4 type  2   force =     0.00000172    0.00000376   15.49337380
     atom    5 type  2   force =     0.00000060   -0.00000321   15.49367577
     atom    6 type  2   force =     0.00000220   -0.00000311   15.49519822
     atom    7 type  2   force =    -0.00000091   -0.00000752  -15.49739565
     atom    8 type  2   force =     0.00000136   -0.00000743  -15.49707264
     atom    9 type  2   force =    -0.00000244   -0.00000933  -15.49540169
     The core correction contribution to forces
     atom    1 type  1   force =    -0.00000002   -0.00000006    0.00001574
     atom    2 type  1   force =     0.00000002    0.00000005    0.00002155
     atom    3 type  1   force =     0.00000004   -0.00000001    0.00001996
     atom    4 type  2   force =     0.00000002    0.00000003   -0.00204269
     atom    5 type  2   force =     0.00000004   -0.00000006   -0.00204324
     atom    6 type  2   force =     0.00000004   -0.00000004   -0.00204492
     atom    7 type  2   force =    -0.00000001   -0.00000005    0.00202950
     atom    8 type  2   force =     0.00000005   -0.00000007    0.00202912
     atom    9 type  2   force =    -0.00000003   -0.00000012    0.00202698
     The Hubbard contrib.    to forces
     atom    1 type  1   force =     0.00000000    0.00000000    0.00000000
     atom    2 type  1   force =     0.00000000    0.00000000    0.00000000
     atom    3 type  1   force =     0.00000000    0.00000000    0.00000000
     atom    4 type  2   force =     0.00000000    0.00000000    0.00000000
     atom    5 type  2   force =     0.00000000    0.00000000    0.00000000
     atom    6 type  2   force =     0.00000000    0.00000000    0.00000000
     atom    7 type  2   force =     0.00000000    0.00000000    0.00000000
     atom    8 type  2   force =     0.00000000    0.00000000    0.00000000
     atom    9 type  2   force =     0.00000000    0.00000000    0.00000000
     The SCF correction term to forces
     atom    1 type  1   force =     0.00000243    0.00000186    0.00015547
     atom    2 type  1   force =    -0.00000123   -0.00000166   -0.00019489
     atom    3 type  1   force =    -0.00000301    0.00000313    0.00011332
     atom    4 type  2   force =    -0.00000081   -0.00000067   -0.00049686
     atom    5 type  2   force =    -0.00000132    0.00000294   -0.00046171
     atom    6 type  2   force =    -0.00000106    0.00000223   -0.00031301
     atom    7 type  2   force =    -0.00000005    0.00000229    0.00039429
     atom    8 type  2   force =    -0.00000211    0.00000354    0.00049639
     atom    9 type  2   force =     0.00000046    0.00000397    0.00037935

     DFT-D3 dispersion contribution to forces:
     atom    1 type  1   force =     0.00000000    0.00000000   -0.00001265
     atom    2 type  1   force =     0.00000000    0.00000000   -0.00001329
     atom    3 type  1   force =     0.00000000    0.00000000   -0.00001317
     atom    4 type  2   force =     0.00000000    0.00000000    0.00036922
     atom    5 type  2   force =    -0.00000000    0.00000000    0.00036955
     atom    6 type  2   force =     0.00000000   -0.00000000    0.00036971
     atom    7 type  2   force =    -0.00000000   -0.00000000   -0.00035650
     atom    8 type  2   force =    -0.00000000   -0.00000000   -0.00035668
     atom    9 type  2   force =    -0.00000000   -0.00000000   -0.00035618

     Total force =     0.018132     Total SCF correction =     0.001086


     Computing stress (Cartesian axis) and pressure

          total   stress  (Ry/bohr**3)                   (kbar)     P=       -8.37
  -0.00008475  -0.00000000   0.00000000          -12.47       -0.00        0.00
  -0.00000000  -0.00008484  -0.00000000           -0.00      -12.48       -0.00
   0.00000000  -0.00000000  -0.00000109            0.00       -0.00       -0.16

     Energy error            =      1.5E-03 Ry
     Gradient error          =      7.5E-03 Ry/Bohr
     Cell gradient error     =      1.2E+01 kbar

     number of scf cycles    =   2
     number of bfgs steps    =   1

     enthalpy           old  =   -1490.3496067001 Ry
     enthalpy           new  =   -1490.3510648776 Ry

     CASE: enthalpy          _new < enthalpy          _old

     new trust radius        =       0.0429155928 bohr
     new conv_thr            =       0.0000000749 Ry

     new unit-cell volume =   1126.96388 a.u.^3 (   166.99882 Ang^3 )
     density =      4.77493 g/cm^3

CELL_PARAMETERS (angstrom)
   3.150759875  -0.000000731   0.000000850
  -1.575380570   2.728624770  -0.000000906
   0.000005169  -0.000003393  19.424700527

ATOMIC_POSITIONS (angstrom)
Mo            0.0000045107       -0.0000040439       19.4202063387
Mo            1.5753825262        0.9095404764        6.4704189940
Mo            0.0000040325        1.8190807568       12.9452719305
S             0.0000012002        0.0000003539        4.9073732487
S             1.5753827171        0.9095390108       11.3823124125
S             0.0000040047        1.8190801811       17.8573548665
S             0.0000022513       -0.0000019291        8.0338445979
S             1.5753835745        0.9095379758       14.5087769152
S            -0.0000010696        1.8190823767        1.5591520331



     Writing config-only to output data dir ./outdir/pwscf.save/
     NEW-OLD atomic charge density approx. for the potential
     extrapolated charge   76.97327, renormalised to   78.00000

     total cpu time spent up to now is      132.3 secs

     Self-consistent Calculation

     iteration #  1     ecut=   123.20 Ry     beta= 0.20
     Davidson diagonalization with overlap
     ethr =  1.00E-06,  avg # of iterations =  9.8

     total cpu time spent up to now is      141.4 secs

     total energy              =   -1489.91538007 Ry
     estimated scf accuracy    <       0.86125388 Ry

     iteration #  2     ecut=   123.20 Ry     beta= 0.20
     Davidson diagonalization with overlap
     ethr =  1.10E-03,  avg # of iterations =  4.3

     total cpu time spent up to now is      145.7 secs

     total energy              =   -1490.35584849 Ry
     estimated scf accuracy    <       1.19368905 Ry

     iteration #  3     ecut=   123.20 Ry     beta= 0.20
     Davidson diagonalization with overlap
     ethr =  1.10E-03,  avg # of iterations =  1.1

     total cpu time spent up to now is      148.7 secs

     total energy              =   -1490.33543328 Ry
     estimated scf accuracy    <       0.39922506 Ry

     iteration #  4     ecut=   123.20 Ry     beta= 0.20
     Davidson diagonalization with overlap
     ethr =  5.12E-04,  avg # of iterations =  2.7

     total cpu time spent up to now is      152.1 secs

     total energy              =   -1490.34902214 Ry
     estimated scf accuracy    <       0.08842333 Ry

     iteration #  5     ecut=   123.20 Ry     beta= 0.20
     Davidson diagonalization with overlap
     ethr =  1.13E-04,  avg # of iterations =  3.2

     total cpu time spent up to now is      155.5 secs

     total energy              =   -1490.35393274 Ry
     estimated scf accuracy    <       0.03255202 Ry

     iteration #  6     ecut=   123.20 Ry     beta= 0.20
     Davidson diagonalization with overlap
     ethr =  4.17E-05,  avg # of iterations =  1.8

     total cpu time spent up to now is      158.6 secs

     total energy              =   -1490.35409479 Ry
     estimated scf accuracy    <       0.02688881 Ry

     iteration #  7     ecut=   123.20 Ry     beta= 0.20
     Davidson diagonalization with overlap
     ethr =  3.45E-05,  avg # of iterations =  1.1

     total cpu time spent up to now is      161.6 secs

     total energy              =   -1490.35385452 Ry
     estimated scf accuracy    <       0.02168163 Ry

     iteration #  8     ecut=   123.20 Ry     beta= 0.20
     Davidson diagonalization with overlap
     ethr =  2.78E-05,  avg # of iterations =  1.3

     total cpu time spent up to now is      164.7 secs

     total energy              =   -1490.35278607 Ry
     estimated scf accuracy    <       0.01709952 Ry

     iteration #  9     ecut=   123.20 Ry     beta= 0.20
     Davidson diagonalization with overlap
     ethr =  2.19E-05,  avg # of iterations =  1.7

     total cpu time spent up to now is      167.9 secs

     total energy              =   -1490.35135227 Ry
     estimated scf accuracy    <       0.00941589 Ry

     iteration # 10     ecut=   123.20 Ry     beta= 0.20
     Davidson diagonalization with overlap
     ethr =  1.21E-05,  avg # of iterations =  3.1

     total cpu time spent up to now is      171.3 secs

     total energy              =   -1490.35233549 Ry
     estimated scf accuracy    <       0.00089655 Ry

     iteration # 11     ecut=   123.20 Ry     beta= 0.20
     Davidson diagonalization with overlap
     ethr =  1.15E-06,  avg # of iterations =  5.1

     total cpu time spent up to now is      175.1 secs

     total energy              =   -1490.35245103 Ry
     estimated scf accuracy    <       0.00115920 Ry

     iteration # 12     ecut=   123.20 Ry     beta= 0.20
     Davidson diagonalization with overlap
     ethr =  1.15E-06,  avg # of iterations =  1.0

     total cpu time spent up to now is      178.1 secs

     total energy              =   -1490.35245580 Ry
     estimated scf accuracy    <       0.00125591 Ry

     iteration # 13     ecut=   123.20 Ry     beta= 0.20
     Davidson diagonalization with overlap
     ethr =  1.15E-06,  avg # of iterations =  1.0

     total cpu time spent up to now is      181.1 secs

     total energy              =   -1490.35244727 Ry
     estimated scf accuracy    <       0.00126328 Ry

     iteration # 14     ecut=   123.20 Ry     beta= 0.20
     Davidson diagonalization with overlap
     ethr =  1.15E-06,  avg # of iterations =  1.0

     total cpu time spent up to now is      184.1 secs

     total energy              =   -1490.35232891 Ry
     estimated scf accuracy    <       0.00120499 Ry

     iteration # 15     ecut=   123.20 Ry     beta= 0.20
     Davidson diagonalization with overlap
     ethr =  1.15E-06,  avg # of iterations =  1.0

     total cpu time spent up to now is      187.1 secs

     total energy              =   -1490.35231374 Ry
     estimated scf accuracy    <       0.00063892 Ry

     iteration # 16     ecut=   123.20 Ry     beta= 0.20
     Davidson diagonalization with overlap
     ethr =  8.19E-07,  avg # of iterations =  2.0

     total cpu time spent up to now is      190.8 secs

     total energy              =   -1490.35216593 Ry
     estimated scf accuracy    <       0.00091647 Ry

     iteration # 17     ecut=   123.20 Ry     beta= 0.20
     Davidson diagonalization with overlap
     ethr =  8.19E-07,  avg # of iterations =  2.0

     total cpu time spent up to now is      194.2 secs

     total energy              =   -1490.35224535 Ry
     estimated scf accuracy    <       0.00005517 Ry

     iteration # 18     ecut=   123.20 Ry     beta= 0.20
     Davidson diagonalization with overlap
     ethr =  7.07E-08,  avg # of iterations =  4.5

     total cpu time spent up to now is      198.3 secs

     total energy              =   -1490.35225531 Ry
     estimated scf accuracy    <       0.00000538 Ry

     iteration # 19     ecut=   123.20 Ry     beta= 0.20
     Davidson diagonalization with overlap
     ethr =  6.90E-09,  avg # of iterations =  2.8

     total cpu time spent up to now is      201.7 secs

     total energy              =   -1490.35225579 Ry
     estimated scf accuracy    <       0.00000132 Ry

     iteration # 20     ecut=   123.20 Ry     beta= 0.20
     Davidson diagonalization with overlap
     ethr =  1.69E-09,  avg # of iterations =  2.9

     total cpu time spent up to now is      205.2 secs

     total energy              =   -1490.35225590 Ry
     estimated scf accuracy    <       0.00000026 Ry

     iteration # 21     ecut=   123.20 Ry     beta= 0.20
     Davidson diagonalization with overlap
     ethr =  3.30E-10,  avg # of iterations =  5.0

[...]
    12.8143  13.0856  13.4997  13.5116  13.5461  13.8326  13.8379

          k = 0.2524 0.4372-0.0871 ( 24510 PWs)   bands (ev):

   -50.1550 -50.1549 -50.1549 -24.4491 -24.4490 -24.4490 -24.2887 -24.2886
   -24.2886 -24.2673 -24.2673 -24.2672  -1.7084  -1.7081  -1.5771  -1.5386
    -1.3977  -1.3976   5.3072   5.3076   5.5240   5.6113   5.6152   5.6153
     6.8296   6.8298   6.9083   7.1436   7.5306   7.5309   7.5871   7.7265
     7.7266   8.9052   8.9054   9.0109  10.1112  10.1518  10.1519  12.6734
    12.6736  13.1308  13.5064  13.5065  13.5694  13.7994  13.8706

          k = 0.2524 0.4372-0.0435 ( 24521 PWs)   bands (ev):

   -50.1550 -50.1549 -50.1549 -24.4491 -24.4490 -24.4490 -24.2887 -24.2886
   -24.2886 -24.2673 -24.2673 -24.2672  -1.7248  -1.6818  -1.6072  -1.5076
    -1.4274  -1.3786   5.2627   5.3722   5.5004   5.6090   5.6154   5.6204
     6.8052   6.8699   6.8716   7.2030   7.4342   7.5862   7.6137   7.7020
     7.7229   8.9095   8.9263   8.9918  10.1145  10.1376  10.1620  12.5754
    12.8143  13.0856  13.5006  13.5116  13.5461  13.8379  13.8987

          k = 0.2524-0.4372-0.0000 ( 24499 PWs)   bands (ev):

   -50.1550 -50.1549 -50.1549 -24.4491 -24.4490 -24.4490 -24.2887 -24.2886
   -24.2886 -24.2673 -24.2673 -24.2672  -1.7304  -1.6472  -1.6470  -1.4654
    -1.4653  -1.3721   5.2469   5.4427   5.4428   5.6063   5.6204   5.6204
     6.8196   6.8198   6.8929   7.3170   7.3173   7.5966   7.6738   7.6740
     7.6931   8.9390   8.9472   8.9474  10.1238  10.1239  10.1656  12.5404
    12.9659  12.9661  13.4975  13.5210  13.5210  13.8887  13.8903

          k = 0.2524-0.4372 0.0435 ( 24521 PWs)   bands (ev):

   -50.1550 -50.1549 -50.1549 -24.4491 -24.4490 -24.4490 -24.2887 -24.2886
   -24.2886 -24.2673 -24.2673 -24.2672  -1.7248  -1.6818  -1.6072  -1.5076
    -1.4274  -1.3787   5.2627   5.3722   5.5004   5.6090   5.6154   5.6204
     6.8052   6.8699   6.8716   7.2030   7.4342   7.5862   7.6137   7.7020
     7.7229   8.9095   8.9263   8.9918  10.1145  10.1376  10.1620  12.5754
    12.8143  13.0856  13.4997  13.5116  13.5461  13.8324  13.8379

          k = 0.2524-0.4372-0.0871 ( 24510 PWs)   bands (ev):

   -50.1550 -50.1549 -50.1549 -24.4491 -24.4490 -24.4490 -24.2887 -24.2886
   -24.2886 -24.2673 -24.2673 -24.2672  -1.7084  -1.7081  -1.5771  -1.5386
    -1.3977  -1.3976   5.3072   5.3076   5.5240   5.6113   5.6152   5.6153
     6.8297   6.8298   6.9083   7.1436   7.5306   7.5309   7.5871   7.7265
     7.7266   8.9052   8.9054   9.0109  10.1112  10.1518  10.1519  12.6734
    12.6736  13.1308  13.5064  13.5070  13.5694  13.7994  13.8706

          k = 0.2524-0.4372-0.0435 ( 24521 PWs)   bands (ev):

   -50.1550 -50.1549 -50.1549 -24.4491 -24.4490 -24.4490 -24.2887 -24.2886
   -24.2886 -24.2673 -24.2673 -24.2672  -1.7248  -1.6818  -1.6072  -1.5076
    -1.4274  -1.3787   5.2627   5.3722   5.5004   5.6090   5.6154   5.6204
     6.8052   6.8699   6.8716   7.2030   7.4342   7.5862   7.6137   7.7020
     7.7229   8.9095   8.9263   8.9918  10.1145  10.1376  10.1620  12.5754
    12.8143  13.0856  13.4997  13.5116  13.5461  13.8325  13.8379

          k = 0.2524-0.1457-0.0000 ( 24586 PWs)   bands (ev):

   -50.1761 -50.1761 -50.1760 -24.3235 -24.3235 -24.3234 -24.3091 -24.3090
   -24.3089 -24.1641 -24.1641 -24.1640  -2.8634  -2.6846  -2.6786  -1.9881
    -1.9788  -1.7274   5.1021   5.6316   5.6360   6.6135   6.6679   6.7514
     7.0449   7.0839   7.2486   8.1339   8.1387   8.1960   8.8510   8.9067
     8.9139   8.9698   9.1593   9.6861   9.8593   9.9127   9.9817  12.5007
    12.9227  13.0426  13.0818  13.0972  13.0980  13.7361  13.7595

          k = 0.2524-0.1457 0.0435 ( 24580 PWs)   bands (ev):

   -50.1761 -50.1761 -50.1760 -24.3235 -24.3235 -24.3234 -24.3091 -24.3090
   -24.3089 -24.1641 -24.1641 -24.1640  -2.8494  -2.7562  -2.6117  -2.0718
    -1.8825  -1.7492   5.1418   5.4270   5.8260   6.6077   6.6344   6.7758
     6.9779   7.1659   7.2205   8.1245   8.1521   8.1919   8.8544   8.8960
     8.9043   8.9213   9.3323   9.5353   9.8935   9.9357   9.9679  12.5539
    12.8509  12.9326  13.0372  13.1337  13.2928  13.5959  13.8635

          k = 0.2524-0.1457-0.0871 ( 24588 PWs)   bands (ev):

   -50.1761 -50.1761 -50.1760 -24.3235 -24.3235 -24.3234 -24.3091 -24.3090
   -24.3089 -24.1641 -24.1641 -24.1640  -2.8145  -2.8106  -2.5834  -2.1054
    -1.8071  -1.7998   5.2531   5.2545   5.9184   6.5789   6.6676   6.7679
     6.8985   7.1932   7.2404   8.1184   8.1722   8.1776   8.8680   8.8759
     8.9280   8.9280   9.3317   9.5195   9.8661   9.9498   9.9748  12.6766
    12.6953  12.9674  12.9800  13.1580  13.3958  13.5030  13.9358

          k = 0.2524-0.1457-0.0435 ( 24580 PWs)   bands (ev):

   -50.1761 -50.1761 -50.1760 -24.3235 -24.3235 -24.3234 -24.3091 -24.3090
   -24.3089 -24.1641 -24.1641 -24.1640  -2.8514  -2.7509  -2.6163  -2.0653
    -1.8918  -1.7452   5.1404   5.4259   5.8310   6.5962   6.7099   6.7272
     6.9254   7.1563   7.2628   8.1218   8.1580   8.1886   8.8591   8.8874
     8.9254   9.0196   9.1245   9.6845   9.8239   9.9308   9.9864  12.5483
    12.8888  12.9394  13.0208  13.1441  13.2333  13.6338  13.8513

          k =-0.5048-0.2914 0.0000 ( 24476 PWs)   bands (ev):

   -50.1550 -50.1549 -50.1549 -24.5238 -24.5238 -24.5237 -24.2673 -24.2672
   -24.2671 -24.2109 -24.2109 -24.2108  -1.6647  -1.6645  -1.5686  -1.5412
    -1.4344  -1.4343   4.6737   4.6739   4.7920   5.5842   5.7179   5.7182
     6.4192   6.4194   6.6668   7.4332   7.4334   7.5031   8.3601   8.8225
     8.8228   9.5795   9.7511   9.7513   9.9359   9.9360  10.0603  12.9653
    13.0015  13.0016  13.4519  13.4520  13.5392  14.3470  14.7001

          k =-0.5048-0.2914 0.0435 ( 24500 PWs)   bands (ev):

   -50.1550 -50.1549 -50.1549 -24.5239 -24.5238 -24.5237 -24.2673 -24.2672
   -24.2671 -24.2109 -24.2109 -24.2108  -1.6766  -1.6454  -1.5910  -1.5178
    -1.4572  -1.4196   4.6469   4.7116   4.7808   5.5959   5.6719   5.7543
     6.3635   6.4963   6.6418   7.4174   7.4557   7.4966   8.4025   8.6683
     8.9410   9.5949   9.6940   9.7932   9.8932   9.9839  10.0510  12.9681
    12.9880  13.0127  13.4098  13.4982  13.5386  14.3707  14.5638

          k =-0.5048-0.2914-0.0871 ( 24524 PWs)   bands (ev):

   -50.1550 -50.1549 -50.1549 -24.5239 -24.5238 -24.5237 -24.2673 -24.2672
   -24.2671 -24.2109 -24.2109 -24.2108  -1.6807  -1.6203  -1.6201  -1.4861
    -1.4860  -1.4146   4.6372   4.7508   4.7509   5.6276   5.6279   5.7684
     6.3428   6.5774   6.5777   7.4117   7.4789   7.4790   8.5158   8.5161
     8.9864   9.6367   9.6369   9.8086   9.8751  10.0243  10.0244  12.9760
    12.9761  13.0171  13.3929  13.5286  13.5287  14.4444  14.4445

          k =-0.5048-0.0000 0.0000 ( 24499 PWs)   bands (ev):

   -50.1550 -50.1549 -50.1549 -24.4491 -24.4490 -24.4490 -24.2887 -24.2886
   -24.2886 -24.2673 -24.2673 -24.2672  -1.7304  -1.6472  -1.6470  -1.4654
    -1.4652  -1.3721   5.2469   5.4427   5.4428   5.6063   5.6204   5.6204
     6.8196   6.8198   6.8929   7.3170   7.3173   7.5966   7.6738   7.6740
     7.6931   8.9390   8.9472   8.9474  10.1238  10.1239  10.1656  12.5404
    12.9659  12.9661  13.4959  13.5209  13.5210  13.8164  13.8902

          k =-0.5048-0.0000 0.0435 ( 24521 PWs)   bands (ev):

   -50.1550 -50.1549 -50.1549 -24.4491 -24.4490 -24.4490 -24.2887 -24.2886
   -24.2886 -24.2673 -24.2673 -24.2672  -1.7248  -1.6818  -1.6072  -1.5076
    -1.4274  -1.3786   5.2627   5.3722   5.5004   5.6090   5.6154   5.6204
     6.8052   6.8699   6.8716   7.2030   7.4342   7.5862   7.6137   7.7020
     7.7229   8.9095   8.9263   8.9918  10.1145  10.1376  10.1620  12.5754
    12.8143  13.0856  13.4997  13.5116  13.5461  13.8326  13.8379

          k =-0.5048-0.0000-0.0871 ( 24510 PWs)   bands (ev):

   -50.1550 -50.1549 -50.1549 -24.4491 -24.4490 -24.4490 -24.2887 -24.2886
   -24.2886 -24.2673 -24.2673 -24.2672  -1.7084  -1.7081  -1.5771  -1.5386
    -1.3976  -1.3976   5.3072   5.3076   5.5240   5.6113   5.6152   5.6153
     6.8296   6.8298   6.9083   7.1436   7.5306   7.5309   7.5871   7.7265
     7.7266   8.9052   8.9054   9.0109  10.1112  10.1518  10.1519  12.6734
    12.6736  13.1308  13.5064  13.5072  13.5694  13.7994  13.8707

          k =-0.5048-0.0000-0.0435 ( 24521 PWs)   bands (ev):

   -50.1550 -50.1549 -50.1549 -24.4491 -24.4490 -24.4490 -24.2887 -24.2886
   -24.2886 -24.2673 -24.2673 -24.2672  -1.7248  -1.6818  -1.6072  -1.5076
    -1.4274  -1.3786   5.2627   5.3722   5.5004   5.6090   5.6154   5.6204
     6.8052   6.8699   6.8716   7.2030   7.4342   7.5862   7.6137   7.7020
     7.7229   8.9095   8.9263   8.9918  10.1145  10.1376  10.1620  12.5754
    12.8143  13.0856  13.4997  13.5116  13.5461  13.8324  13.8379

          k =-0.5048-0.8743 0.0000 ( 24476 PWs)   bands (ev):

   -50.1550 -50.1549 -50.1549 -24.5239 -24.5238 -24.5237 -24.2673 -24.2672
   -24.2671 -24.2109 -24.2109 -24.2108  -1.6647  -1.6645  -1.5686  -1.5412
    -1.4344  -1.4343   4.6737   4.6739   4.7920   5.5842   5.7179   5.7182
     6.4192   6.4194   6.6668   7.4332   7.4334   7.5031   8.3601   8.8224
     8.8228   9.5795   9.7511   9.7513   9.9359   9.9360  10.0603  12.9653
    13.0015  13.0016  13.4519  13.4520  13.5392  14.3470  14.7002

          k =-0.5048-0.8743 0.0435 ( 24500 PWs)   bands (ev):

   -50.1550 -50.1549 -50.1549 -24.5239 -24.5238 -24.5237 -24.2673 -24.2672
   -24.2671 -24.2109 -24.2109 -24.2108  -1.6766  -1.6454  -1.5910  -1.5178
    -1.4572  -1.4196   4.6469   4.7116   4.7807   5.5959   5.6719   5.7543
     6.3635   6.4963   6.6418   7.4174   7.4557   7.4966   8.4025   8.6683
     8.9409   9.5949   9.6940   9.7932   9.8932   9.9839  10.0510  12.9681
    12.9880  13.0127  13.4098  13.4982  13.5385  14.3708  14.5638

          k =-0.5048-0.8743-0.0871 ( 24524 PWs)   bands (ev):

   -50.1550 -50.1549 -50.1549 -24.5239 -24.5238 -24.5237 -24.2673 -24.2672
   -24.2671 -24.2109 -24.2109 -24.2108  -1.6807  -1.6203  -1.6201  -1.4861
    -1.4860  -1.4146   4.6372   4.7508   4.7509   5.6276   5.6279   5.7684
     6.3428   6.5774   6.5777   7.4117   7.4789   7.4790   8.5158   8.5162
     8.9863   9.6367   9.6370   9.8086   9.8751  10.0243  10.0244  12.9760
    12.9761  13.0171  13.3929  13.5286  13.5287  14.4444  14.4446

     the Fermi energy is    11.9172 ev

!    total energy              =   -1490.35703242 Ry
     total all-electron energy =    -29085.347666 Ry
     estimated scf accuracy    <          7.4E-09 Ry
     smearing contrib. (-TS)   =      -0.00000000 Ry
     internal energy E=F+TS    =   -1490.35703242 Ry

     The total energy is F=E-TS. E is the sum of the following terms:
     one-electron contribution =    -234.18621518 Ry
     hartree contribution      =     157.86218186 Ry
     xc contribution           =     -89.26809099 Ry
     ewald contribution        =    -365.58862643 Ry
     DFT-D3 Dispersion         =      -0.26608079 Ry
     one-center paw contrib.   =    -958.91020090 Ry

     convergence has been achieved in  14 iterations

     Forces acting on atoms (cartesian axes, Ry/au):

     atom    1 type  1   force =    -0.00000018    0.00000016    0.00000559
     atom    2 type  1   force =    -0.00000079   -0.00000015    0.00004040
     atom    3 type  1   force =    -0.00000013    0.00000036    0.00000815
     atom    4 type  2   force =     0.00000019   -0.00000001    0.00012305
     atom    5 type  2   force =     0.00000002    0.00000021    0.00009077
     atom    6 type  2   force =    -0.00000026   -0.00000034    0.00006542
     atom    7 type  2   force =     0.00000080   -0.00000023   -0.00008522
     atom    8 type  2   force =     0.00000008   -0.00000015   -0.00011670
     atom    9 type  2   force =     0.00000025    0.00000016   -0.00013145
     The non-local contrib.  to forces
     atom    1 type  1   force =     0.00000064   -0.00000036   -0.00146386
     atom    2 type  1   force =     0.00000095   -0.00000039   -0.00145475
     atom    3 type  1   force =     0.00000052   -0.00000032   -0.00146701
     atom    4 type  2   force =    -0.00000038    0.00000061    0.26484306
     atom    5 type  2   force =    -0.00000027    0.00000028    0.26484401
     atom    6 type  2   force =    -0.00000028   -0.00000024    0.26484050
     atom    7 type  2   force =     0.00000065    0.00000042   -0.26176231
     atom    8 type  2   force =     0.00000032    0.00000016   -0.26176675
     atom    9 type  2   force =     0.00000013    0.00000058   -0.26175412
     The ionic contribution  to forces
     atom    1 type  1   force =    -0.00000061    0.00001726   -0.02028086
     atom    2 type  1   force =    -0.00000122    0.00001607    0.02070320
     atom    3 type  1   force =    -0.00000083    0.00001640    0.00071282
     atom    4 type  2   force =     0.00001660   -0.00000617  -13.90249869
     atom    5 type  2   force =     0.00001471   -0.00000387  -13.91073024
     atom    6 type  2   force =     0.00001441   -0.00000743  -13.92014602
     atom    7 type  2   force =    -0.00001364   -0.00001126   13.91953495
     atom    8 type  2   force =    -0.00001496   -0.00001139   13.91062382
     atom    9 type  2   force =    -0.00001446   -0.00000961   13.90208102
     The local contribution  to forces
     atom    1 type  1   force =     0.00000160   -0.00001567    0.02166777
     atom    2 type  1   force =    -0.00000248   -0.00001396   -0.01913681
     atom    3 type  1   force =     0.00000138   -0.00001298    0.00064787
     atom    4 type  2   force =    -0.00001552    0.00000528   13.64003273
     atom    5 type  2   force =    -0.00001431    0.00000365   13.64812051
     atom    6 type  2   force =    -0.00001478    0.00000766   13.65749862
     atom    7 type  2   force =     0.00001412    0.00001011  -13.65994111
     atom    8 type  2   force =     0.00001464    0.00001092  -13.65114101
     atom    9 type  2   force =     0.00001461    0.00000930  -13.64265013
     The core correction contribution to forces
     atom    1 type  1   force =    -0.00000000    0.00000004    0.00006875
     atom    2 type  1   force =    -0.00000005    0.00000004    0.00006860
     atom    3 type  1   force =    -0.00000000    0.00000005    0.00006845
     atom    4 type  2   force =     0.00000000   -0.00000002   -0.00206266
     atom    5 type  2   force =    -0.00000000   -0.00000001   -0.00206325
     atom    6 type  2   force =    -0.00000001    0.00000001   -0.00206320
     atom    7 type  2   force =    -0.00000001   -0.00000001    0.00200174
     atom    8 type  2   force =    -0.00000001    0.00000000    0.00200139
     atom    9 type  2   force =    -0.00000001   -0.00000000    0.00200085
     The Hubbard contrib.    to forces
     atom    1 type  1   force =     0.00000000    0.00000000    0.00000000
     atom    2 type  1   force =     0.00000000    0.00000000    0.00000000
     atom    3 type  1   force =     0.00000000    0.00000000    0.00000000
     atom    4 type  2   force =     0.00000000    0.00000000    0.00000000
     atom    5 type  2   force =     0.00000000    0.00000000    0.00000000
     atom    6 type  2   force =     0.00000000    0.00000000    0.00000000
     atom    7 type  2   force =     0.00000000    0.00000000    0.00000000
     atom    8 type  2   force =     0.00000000    0.00000000    0.00000000
     atom    9 type  2   force =     0.00000000    0.00000000    0.00000000
     The SCF correction term to forces
     atom    1 type  1   force =    -0.00000178   -0.00000101    0.00004596
     atom    2 type  1   force =     0.00000202   -0.00000182   -0.00010244
     atom    3 type  1   force =    -0.00000119   -0.00000267    0.00008083
     atom    4 type  2   force =    -0.00000049    0.00000040   -0.00005479
     atom    5 type  2   force =    -0.00000009    0.00000025    0.00005494
     atom    6 type  2   force =     0.00000040   -0.00000024    0.00007031
     atom    7 type  2   force =    -0.00000030    0.00000061   -0.00009015
     atom    8 type  2   force =     0.00000010    0.00000025   -0.00000619
     atom    9 type  2   force =    -0.00000001   -0.00000002    0.00001739

     DFT-D3 dispersion contribution to forces:
     atom    1 type  1   force =    -0.00000000   -0.00000000   -0.00003288
     atom    2 type  1   force =    -0.00000000   -0.00000000   -0.00003809
     atom    3 type  1   force =    -0.00000000   -0.00000000   -0.00003551
     atom    4 type  2   force =     0.00000000    0.00000000   -0.00013730
     atom    5 type  2   force =    -0.00000000    0.00000000   -0.00013590
     atom    6 type  2   force =     0.00000000    0.00000000   -0.00013548
     atom    7 type  2   force =     0.00000000   -0.00000000    0.00017098
     atom    8 type  2   force =     0.00000000    0.00000000    0.00017133
     atom    9 type  2   force =    -0.00000000    0.00000000    0.00017284

     Total force =     0.000260     Total SCF correction =     0.000196
     SCF correction compared to forces is large: reduce conv_thr to get better values


     Computing stress (Cartesian axis) and pressure

          total   stress  (Ry/bohr**3)                   (kbar)     P=       -0.29
  -0.00000140   0.00000000   0.00000000           -0.21        0.00        0.00
   0.00000000  -0.00000143  -0.00000000            0.00       -0.21       -0.00
   0.00000000  -0.00000000  -0.00000303            0.00       -0.00       -0.45


     Writing all to output data dir ./outdir/pwscf.save/
 
     init_run     :      3.71s CPU      3.82s WALL (       2 calls)
     electrons    :   1064.08s CPU   1077.60s WALL (      15 calls)
     update_pot   :      8.09s CPU      8.15s WALL (      13 calls)
     forces       :     12.89s CPU     13.02s WALL (      15 calls)
     force_dftd3  :      1.90s CPU      1.91s WALL (      15 calls)
     stress       :     86.69s CPU     87.75s WALL (      15 calls)
     stres_dftd3  :      1.90s CPU      1.91s WALL (      15 calls)

     Called by init_run:
     wfcinit      :      2.30s CPU      2.34s WALL (       2 calls)
     potinit      :      0.40s CPU      0.42s WALL (       2 calls)
     hinit0       :      0.69s CPU      0.71s WALL (       2 calls)

     Called by electrons:
     c_bands      :    868.46s CPU    878.89s WALL (     290 calls)
     sum_band     :    152.74s CPU    154.84s WALL (     290 calls)
     v_of_rho     :      4.64s CPU      4.68s WALL (     303 calls)
     newd         :     21.45s CPU     21.56s WALL (     303 calls)
     PAW_pot      :     16.39s CPU     16.49s WALL (     316 calls)
     mix_rho      :      0.85s CPU      0.87s WALL (     290 calls)
     energy_dftd3 :      1.32s CPU      1.33s WALL (      15 calls)

     Called by c_bands:
     init_us_2    :     12.93s CPU     13.50s WALL (   22500 calls)
     init_us_2:cp :     12.82s CPU     13.44s WALL (   22500 calls)
     cegterg      :    808.26s CPU    817.63s WALL (   10443 calls)

     Called by *egterg:
     cdiaghg      :     85.63s CPU     86.19s WALL (   41021 calls)
     h_psi        :    627.62s CPU    635.75s WALL (   41636 calls)
     s_psi        :     20.45s CPU     20.69s WALL (   41636 calls)
     g_psi        :      1.24s CPU      1.25s WALL (   31121 calls)

     Called by h_psi:
     h_psi:calbec :     31.82s CPU     32.17s WALL (   41636 calls)
     vloc_psi     :    568.35s CPU    575.88s WALL (   41636 calls)
     add_vuspsi   :     24.29s CPU     24.55s WALL (   41636 calls)

     General routines
     calbec       :     58.39s CPU     59.04s WALL (   55244 calls)
     fft          :      4.41s CPU      4.46s WALL (    4299 calls)
     ffts         :      0.23s CPU      0.23s WALL (     593 calls)
     fftw         :    615.74s CPU    623.94s WALL ( 2915034 calls)
     interpolate  :      0.42s CPU      0.42s WALL (     303 calls)
 
     Parallel routines
 
     PWSCF        :  19m38.69s CPU  19m55.00s WALL

 
   This run was terminated on:  14:23: 2  26Jul2023            

=------------------------------------------------------------------------------=
   JOB DONE.
=------------------------------------------------------------------------------=
