
     Program PWSCF v.7.3 starts on  5Apr2024 at 20:12:26 

     This program is part of the open-source Quantum ESPRESSO suite
     for quantum simulation of materials; please cite
         "P. Giannozzi et al., J. Phys.:Condens. Matter 21 395502 (2009);
         "P. Giannozzi et al., J. Phys.:Condens. Matter 29 465901 (2017);
         "P. Giannozzi et al., J. Chem. Phys. 152 154105 (2020);
          URL http://www.quantum-espresso.org", 
     in publications or presentations arising from this work. More details at
     http://www.quantum-espresso.org/quote

     Parallel version (MPI & OpenMP), running on      36 processor cores
     Number of MPI processes:                36
     Threads/MPI process:                     1

     MPI processes distributed on     1 nodes
     560610 MiB available memory on the printing compute node when the environment starts
 
     Waiting for input...
     Reading input from standard input
Warning: card &CELL ignored
Warning: card / ignored

     Current dimensions of program PWSCF are:
     Max number of different atomic species (ntypx) = 10
     Max number of k-points (npk) =  40000
     Max angular momentum in pseudopotentials (lmaxx) =  4
     file Mo.pbe-spn-kjpaw_psl.1.0.0.UPF: wavefunction(s)  4S 4D renormalized
     file S.pbe-n-kjpaw_psl.1.0.0.UPF: wavefunction(s)  3S 3P renormalized
     file Pd.pbe-spn-kjpaw_psl.1.0.0.UPF: wavefunction(s)  4S 5S 4D renormalized
     file Pt.pbe-spfn-kjpaw_psl.1.0.0.UPF: wavefunction(s)  5P 4F renormalized
 
     R & G space division:  proc/nbgrp/npool/nimage =      36
     Subspace diagonalization in iterative solution of the eigenvalue problem:
     one sub-group per band group will be used
     scalapack distributed-memory algorithm (size of sub-group:  6*  6 procs)

 
     Parallelization info
     --------------------
     sticks:   dense  smooth     PW     G-vecs:    dense   smooth      PW
     Min         585     334     89               198743    85850   11735
     Max         586     335     90               198750    85861   11748
     Sum       21073   12049   3205              7154885  3090769  422587
 
     Using Slab Decomposition
 


     bravais-lattice index     =            0
     lattice parameter (alat)  =      23.8199  a.u.
     unit-cell volume          =   33861.0370 (a.u.)^3
     number of atoms/cell      =          195
     number of atomic types    =            4
     number of electrons       =      1732.00
     number of Kohn-Sham states=         1039
     kinetic-energy cutoff     =      77.0000  Ry
     charge density cutoff     =     539.0000  Ry
     scf convergence threshold =      1.0E-06
     mixing beta               =       0.2000
     number of iterations used =            8  plain     mixing
     energy convergence thresh.=      1.0E-04
     force convergence thresh. =      1.0E-03
     Exchange-correlation= SLA  PW   PBX  PBC
                           (   1   4   3   4   0   0   0)
     nstep                     =         1000


     Effective Screening Medium Method
     =================================
     Boundary Conditions: Vacuum-Slab-Vacuum
     total charge in unit cell        =   0.0000
     grid points for fit at edges     =        4 
 

     celldm(1)=  23.819920  celldm(2)=   0.000000  celldm(3)=   0.000000
     celldm(4)=   0.000000  celldm(5)=   0.000000  celldm(6)=   0.000000

     crystal axes: (cart. coord. in units of alat)
               a(1) = (   1.000000   0.000000   0.000000 )  
               a(2) = (  -0.499999   0.866026   0.000000 )  
               a(3) = (   0.000000   0.000000   2.893000 )  

     reciprocal axes: (cart. coord. in units 2 pi/alat)
               b(1) = (  1.000000  0.577349  0.000000 )  
               b(2) = (  0.000000  1.154700  0.000000 )  
               b(3) = (  0.000000  0.000000  0.345662 )  


     PseudoPot. # 1 for Mo read from file:
     ./pseudo/Mo.pbe-spn-kjpaw_psl.1.0.0.UPF
     MD5 check sum: 317bf72632116215fd98f72de1686f13
     Pseudo is Projector augmented-wave + core cor, Zval = 14.0
     Generated using 'atomic' code by A. Dal Corso  v.7.2
     Shape of augmentation charge: PSQ
     Using radial grid of 1229 points,  6 beta functions with: 
                l(1) =   0
                l(2) =   0
                l(3) =   1
                l(4) =   1
                l(5) =   2
                l(6) =   2
     Q(r) pseudized with 0 coefficients 


     PseudoPot. # 2 for S  read from file:
     ./pseudo/S.pbe-n-kjpaw_psl.1.0.0.UPF
     MD5 check sum: 8b7b5302570d38d5e87fed6a1065abda
     Pseudo is Projector augmented-wave + core cor, Zval =  6.0
     Generated using 'atomic' code by A. Dal Corso  v.7.2
     Shape of augmentation charge: PSQ
     Using radial grid of 1151 points,  6 beta functions with: 
                l(1) =   0
                l(2) =   0
                l(3) =   1
                l(4) =   1
                l(5) =   2
                l(6) =   2
     Q(r) pseudized with 0 coefficients 


     PseudoPot. # 3 for Pd read from file:
     ./pseudo/Pd.pbe-spn-kjpaw_psl.1.0.0.UPF
     MD5 check sum: a60571a671f2502b8a6a4569d20a6edb
     Pseudo is Projector augmented-wave + core cor, Zval = 18.0
     Generated using 'atomic' code by A. Dal Corso  v.7.2
     Shape of augmentation charge: PSQ
     Using radial grid of 1235 points,  6 beta functions with: 
                l(1) =   0
                l(2) =   0
                l(3) =   1
                l(4) =   1
                l(5) =   2
                l(6) =   2
     Q(r) pseudized with 0 coefficients 


     PseudoPot. # 4 for Pt read from file:
     ./pseudo/Pt.pbe-spfn-kjpaw_psl.1.0.0.UPF
     MD5 check sum: 620096ebf4e6ebacc94de60fd67efcb5
     Pseudo is Projector augmented-wave + core cor, Zval = 32.0
     Generated using 'atomic' code by A. Dal Corso  v.7.2
     Shape of augmentation charge: PSQ
     Using radial grid of 1277 points,  8 beta functions with: 
                l(1) =   0
                l(2) =   0
                l(3) =   1
                l(4) =   1
                l(5) =   2
                l(6) =   2
                l(7) =   3
                l(8) =   3
     Q(r) pseudized with 0 coefficients 


     atomic species   valence    mass     pseudopotential
     Mo               14.00    95.95000     Mo( 1.00)
     S                 6.00    32.06000     S ( 1.00)
     Pd               18.00   106.42000     Pd( 1.00)
     Pt               32.00   195.08400     Pt( 1.00)

     No symmetry found



   Cartesian axes

     site n.     atom                  positions (alat units)
         1        Mo     tau(   1) = (   0.0000010   0.1443372  -0.7272732  )
         2        Mo     tau(   2) = (   0.1249995   0.0721706  -0.2424038  )
         3        S      tau(   3) = (   0.0000015   0.1443386  -0.3667807  )
         4        S      tau(   4) = (   0.1250010   0.0721682  -0.6030489  )
         5        S      tau(   5) = (   0.1250010   0.0721683  -0.8514963  )
         6        S      tau(   6) = (   0.0000015   0.1443389  -0.1180260  )
         7        Mo     tau(   7) = (   0.0000222   0.1444187   0.2425595  )
         8        Mo     tau(   8) = (   0.1245966   0.0727010   0.7278826  )
         9        S      tau(   9) = (   0.0000166   0.1448419   0.6020343  )
        10        S      tau(  10) = (   0.1250561   0.0722903   0.3669179  )
        11        S      tau(  11) = (   0.1250140   0.0722444   0.1181576  )
        12        S      tau(  12) = (  -0.0013476   0.1442175   0.8515296  )
        13        Mo     tau(  13) = (  -0.1249989   0.3608437  -0.7272732  )
        14        Mo     tau(  14) = (   0.0000030   0.2886752  -0.2424042  )
        15        S      tau(  15) = (  -0.1249977   0.3608450  -0.3667802  )
        16        S      tau(  16) = (   0.0000012   0.2886747  -0.6030489  )
        17        S      tau(  17) = (   0.0000012   0.2886748  -0.8514963  )
        18        S      tau(  18) = (  -0.1249977   0.3608454  -0.1180274  )
        19        Mo     tau(  19) = (  -0.1249777   0.3609089   0.2425603  )
        20        Mo     tau(  20) = (  -0.0029637   0.2882853   0.7270120  )
        21        S      tau(  21) = (  -0.1256983   0.3625185   0.6019747  )
        22        S      tau(  22) = (   0.0000591   0.2887797   0.3669668  )
        23        S      tau(  23) = (   0.0000075   0.2887346   0.1181682  )
        24        S      tau(  24) = (  -0.1270233   0.3617098   0.8514678  )
        25        Mo     tau(  25) = (  -0.2499987   0.5773502  -0.7272732  )
        26        Mo     tau(  26) = (  -0.1249977   0.5051839  -0.2424055  )
        27        S      tau(  27) = (  -0.2499981   0.5773518  -0.3667809  )
        28        S      tau(  28) = (  -0.1249986   0.5051812  -0.6030489  )
        29        S      tau(  29) = (  -0.1249986   0.5051813  -0.8514963  )
        30        S      tau(  30) = (  -0.2499979   0.5773512  -0.1180266  )
        31        Mo     tau(  31) = (  -0.2499821   0.5774144   0.2425369  )
        32        Mo     tau(  32) = (  -0.1258229   0.5064885   0.7278520  )
        33        S      tau(  33) = (  -0.2493952   0.5788088   0.6023234  )
        34        S      tau(  34) = (  -0.1249462   0.5052707   0.3669162  )
        35        S      tau(  35) = (  -0.1249880   0.5052329   0.1181602  )
        36        S      tau(  36) = (  -0.2509230   0.5788413   0.8515814  )
        37        Mo     tau(  37) = (  -0.3749985   0.7938567  -0.7272732  )
        38        Mo     tau(  38) = (  -0.2500001   0.7216874  -0.2424031  )
        39        S      tau(  39) = (  -0.3749980   0.7938584  -0.3667800  )
        40        S      tau(  40) = (  -0.2499984   0.7216877  -0.6030489  )
        41        S      tau(  41) = (  -0.2499984   0.7216878  -0.8514963  )
        42        S      tau(  42) = (  -0.3749982   0.7938585  -0.1180264  )
        43        Mo     tau(  43) = (  -0.3749910   0.7939458   0.2425394  )
        44        Mo     tau(  44) = (  -0.2499391   0.7230231   0.7269923  )
        45        S      tau(  45) = (  -0.3746478   0.7955125   0.6023635  )
        46        S      tau(  46) = (  -0.2500018   0.7217675   0.3668983  )
        47        S      tau(  47) = (  -0.2499845   0.7217593   0.1181709  )
        48        S      tau(  48) = (  -0.3753625   0.7942039   0.8516391  )
        49        Mo     tau(  49) = (   0.2500010   0.1443372  -0.7272732  )
        50        Mo     tau(  50) = (   0.3750034   0.0721723  -0.2424032  )
        51        S      tau(  51) = (   0.2500017   0.1443391  -0.3667788  )
        52        S      tau(  52) = (   0.3750010   0.0721682  -0.6030489  )
        53        S      tau(  53) = (   0.3750010   0.0721683  -0.8514963  )
        54        S      tau(  54) = (   0.2500016   0.1443391  -0.1180271  )
        55        Mo     tau(  55) = (   0.2500120   0.1444423   0.2425270  )
        56        Mo     tau(  56) = (   0.3753385   0.0727176   0.7280385  )
        57        S      tau(  57) = (   0.2501061   0.1471948   0.6059873  )
        58        S      tau(  58) = (   0.3749665   0.0722824   0.3669588  )
        59        S      tau(  59) = (   0.3750194   0.0722259   0.1181828  )
        60        S      tau(  60) = (   0.2503224   0.1381707   0.8567863  )
        61        Mo     tau(  61) = (   0.1250012   0.3608437  -0.7272732  )
        62        Mo     tau(  62) = (   0.2500029   0.2886782  -0.2424031  )
        63        S      tau(  63) = (   0.1250024   0.3608455  -0.3667794  )
        64        S      tau(  64) = (   0.2500012   0.2886747  -0.6030489  )
        65        S      tau(  65) = (   0.2500012   0.2886748  -0.8514963  )
        66        S      tau(  66) = (   0.1250021   0.3608455  -0.1180270  )
        67        Mo     tau(  67) = (   0.1250146   0.3609220   0.2425310  )
        68        Mo     tau(  68) = (   0.2504060   0.2889449   0.7322230  )
        69        S      tau(  69) = (   0.1260377   0.3627995   0.6088284  )
        70        S      tau(  70) = (   0.2499668   0.2887692   0.3669710  )
        71        S      tau(  71) = (   0.2500114   0.2887581   0.1181457  )
        72        S      tau(  72) = (   0.1159817   0.3569446   0.8558923  )
        73        Mo     tau(  73) = (   0.0000014   0.5773502  -0.7272732  )
        74        Mo     tau(  74) = (   0.1250045   0.5051840  -0.2424036  )
        75        S      tau(  75) = (   0.0000030   0.5773520  -0.3667799  )
        76        S      tau(  76) = (   0.1250014   0.5051812  -0.6030489  )
        77        S      tau(  77) = (   0.1250014   0.5051813  -0.8514963  )
        78        S      tau(  78) = (   0.0000026   0.5773517  -0.1180274  )
        79        Mo     tau(  79) = (   0.0000277   0.5774027   0.2425352  )
        80        Mo     tau(  80) = (   0.1244123   0.5073284   0.7323387  )
        81        S      tau(  81) = (   0.0015839   0.5778224   0.6060731  )
        82        S      tau(  82) = (   0.1249885   0.5052105   0.3669878  )
        83        S      tau(  83) = (   0.1250163   0.5052440   0.1181546  )
        84        S      tau(  84) = (  -0.0063306   0.5826378   0.8568465  )
        85        Mo     tau(  85) = (  -0.1249984   0.7938567  -0.7272732  )
        86        Mo     tau(  86) = (   0.0000069   0.7216896  -0.2424039  )
        87        S      tau(  87) = (  -0.1249975   0.7938582  -0.3667782  )
        88        S      tau(  88) = (   0.0000016   0.7216877  -0.6030489  )
        89        S      tau(  89) = (   0.0000016   0.7216878  -0.8514963  )
        90        S      tau(  90) = (  -0.1249973   0.7938582  -0.1180279  )
        91        Mo     tau(  91) = (  -0.1249896   0.7939312   0.2425787  )
        92        Mo     tau(  92) = (  -0.0004661   0.7235602   0.7280479  )
        93        S      tau(  93) = (  -0.1246539   0.7952907   0.6028036  )
        94        S      tau(  94) = (   0.0000057   0.7217075   0.3669682  )
        95        S      tau(  95) = (  -0.0000058   0.7217536   0.1181837  )
        96        S      tau(  96) = (  -0.1254262   0.7948489   0.8523899  )
        97        Mo     tau(  97) = (   0.5000010   0.1443372  -0.7272732  )
        98        Mo     tau(  98) = (   0.6250001   0.0721662  -0.2424040  )
        99        S      tau(  99) = (   0.5000017   0.1443386  -0.3667801  )
       100        S      tau( 100) = (   0.6250010   0.0721682  -0.6030489  )
       101        S      tau( 101) = (   0.6250010   0.0721683  -0.8514963  )
       102        S      tau( 102) = (   0.5000020   0.1443388  -0.1180261  )
       103        Mo     tau( 103) = (   0.4999896   0.1444085   0.2425760  )
       104        Mo     tau( 104) = (   0.6249106   0.0734024   0.7271439  )
       105        S      tau( 105) = (   0.4997403   0.1454705   0.6028629  )
       106        S      tau( 106) = (   0.6250025   0.0722337   0.3669107  )
       107        S      tau( 107) = (   0.6249747   0.0722025   0.1181744  )
       108        S      tau( 108) = (   0.5004717   0.1456393   0.8518204  )
       109        Mo     tau( 109) = (   0.3750012   0.3608437  -0.7272732  )
       110        Mo     tau( 110) = (   0.4999991   0.2886761  -0.2424038  )
       111        S      tau( 111) = (   0.3750012   0.3608452  -0.3667804  )
       112        S      tau( 112) = (   0.5000012   0.2886747  -0.6030489  )
       113        S      tau( 113) = (   0.5000012   0.2886748  -0.8514963  )
       114        S      tau( 114) = (   0.3750014   0.3608455  -0.1180261  )
       115        Mo     tau( 115) = (   0.3749750   0.3609148   0.2425684  )
       116        Mo     tau( 116) = (   0.5011524   0.2898551   0.7275448  )
       117        S      tau( 117) = (   0.3735446   0.3613798   0.6062215  )
       118        S      tau( 118) = (   0.4999580   0.2887676   0.3669508  )
       119        S      tau( 119) = (   0.4999841   0.2887256   0.1181818  )
       120        S      tau( 120) = (   0.3822446   0.3659056   0.8554316  )
       121        Mo     tau( 121) = (   0.2500014   0.5773502  -0.7272732  )
       122        Mo     tau( 122) = (   0.3749983   0.5051825  -0.2424043  )
       123        S      tau( 123) = (   0.2500017   0.5773519  -0.3667810  )
       124        S      tau( 124) = (   0.3750014   0.5051812  -0.6030489  )
       125        S      tau( 125) = (   0.3750014   0.5051813  -0.8514963  )
       126        S      tau( 126) = (   0.2500018   0.5773519  -0.1180256  )
       127        Mo     tau( 127) = (   0.2499849   0.5773839   0.2425825  )
       128        Mo     tau( 128) = (   0.3768766   0.5074715   0.7281761  )
       129        S      tau( 129) = (   0.2486635   0.5776965   0.6062935  )
       130        S      tau( 130) = (   0.3749671   0.5052274   0.3670086  )
       131        S      tau( 131) = (   0.3749970   0.5052445   0.1181960  )
       132        S      tau( 132) = (   0.2571816   0.5830870   0.8554758  )
       133        Mo     tau( 133) = (   0.1250016   0.7938567  -0.7272732  )
       134        Mo     tau( 134) = (   0.2499995   0.7216883  -0.2424036  )
       135        S      tau( 135) = (   0.1250024   0.7938578  -0.3667813  )
       136        S      tau( 136) = (   0.2500016   0.7216877  -0.6030489  )
       137        S      tau( 137) = (   0.2500016   0.7216878  -0.8514963  )
       138        S      tau( 138) = (   0.1250024   0.7938579  -0.1180253  )
       139        Mo     tau( 139) = (   0.1249925   0.7938982   0.2425783  )
       140        Mo     tau( 140) = (   0.2504874   0.7240318   0.7276005  )
       141        S      tau( 141) = (   0.1247502   0.7949264   0.6029133  )
       142        S      tau( 142) = (   0.2499928   0.7217086   0.3669584  )
       143        S      tau( 143) = (   0.2499817   0.7217168   0.1181890  )
       144        S      tau( 144) = (   0.1251679   0.7955203   0.8518202  )
       145        Mo     tau( 145) = (   0.7500010   0.1443372  -0.7272732  )
       146        Mo     tau( 146) = (   0.8750038   0.0721696  -0.2424038  )
       147        S      tau( 147) = (   0.7500016   0.1443382  -0.3667789  )
       148        S      tau( 148) = (   0.8750010   0.0721682  -0.6030489  )
       149        S      tau( 149) = (   0.8750010   0.0721683  -0.8514963  )
       150        S      tau( 150) = (   0.7500016   0.1443384  -0.1180279  )
       151        Mo     tau( 151) = (   0.7499969   0.1443861   0.2425090  )
       152        Mo     tau( 152) = (   0.8747528   0.0730779   0.7263799  )
       153        S      tau( 153) = (   0.7495020   0.1453181   0.6020842  )
       154        S      tau( 154) = (   0.8749912   0.0722441   0.3668818  )
       155        S      tau( 155) = (   0.8750227   0.0722127   0.1181591  )
       156        S      tau( 156) = (   0.7499182   0.1456588   0.8509527  )
       157        Mo     tau( 157) = (   0.6250012   0.3608437  -0.7272732  )
       158        Mo     tau( 158) = (   0.7500028   0.2886769  -0.2424041  )
       159        S      tau( 159) = (   0.6250015   0.3608451  -0.3667792  )
       160        S      tau( 160) = (   0.7500012   0.2886747  -0.6030489  )
       161        S      tau( 161) = (   0.7500012   0.2886748  -0.8514963  )
       162        S      tau( 162) = (   0.6250016   0.3608454  -0.1180280  )
       163        Mo     tau( 163) = (   0.6249910   0.3608952   0.2425431  )
       164        Mo     tau( 164) = (   0.7494837   0.2899696   0.7262894  )
       165        S      tau( 165) = (   0.6246231   0.3621365   0.6018551  )
       166        S      tau( 166) = (   0.7500034   0.2887135   0.3668814  )
       167        S      tau( 167) = (   0.7500079   0.2887338   0.1181595  )
       168        S      tau( 168) = (   0.6260048   0.3625460   0.8512927  )
       169        Mo     tau( 169) = (   0.5000014   0.5773502  -0.7272732  )
       170        Mo     tau( 170) = (   0.6250029   0.5051841  -0.2424047  )
       171        S      tau( 171) = (   0.5000014   0.5773518  -0.3667794  )
       172        S      tau( 172) = (   0.6250014   0.5051812  -0.6030489  )
       173        S      tau( 173) = (   0.6250014   0.5051813  -0.8514963  )
       174        S      tau( 174) = (   0.5000016   0.5773516  -0.1180277  )
       175        Mo     tau( 175) = (   0.4999891   0.5774067   0.2425764  )
       176        Mo     tau( 176) = (   0.6253058   0.5066864   0.7263366  )
       177        S      tau( 177) = (   0.5001147   0.5786992   0.6018768  )
       178        S      tau( 178) = (   0.6250219   0.5052389   0.3668960  )
       179        S      tau( 179) = (   0.6249897   0.5052360   0.1181749  )
       180        S      tau( 180) = (   0.5022411   0.5798745   0.8515808  )
       181        Mo     tau( 181) = (   0.3750016   0.7938567  -0.7272732  )
       182        Mo     tau( 182) = (   0.5000025   0.7216901  -0.2424039  )
       183        S      tau( 183) = (   0.3750019   0.7938578  -0.3667793  )
       184        S      tau( 184) = (   0.5000016   0.7216877  -0.6030489  )
       185        S      tau( 185) = (   0.5000016   0.7216878  -0.8514963  )
       186        S      tau( 186) = (   0.3750020   0.7938579  -0.1180272  )
       187        Mo     tau( 187) = (   0.3749890   0.7939067   0.2425443  )
       188        Mo     tau( 188) = (   0.5002702   0.7230996   0.7264112  )
       189        S      tau( 189) = (   0.3747820   0.7948530   0.6019718  )
       190        S      tau( 190) = (   0.5000014   0.7217825   0.3669010  )
       191        S      tau( 191) = (   0.5000049   0.7217309   0.1181759  )
       192        S      tau( 192) = (   0.3757788   0.7958654   0.8513800  )
       193        Pd     tau( 193) = (   0.1298567   0.5028633   0.9631584  )
       194        Pd     tau( 194) = (   0.2489715   0.2959876   0.9631435  )
       195        Pt     tau( 195) = (   0.1894096   0.3994460   1.1218601  )

     --------------------------------------------
     DFT-D3 Dispersion Correction (3-body terms):
     --------------------------------------------
       Reference C6 values for interpolation: 

         atom   Coordination number   C6
         S          0.000           268.01
         S          0.995           261.99
         S          1.990           251.62
         Mo         0.000          1691.79
         Mo         1.942          1004.01
         Mo        11.056           674.22
         Pd         0.000          1217.01
         Pd         1.863           573.90
         Pd         5.710           531.75
         Pt         0.000           782.29
         Pt         1.919           692.72
         Pt         6.667           673.75

       Values used:

         atom   Coordination number  R0_AB[au]  C6      C8
         Mo        10.208            3.547    674.21  77634.20
         Mo        10.221            3.547    674.22  77634.20
         S          3.858            3.128    251.62  12327.25
         S          3.859            3.128    251.62  12327.25
         S          3.758            3.128    251.62  12327.25
         S          3.859            3.128    251.62  12327.25
         Mo        10.220            3.547    674.22  77634.20
         Mo        10.221            3.547    674.22  77634.20
         S          3.841            3.128    251.62  12327.25
         S          3.858            3.128    251.62  12327.25
         S          3.858            3.128    251.62  12327.25
         S          3.815            3.128    251.62  12327.25
         Mo        10.208            3.547    674.22  77634.20
         Mo        10.221            3.547    674.22  77634.20
         S          3.858            3.128    251.62  12327.25
         S          3.859            3.128    251.62  12327.25
         S          3.758            3.128    251.62  12327.25
         S          3.859            3.128    251.62  12327.25
         Mo        10.220            3.547    674.22  77634.20
         Mo        10.181            3.547    674.22  77634.20
         S          3.842            3.128    251.62  12327.25
         S          3.854            3.128    251.62  12327.25
         S          3.858            3.128    251.62  12327.25
         S          3.816            3.128    251.62  12327.25
         Mo        10.208            3.547    674.22  77634.20
         Mo        10.221            3.547    674.22  77634.20
         S          3.858            3.128    251.62  12327.25
         S          3.859            3.128    251.62  12327.25
         S          3.758            3.128    251.62  12327.25
         S          3.859            3.128    251.62  12327.25
         Mo        10.219            3.547    674.22  77634.20
         Mo        10.223            3.547    674.22  77634.20
         S          3.850            3.128    251.62  12327.25
         S          3.858            3.128    251.62  12327.25
         S          3.858            3.128    251.62  12327.25
         S          3.817            3.128    251.62  12327.25
         Mo        10.208            3.547    674.21  77634.20
         Mo        10.220            3.547    674.22  77634.20
         S          3.858            3.128    251.62  12327.25
         S          3.859            3.128    251.62  12327.25
         S          3.758            3.128    251.62  12327.25
         S          3.859            3.128    251.62  12327.25
         Mo        10.219            3.547    674.22  77634.20
         Mo        10.251            3.547    674.22  77634.20
         S          3.850            3.128    251.62  12327.25
         S          3.860            3.128    251.62  12327.25
         S          3.859            3.128    251.62  12327.25
         S          3.815            3.128    251.62  12327.25
         Mo        10.208            3.547    674.22  77634.20
         Mo        10.221            3.547    674.22  77634.20
         S          3.858            3.128    251.62  12327.25
         S          3.859            3.128    251.62  12327.25
         S          3.758            3.128    251.62  12327.25
         S          3.859            3.128    251.62  12327.25
         Mo        10.221            3.547    674.22  77634.20
         Mo        10.228            3.547    674.22  77634.20
         S          3.853            3.128    251.62  12327.25
         S          3.856            3.128    251.62  12327.25
         S          3.859            3.128    251.62  12327.25
         S          4.645            3.128    251.62  12327.25
         Mo        10.208            3.547    674.22  77634.20
         Mo        10.221            3.547    674.22  77634.20
         S          3.858            3.128    251.62  12327.25
         S          3.859            3.128    251.62  12327.25
         S          3.758            3.128    251.62  12327.25
         S          3.859            3.128    251.62  12327.25
         Mo        10.222            3.547    674.22  77634.20
         Mo        10.784            3.547    674.22  77634.20
         S          3.877            3.128    251.62  12327.25
         S          3.850            3.128    251.62  12327.25
         S          3.859            3.128    251.62  12327.25
         S          5.653            3.128    251.62  12327.25
         Mo        10.208            3.547    674.22  77634.20
         Mo        10.221            3.547    674.22  77634.20
         S          3.858            3.128    251.62  12327.25
         S          3.859            3.128    251.62  12327.25
         S          3.758            3.128    251.62  12327.25
         S          3.859            3.128    251.62  12327.25
         Mo        10.221            3.547    674.22  77634.20
         Mo        10.786            3.547    674.22  77634.20
         S          3.854            3.128    251.62  12327.25
         S          3.849            3.128    251.62  12327.25
         S          3.859            3.128    251.62  12327.25
         S          4.646            3.128    251.62  12327.25
         Mo        10.208            3.547    674.22  77634.20
         Mo        10.221            3.547    674.22  77634.20
         S          3.858            3.128    251.62  12327.25
         S          3.859            3.128    251.62  12327.25
         S          3.758            3.128    251.62  12327.25
         S          3.859            3.128    251.62  12327.25
         Mo        10.220            3.547    674.21  77634.20
         Mo        10.229            3.547    674.22  77634.20
         S          3.847            3.128    251.62  12327.25
         S          3.855            3.128    251.62  12327.25
         S          3.859            3.128    251.62  12327.25
         S          3.827            3.128    251.62  12327.25
         Mo        10.208            3.547    674.22  77634.20
         Mo        10.221            3.547    674.22  77634.20
         S          3.858            3.128    251.62  12327.25
         S          3.859            3.128    251.62  12327.25
         S          3.758            3.128    251.62  12327.25
         S          3.859            3.128    251.62  12327.25
         Mo        10.221            3.547    674.22  77634.20
         Mo        10.242            3.547    674.22  77634.20
         S          3.860            3.128    251.62  12327.25
         S          3.860            3.128    251.62  12327.25
         S          3.859            3.128    251.62  12327.25
         S          3.765            3.128    251.62  12327.25
         Mo        10.208            3.547    674.22  77634.20
         Mo        10.221            3.547    674.22  77634.20
         S          3.858            3.128    251.62  12327.25
         S          3.859            3.128    251.62  12327.25
         S          3.758            3.128    251.62  12327.25
         S          3.859            3.128    251.62  12327.25
         Mo        10.222            3.547    674.22  77634.20
         Mo        10.216            3.547    674.22  77634.20
         S          3.862            3.128    251.62  12327.25
         S          3.856            3.128    251.62  12327.25
         S          3.859            3.128    251.62  12327.25
         S          4.673            3.128    251.62  12327.25
         Mo        10.208            3.547    674.22  77634.20
         Mo        10.221            3.547    674.22  77634.20
         S          3.858            3.128    251.62  12327.25
         S          3.859            3.128    251.62  12327.25
         S          3.758            3.128    251.62  12327.25
         S          3.859            3.128    251.62  12327.25
         Mo        10.222            3.547    674.22  77634.20
         Mo        10.177            3.547    674.22  77634.20
         S          3.863            3.128    251.62  12327.25
         S          3.852            3.128    251.62  12327.25
         S          3.859            3.128    251.62  12327.25
         S          4.674            3.128    251.62  12327.25
         Mo        10.208            3.547    674.22  77634.20
         Mo        10.221            3.547    674.22  77634.20
         S          3.858            3.128    251.62  12327.25
         S          3.859            3.128    251.62  12327.25
         S          3.758            3.128    251.62  12327.25
         S          3.859            3.128    251.62  12327.25
         Mo        10.221            3.547    674.22  77634.20
         Mo        10.215            3.547    674.22  77634.20
         S          3.860            3.128    251.62  12327.25
         S          3.856            3.128    251.62  12327.25
         S          3.859            3.128    251.62  12327.25
         S          3.765            3.128    251.62  12327.25
         Mo        10.208            3.547    674.21  77634.20
         Mo        10.221            3.547    674.22  77634.20
         S          3.858            3.128    251.62  12327.25
         S          3.859            3.128    251.62  12327.25
         S          3.758            3.128    251.62  12327.25
         S          3.859            3.128    251.62  12327.25
         Mo        10.220            3.547    674.21  77634.20
         Mo        10.267            3.547    674.22  77634.20
         S          3.858            3.128    251.62  12327.25
         S          3.861            3.128    251.62  12327.25
         S          3.858            3.128    251.62  12327.25
         S          3.781            3.128    251.62  12327.25
         Mo        10.208            3.547    674.22  77634.20
         Mo        10.220            3.547    674.22  77634.20
         S          3.858            3.128    251.62  12327.25
         S          3.859            3.128    251.62  12327.25
         S          3.758            3.128    251.62  12327.25
         S          3.859            3.128    251.62  12327.25
         Mo        10.220            3.547    674.22  77634.20
         Mo        10.268            3.547    674.22  77634.20
         S          3.850            3.128    251.62  12327.25
         S          3.862            3.128    251.62  12327.25
         S          3.858            3.128    251.62  12327.25
         S          3.813            3.128    251.62  12327.25
         Mo        10.208            3.547    674.22  77634.20
         Mo        10.221            3.547    674.22  77634.20
         S          3.858            3.128    251.62  12327.25
         S          3.859            3.128    251.62  12327.25
         S          3.758            3.128    251.62  12327.25
         S          3.859            3.128    251.62  12327.25
         Mo        10.220            3.547    674.22  77634.20
         Mo        10.263            3.547    674.22  77634.20
         S          3.838            3.128    251.62  12327.25
         S          3.861            3.128    251.62  12327.25
         S          3.859            3.128    251.62  12327.25
         S          3.841            3.128    251.62  12327.25
         Mo        10.208            3.547    674.22  77634.20
         Mo        10.221            3.547    674.22  77634.20
         S          3.858            3.128    251.62  12327.25
         S          3.859            3.128    251.62  12327.25
         S          3.758            3.128    251.62  12327.25
         S          3.859            3.128    251.62  12327.25
         Mo        10.220            3.547    674.22  77634.20
         Mo        10.262            3.547    674.22  77634.20
         S          3.850            3.128    251.62  12327.25
         S          3.861            3.128    251.62  12327.25
         S          3.859            3.128    251.62  12327.25
         S          3.812            3.128    251.62  12327.25
         Pd         4.986            3.168    531.75  48720.73
         Pd         4.984            3.168    531.75  48720.73
         Pt         1.957            3.168    692.72  72035.25

         Molecular C6 ( Ry / a.u.^6 ) =  14152457.46


     number of k points=     4  Gaussian smearing, width (Ry)=  0.0100
                       cart. coord. in units 2pi/alat
        k(    1) = (   0.0000000   0.0000000   0.0000000), wk =   0.5000000
        k(    2) = (   0.0000000  -0.5773499   0.0000000), wk =   0.5000000
        k(    3) = (  -0.5000000  -0.2886744   0.0000000), wk =   0.5000000
        k(    4) = (  -0.5000000  -0.8660242   0.0000000), wk =   0.5000000

     Dense  grid:  7154885 G-vectors     FFT dimensions: ( 180, 180, 512)

     Smooth grid:  3090769 G-vectors     FFT dimensions: ( 135, 135, 400)

     Estimated max dynamical RAM per process >       4.32 GB

     Estimated total dynamical RAM >     155.52 GB

     Initial potential from superposition of free atoms

     starting charge    1731.9386, renormalised to    1732.0000

     negative rho (up, down):  9.227E-04 0.000E+00
     Starting wfcs are 1189 randomized atomic wfcs
     Checking if some PAW data can be deallocated... 

     total cpu time spent up to now is      182.1 secs

     Self-consistent Calculation

     iteration #  1     ecut=    77.00 Ry     beta= 0.20
     Davidson diagonalization with overlap
     ethr =  1.00E-02,  avg # of iterations =  2.0

     Threshold (ethr) on eigenvalues was too large:
     Diagonalizing with lowered threshold

     Davidson diagonalization with overlap
     ethr =  2.24E-04,  avg # of iterations = 17.0

     negative rho (up, down):  2.351E-04 0.000E+00

     total cpu time spent up to now is     2020.3 secs

     total energy              =  -34491.82937304 Ry
     estimated scf accuracy    <       6.24221080 Ry

     iteration #  2     ecut=    77.00 Ry     beta= 0.20
     Davidson diagonalization with overlap
     ethr =  3.60E-04,  avg # of iterations =  8.0

     negative rho (up, down):  2.326E-04 0.000E+00

     total cpu time spent up to now is     2462.6 secs

     total energy              =  -34486.99573539 Ry
     estimated scf accuracy    <      96.52559004 Ry

     iteration #  3     ecut=    77.00 Ry     beta= 0.20
     Davidson diagonalization with overlap
     ethr =  3.60E-04,  avg # of iterations = 10.8

     negative rho (up, down):  2.499E-04 0.000E+00

     total cpu time spent up to now is     2920.4 secs

     total energy              =  -34485.43023901 Ry
     estimated scf accuracy    <     508.42086796 Ry

     iteration #  4     ecut=    77.00 Ry     beta= 0.20
     Davidson diagonalization with overlap
     ethr =  3.60E-04,  avg # of iterations =  3.2

     negative rho (up, down):  3.764E-05 0.000E+00

     total cpu time spent up to now is     3320.4 secs

     total energy              =  -34491.40389959 Ry
     estimated scf accuracy    <       4.15776351 Ry

     iteration #  5     ecut=    77.00 Ry     beta= 0.20
     Davidson diagonalization with overlap
     ethr =  2.40E-04,  avg # of iterations = 10.5

     negative rho (up, down):  2.101E-05 0.000E+00

     total cpu time spent up to now is     3773.5 secs

     total energy              =  -34491.40880974 Ry
     estimated scf accuracy    <       1.46352037 Ry

     iteration #  6     ecut=    77.00 Ry     beta= 0.20
     Davidson diagonalization with overlap
     ethr =  8.45E-05,  avg # of iterations = 12.8

     negative rho (up, down):  2.795E-05 0.000E+00

     total cpu time spent up to now is     4454.9 secs

     total energy              =  -34491.80727341 Ry
     estimated scf accuracy    <       1.12342879 Ry

     iteration #  7     ecut=    77.00 Ry     beta= 0.20
     Davidson diagonalization with overlap
     ethr =  6.49E-05,  avg # of iterations =  8.5

     negative rho (up, down):  2.808E-05 0.000E+00

     total cpu time spent up to now is     4894.1 secs

     total energy              =  -34491.87464958 Ry
     estimated scf accuracy    <       0.48100619 Ry

     iteration #  8     ecut=    77.00 Ry     beta= 0.20
     Davidson diagonalization with overlap
     c_bands:  1 eigenvalues not converged
     ethr =  2.78E-05,  avg # of iterations = 18.5

     negative rho (up, down):  3.922E-05 0.000E+00

     total cpu time spent up to now is     5741.9 secs

     total energy              =  -34492.16007684 Ry
     estimated scf accuracy    <       0.29488674 Ry

     iteration #  9     ecut=    77.00 Ry     beta= 0.20
     Davidson diagonalization with overlap
     ethr =  1.70E-05,  avg # of iterations = 10.8

     negative rho (up, down):  1.370E-04 0.000E+00

     total cpu time spent up to now is     6216.0 secs

     total energy              =  -34492.12456563 Ry
     estimated scf accuracy    <       0.27246818 Ry

     iteration # 10     ecut=    77.00 Ry     beta= 0.20
     Davidson diagonalization with overlap
     ethr =  1.57E-05,  avg # of iterations =  8.5

     negative rho (up, down):  4.280E-04 0.000E+00

     total cpu time spent up to now is     6651.4 secs

     total energy              =  -34492.11566800 Ry
     estimated scf accuracy    <       0.11302899 Ry

     iteration # 11     ecut=    77.00 Ry     beta= 0.20
     Davidson diagonalization with overlap
     c_bands:  3 eigenvalues not converged
     c_bands:  5 eigenvalues not converged
     c_bands:  5 eigenvalues not converged
     ethr =  6.53E-06,  avg # of iterations = 20.5

     negative rho (up, down):  3.193E-04 0.000E+00

     total cpu time spent up to now is     7694.3 secs

     total energy              =  -34492.18655354 Ry
     estimated scf accuracy    <       4.05440529 Ry

     iteration # 12     ecut=    77.00 Ry     beta= 0.20
     Davidson diagonalization with overlap
     ethr =  6.53E-06,  avg # of iterations =  9.8

     negative rho (up, down):  3.730E-04 0.000E+00

     total cpu time spent up to now is     8131.1 secs

     total energy              =  -34492.21653554 Ry
     estimated scf accuracy    <       0.61540274 Ry

     iteration # 13     ecut=    77.00 Ry     beta= 0.20
     Davidson diagonalization with overlap
     ethr =  6.53E-06,  avg # of iterations =  1.0

     negative rho (up, down):  3.253E-04 0.000E+00

     total cpu time spent up to now is     8506.4 secs

     total energy              =  -34492.16789673 Ry
     estimated scf accuracy    <       1.11708331 Ry

     iteration # 14     ecut=    77.00 Ry     beta= 0.20
     Davidson diagonalization with overlap
     ethr =  6.53E-06,  avg # of iterations = 11.2

     negative rho (up, down):  3.463E-04 0.000E+00

     total cpu time spent up to now is     8955.6 secs

     total energy              =  -34492.19701467 Ry
     estimated scf accuracy    <       0.01717795 Ry

     iteration # 15     ecut=    77.00 Ry     beta= 0.20
     Davidson diagonalization with overlap
     c_bands:  2 eigenvalues not converged
     c_bands:  5 eigenvalues not converged
     ethr =  9.92E-07,  avg # of iterations = 76.0

     negative rho (up, down):  4.189E-04 0.000E+00

     total cpu time spent up to now is    11549.9 secs

     total energy              =  -34492.22166051 Ry
     estimated scf accuracy    <       0.02211541 Ry

     iteration # 16     ecut=    77.00 Ry     beta= 0.20
     Davidson diagonalization with overlap
     ethr =  9.92E-07,  avg # of iterations =  4.5

     negative rho (up, down):  6.909E-04 0.000E+00

     total cpu time spent up to now is    11972.8 secs

     total energy              =  -34492.22096106 Ry
     estimated scf accuracy    <       0.01529812 Ry

     iteration # 17     ecut=    77.00 Ry     beta= 0.20
     Davidson diagonalization with overlap
     ethr =  8.83E-07,  avg # of iterations =  8.2

     negative rho (up, down):  7.221E-04 0.000E+00

     total cpu time spent up to now is    12429.0 secs

     total energy              =  -34492.22162631 Ry
     estimated scf accuracy    <       0.01687610 Ry

     iteration # 18     ecut=    77.00 Ry     beta= 0.20
     Davidson diagonalization with overlap
     ethr =  8.83E-07,  avg # of iterations =  1.0

     negative rho (up, down):  7.612E-04 0.000E+00

     total cpu time spent up to now is    12803.7 secs

     total energy              =  -34492.22169098 Ry
     estimated scf accuracy    <       0.01160492 Ry

     iteration # 19     ecut=    77.00 Ry     beta= 0.20
     Davidson diagonalization with overlap
     ethr =  6.70E-07,  avg # of iterations =  1.0

     negative rho (up, down):  7.937E-04 0.000E+00

     total cpu time spent up to now is    13178.3 secs

     total energy              =  -34492.22161355 Ry
     estimated scf accuracy    <       0.00932373 Ry

     iteration # 20     ecut=    77.00 Ry     beta= 0.20
     Davidson diagonalization with overlap
     ethr =  5.38E-07,  avg # of iterations =  1.0

     negative rho (up, down):  8.754E-04 0.000E+00

     total cpu time spent up to now is    13553.2 secs

     total energy              =  -34492.22031639 Ry
     estimated scf accuracy    <       0.00831432 Ry

     iteration # 21     ecut=    77.00 Ry     beta= 0.20
     Davidson diagonalization with overlap
     ethr =  4.80E-07,  avg # of iterations =  1.0

     negative rho (up, down):  9.612E-04 0.000E+00

     total cpu time spent up to now is    13928.7 secs

     total energy              =  -34492.21929913 Ry
     estimated scf accuracy    <       0.00498133 Ry

     iteration # 22     ecut=    77.00 Ry     beta= 0.20
     Davidson diagonalization with overlap
     ethr =  2.88E-07,  avg # of iterations = 10.2

     negative rho (up, down):  9.644E-04 0.000E+00

     total cpu time spent up to now is    14399.4 secs

     total energy              =  -34492.21914349 Ry
     estimated scf accuracy    <       0.00335950 Ry

     iteration # 23     ecut=    77.00 Ry     beta= 0.20
     Davidson diagonalization with overlap
     c_bands:  3 eigenvalues not converged
     c_bands:  3 eigenvalues not converged
     c_bands:  3 eigenvalues not converged
     ethr =  1.94E-07,  avg # of iterations = 32.2

     negative rho (up, down):  9.020E-04 0.000E+00

     total cpu time spent up to now is    15444.3 secs

     total energy              =  -34492.22153856 Ry
     estimated scf accuracy    <       0.00105676 Ry

     iteration # 24     ecut=    77.00 Ry     beta= 0.20
     Davidson diagonalization with overlap
     c_bands:  3 eigenvalues not converged
     ethr =  6.10E-08,  avg # of iterations = 12.8

     negative rho (up, down):  8.732E-04 0.000E+00

     total cpu time spent up to now is    16009.3 secs

     total energy              =  -34492.22182998 Ry
     estimated scf accuracy    <       0.00047401 Ry

     iteration # 25     ecut=    77.00 Ry     beta= 0.20
     Davidson diagonalization with overlap
     c_bands:  1 eigenvalues not converged
     ethr =  2.74E-08,  avg # of iterations = 15.2

     negative rho (up, down):  8.695E-04 0.000E+00

     total cpu time spent up to now is    16724.0 secs

     total energy              =  -34492.22204682 Ry
     estimated scf accuracy    <       0.00022108 Ry

     iteration # 26     ecut=    77.00 Ry     beta= 0.20
     Davidson diagonalization with overlap
     ethr =  1.28E-08,  avg # of iterations = 12.8

     negative rho (up, down):  8.798E-04 0.000E+00

     total cpu time spent up to now is    17499.8 secs

     total energy              =  -34492.22216349 Ry
     estimated scf accuracy    <       0.00005068 Ry

     iteration # 27     ecut=    77.00 Ry     beta= 0.20
     Davidson diagonalization with overlap
     ethr =  2.93E-09,  avg # of iterations = 15.5

     negative rho (up, down):  8.735E-04 0.000E+00

     total cpu time spent up to now is    18432.9 secs

     total energy              =  -34492.22222000 Ry
     estimated scf accuracy    <       0.00001903 Ry

     iteration # 28     ecut=    77.00 Ry     beta= 0.20
     Davidson diagonalization with overlap
     ethr =  1.10E-09,  avg # of iterations = 15.8

     negative rho (up, down):  8.781E-04 0.000E+00

     total cpu time spent up to now is    19276.0 secs

     total energy              =  -34492.22223151 Ry
     estimated scf accuracy    <       0.00000991 Ry

     iteration # 29     ecut=    77.00 Ry     beta= 0.20
     Davidson diagonalization with overlap
     ethr =  5.72E-10,  avg # of iterations = 11.0

     negative rho (up, down):  8.811E-04 0.000E+00

     total cpu time spent up to now is    19753.1 secs

     total energy              =  -34492.22222938 Ry
     estimated scf accuracy    <       0.00000499 Ry

     iteration # 30     ecut=    77.00 Ry     beta= 0.20
     Davidson diagonalization with overlap
     ethr =  2.88E-10,  avg # of iterations = 18.8

     negative rho (up, down):  8.820E-04 0.000E+00

     total cpu time spent up to now is    20676.8 secs

     total energy              =  -34492.22223348 Ry
     estimated scf accuracy    <       0.00000219 Ry

     iteration # 31     ecut=    77.00 Ry     beta= 0.20
     Davidson diagonalization with overlap
     c_bands:  2 eigenvalues not converged
     ethr =  1.27E-10,  avg # of iterations = 16.2

     negative rho (up, down):  8.842E-04 0.000E+00

     total cpu time spent up to now is    21381.7 secs

     End of self-consistent calculation

          k = 0.0000 0.0000 0.0000 (386245 PWs)   bands (ev):

  -101.3315 -89.4977 -89.4937 -69.7522 -69.7494 -69.6939 -69.6901 -69.6676
   -69.6667 -69.6638 -66.8113 -66.8047 -66.8039 -66.8020 -66.7953 -66.7850
   -66.7850 -66.7837 -66.7836 -66.7836 -66.7833 -66.7832 -66.7831 -66.7826
   -66.7826 -66.7826 -66.7825 -66.7825 -66.7825 -66.7807 -66.7807 -66.7807
   -66.7807 -66.7806 -66.7806 -66.7799 -66.7761 -66.7753 -66.7699 -66.7654
   -66.7652 -66.7634 -66.7626 -66.7622 -66.7622 -66.7621 -66.7621 -66.7619
   -66.7618 -66.7618 -66.7616 -66.7613 -66.7613 -66.7612 -66.7612 -66.7612
   -66.7611 -66.7611 -66.7611 -66.7610 -66.7594 -66.7594 -66.7593 -66.7593
   -66.7593 -66.7592 -66.7592 -66.7592 -66.7592 -66.7499 -66.7467 -66.7438
   -66.7395 -66.7298 -55.8434 -55.6040 -55.3344 -55.3095 -55.3074 -55.2824
   -55.2457 -55.0847 -55.0713 -41.1323 -41.1320 -41.1319 -41.1312 -41.1312
   -41.1312 -41.1301 -41.1301 -41.1301 -41.1286 -41.1253 -41.1239 -41.0571
   -41.0569 -41.0568 -41.0566 -41.0566 -41.0564 -41.0560 -41.0560 -41.0560
   -41.0559 -41.0559 -41.0559 -41.0559 -41.0555 -41.0547 -41.0547 -41.0547
   -41.0547 -41.0546 -41.0546 -41.0498 -41.0448 -41.0393 -41.0359 -40.9913
   -40.9644 -40.9634 -40.9622 -40.9597 -40.9561 -40.9502 -40.9335 -40.9307
   -40.9305 -40.9305 -40.9304 -40.9303 -40.9302 -40.9296 -40.9296 -40.9296
   -40.9296 -40.9295 -40.9295 -40.9295 -40.9289 -40.9282 -40.9282 -40.9282
   -40.9282 -40.9282 -40.9282 -40.9279 -40.9229 -40.9229 -40.9228 -40.9228
   -40.9225 -40.9225 -40.9223 -40.9218 -40.9218 -40.9217 -40.9217 -40.9217
   -40.9216 -40.9205 -40.9205 -40.9205 -40.9205 -40.9204 -40.9204 -40.9195
   -40.9192 -40.9174 -40.9085 -40.9049 -40.9034 -40.8956 -40.8955 -40.8954
   -40.8953 -40.8952 -40.8952 -40.8946 -40.8946 -40.8946 -40.8946 -40.8945
   -40.8945 -40.8945 -40.8942 -40.8931 -40.8931 -40.8931 -40.8931 -40.8931
   -40.8931 -40.8923 -40.8876 -40.8854 -40.8829 -40.8824 -40.8812 -40.8808
   -40.8808 -40.8808 -40.8807 -40.8806 -40.8805 -40.8804 -40.8803 -40.8799
   -40.8799 -40.8798 -40.8798 -40.8798 -40.8797 -40.8797 -40.8797 -40.8796
   -40.8796 -40.8786 -40.8786 -40.8785 -40.8785 -40.8785 -40.8784 -40.8784
   -40.8784 -40.8784 -40.8770 -40.8741 -40.8726 -40.8715 -40.8705 -40.8172
   -40.8170 -40.8170 -40.8162 -40.8162 -40.8162 -40.8147 -40.8147 -40.8147
   -40.8127 -40.8062 -40.8050 -40.7703 -40.7701 -40.7701 -40.7698 -40.7697
   -40.7696 -40.7691 -40.7691 -40.7691 -40.7691 -40.7691 -40.7690 -40.7676
   -40.7676 -40.7676 -40.7675 -40.7675 -40.7675 -40.7659 -40.7639 -40.7603
   -40.7582 -40.7520 -40.7462 -40.7223 -40.7223 -40.7215 -40.7215 -40.7199
   -40.7199 -40.7096 -40.7048 -20.3358 -20.2709 -20.1704 -20.0668 -19.7198
   -19.4738 -19.4664 -19.4330 -19.4322 -19.4277 -19.4167 -19.4066 -19.4054
   -19.3797 -19.3774 -19.3653 -19.3296 -19.3159 -19.3153 -19.2967 -19.2943
   -19.2798 -19.2250 -19.2178 -19.2177 -19.2117 -19.2108 -19.2044 -19.0868
   -18.9830 -18.9028 -18.8004 -18.7196 -18.7114 -18.6837 -18.6833 -18.6584
   -18.6495 -18.6256 -18.5955 -18.5934 -18.5929 -18.5718 -18.5431 -18.5113
   -18.4947 -18.4649 -18.4631 -18.4561 -18.4319 -18.4198 -18.4176 -18.3677
   -18.3642 -18.3630 -18.3548 -18.3537 -18.3536 -18.3125 -18.3059 -18.3023
   -18.3014 -18.2994 -18.2988 -18.2954 -18.2815 -18.2721 -18.2691 -18.2645
   -18.2629 -18.2610 -18.2566 -18.2558 -18.2540 -18.2419 -18.2312 -18.2302
   -18.2282 -18.2262 -18.2219 -18.2134 -18.2086 -18.2069 -18.1953 -18.1903
   -18.1837 -18.1829 -18.1779 -18.1763 -18.1674 -18.1652 -18.1634 -18.1425
   -18.1292 -18.1278 -18.1136 -18.1002 -18.0997 -18.0955 -18.0943 -18.0941
   -18.0787 -18.0742 -18.0714 -18.0624 -18.0559 -18.0512 -18.0485 -18.0453
   -18.0443 -18.0388 -18.0368 -18.0368 -18.0213 -18.0206 -18.0203 -18.0111
   -18.0088 -18.0060 -18.0024 -18.0019 -17.9998 -17.9773 -17.9772 -17.9760
   -17.9753 -17.9748 -17.9741 -12.1900 -12.1856 -12.1081 -12.0430 -11.9823
   -11.9767 -11.9603 -11.9486 -11.8580 -11.8523 -11.8413 -11.7410 -11.7383
   -11.7316 -11.6935 -11.5280 -11.5202 -11.4771 -11.4331 -11.4209 -11.4172
   -11.4153 -11.4096 -11.4025 -11.3576 -11.3357 -11.3182 -11.3133 -11.3091
   -11.3055 -11.3035 -11.2960 -11.2780 -11.2705 -11.2541 -11.2493 -11.2468
   -11.2406 -11.2400 -11.2362 -11.2256 -11.2223 -11.2173 -11.2031 -11.2021
   -11.1785 -11.1576 -11.1446 -11.1392 -11.1265 -11.1207 -11.1144 -11.0972
   -11.0799 -11.0743 -11.0738 -11.0668 -11.0617 -11.0566 -11.0396 -11.0304
   -11.0292 -11.0217 -11.0189 -11.0119 -11.0109 -11.0095 -11.0088 -11.0077
   -11.0032 -10.9927 -10.9880 -10.9855 -10.9849 -10.9842 -10.9810 -10.9593
   -10.9587 -10.9576 -10.9570 -10.9543 -10.9503 -10.9470 -10.9343 -10.9337
   -10.9176 -10.9174 -10.9168 -10.9164 -10.9133 -10.9130 -10.8507 -10.8412
   -10.8360 -10.8004 -10.7749 -10.7733 -10.7653 -10.7589 -10.7566 -10.7206
   -10.5856 -10.4739 -10.3504 -10.3420 -10.3178 -10.2579 -10.1470 -10.1279
   -10.1118 -10.0770 -10.0077  -9.9907  -9.9891  -9.9800  -9.9785  -9.9722
    -9.9566  -9.9539  -9.9516  -9.9489  -9.9483  -9.9430  -9.9404  -9.9369
    -9.9317  -9.9287  -9.9261  -9.9194  -9.9078  -9.9051  -9.8896  -9.8541
    -9.8527  -9.8132  -9.8111  -9.8109  -9.8062  -9.8056  -9.8020  -9.7977
    -9.7975  -9.7967  -9.7958  -9.7944  -9.7918  -9.7836  -9.7766  -9.7554
    -9.7322  -9.7209  -9.7207  -9.7206  -9.7201  -9.7200  -9.7196  -9.7158
    -9.7134  -9.6985  -9.6979  -9.6829  -9.6779  -9.6554  -9.6534  -9.6317
    -9.6253  -9.5955  -9.5444  -9.5409  -9.5373  -9.5344  -9.5332  -9.5241
    -9.5106  -9.5101  -9.5029  -9.4899  -9.4834  -9.4801  -9.4370  -9.4330
    -9.4200  -9.4169  -9.4026  -9.4014  -9.3800  -9.3670  -9.3656  -9.3623
    -9.3591  -9.3585  -9.3567  -9.3501  -9.3149  -9.3125  -9.2930  -9.2873
    -9.2827  -9.2511  -9.2385  -9.2048  -9.1625  -9.1617  -9.1594  -9.1406
    -9.1401  -9.1345  -9.1332  -9.1277  -9.1190  -9.1109  -9.0969  -9.0967
    -9.0958  -9.0881  -9.0804  -9.0775  -9.0736  -9.0685  -9.0499  -9.0020
    -9.0010  -9.0009  -9.0004  -9.0001  -8.9997  -8.9915  -8.9455  -8.9342
    -8.9253  -8.9179  -8.9157  -8.9109  -8.8582  -8.8485  -8.8448  -8.8400
    -8.8370  -8.8345  -8.7787  -8.7781  -8.7730  -8.7725  -8.7703  -8.7693
    -8.7491  -8.7214  -8.6708  -8.6371  -8.6016  -8.5459  -8.5457  -8.5431
    -8.5414  -8.5389  -8.5352  -8.5340  -8.5311  -8.4937  -8.4617  -8.4612
    -8.4567  -8.4552  -8.4551  -8.4538  -8.4483  -8.4447  -8.4371  -8.4286
    -8.4284  -8.4263  -8.4245  -8.4218  -8.4181  -8.4004  -8.4004  -8.3994
    -8.3992  -8.3987  -8.3975  -8.3057  -8.2309  -8.1843  -8.1484  -8.0888
    -8.0397  -8.0391  -8.0377  -7.9659  -7.9645  -7.9585  -7.9031  -7.8865
    -7.8827  -7.8420  -7.8340  -7.8237  -7.8213  -7.8133  -7.8065  -7.8008
    -7.7893  -7.7887  -7.7742  -7.7672  -7.7437  -7.7409  -7.7279  -7.7213
    -7.7150  -7.7143  -7.7142  -7.7138  -7.7110  -7.7087  -7.7052  -7.6894
    -7.6882  -7.6875  -7.6862  -7.6856  -7.6837  -7.6770  -7.6672  -7.6625
    -7.6620  -7.6620  -7.6613  -7.6604  -7.6588  -7.6429  -7.6278  -7.6102
    -7.6074  -7.6073  -7.5986  -7.5925  -7.5851  -7.5815  -7.5789  -7.5754
    -7.5651  -7.5406  -7.5347  -7.5172  -7.5029  -7.5011  -7.4846  -7.4766
    -7.4738  -7.4680  -7.4673  -7.4651  -7.4623  -7.4494  -7.4406  -7.4301
    -7.4292  -7.4124  -7.4112  -7.3943  -7.3932  -7.3841  -7.3573  -7.3518
    -7.3206  -7.2761  -7.2755  -7.2677  -7.2237  -7.1943  -7.1495  -7.0949
    -7.0534  -7.0409  -7.0407  -7.0205  -7.0015  -6.9845  -6.9677  -6.9653
    -6.9539  -6.9316  -6.9200  -6.9194  -6.8821  -6.8644  -6.8641  -6.8432
    -6.8258  -6.8043  -6.8028  -6.7960  -6.7954  -6.7872  -6.7864  -6.7658
    -6.7490  -6.7423  -6.7311  -6.7255  -6.7173  -6.7004  -6.6968  -6.6940
    -6.6936  -6.6912  -6.6886  -6.6874  -6.6859  -6.6855  -6.6772  -6.6767
    -6.6767  -6.6766  -6.6764  -6.6762  -6.6623  -6.6486  -6.6462  -6.6415
    -6.6171  -6.6163  -6.6051  -6.5888  -6.5879  -6.5845  -6.5527  -6.5291
    -6.5165  -6.5162  -6.5156  -6.5115  -6.5080  -6.5030  -6.4891  -6.4856
    -6.4855  -6.4726  -6.4676  -6.4654  -6.4576  -6.4524  -6.4522  -6.4349
    -6.4316  -6.4316  -6.4294  -6.4275  -6.4273  -6.4094  -6.3597  -6.2228
    -6.1877  -5.9243  -5.8967  -5.5817  -5.5502  -5.3972  -5.3234  -5.2350
    -5.2004  -5.1310  -4.9269  -4.0373  -4.0335  -4.0288  -4.0281  -4.0266
    -4.0156  -4.0079  -4.0064  -4.0034  -4.0021  -4.0010  -3.9968  -3.8990
    -3.8810  -3.8767  -3.8699  -3.8656  -3.8646  -3.8598  -3.8590  -3.8540
    -3.8533  -3.8521  -3.8227  -3.7076  -3.6921  -3.6919  -3.6868  -3.6764
    -3.6761  -3.6635  -3.6585  -3.6535  -3.6508  -3.6499  -3.6477  -3.6426
    -3.6353  -3.6334  -3.6301  -3.6262  -3.6222  -3.6221  -3.6213  -3.6166
    -3.6153  -3.6069  -3.6068  -3.6057  -3.5992  -3.5954  -3.5897  -3.5894
    -3.5845  -3.5822  -3.5816  -3.5812  -3.5750  -3.5715  -3.5670  -3.5379
    -3.5269  -3.5262  -3.5258  -3.5226  -3.5223  -3.5198  -3.5147  -3.5095
    -3.5034  -3.4961  -3.4872  -3.4670  -3.4638  -3.4601  -3.4559  -3.4494
    -3.4418  -3.4017  -3.3968  -3.3896  -3.3849  -3.3813  -3.3774  -3.2479
    -3.2440  -3.2420  -3.2412  -3.2409  -3.2368  -3.2252  -3.2248  -3.2216
    -3.1788  -3.1730  -3.1632  -3.1615  -3.1551  -3.1508  -3.1504  -3.1492
    -3.1487  -3.1478  -3.1431  -3.1422  -3.1420  -3.1357  -3.1351  -3.1323
    -3.1293  -3.1268  -3.1188  -3.1178  -3.1136  -3.1119  -3.1111  -3.1108
    -3.1105  -3.1097  -3.1094  -3.1056  -3.1053  -3.0673  -3.0613  -3.0568
    -3.0544  -3.0449  -3.0373  -3.0279  -3.0205  -3.0032  -2.9854  -2.9853
    -2.9853  -2.9853  -2.9852  -2.9852  -2.9845  -2.9841  -2.9820  -2.9670
    -2.9662  -2.9436  -2.9334  -2.9330  -2.9161  -2.9107  -2.9072  -2.9051
    -2.8969  -2.8531  -2.8521  -2.8175  -2.8168  -2.7958  -2.7946  -2.7906
    -2.7788  -2.7779  -2.7763  -2.7515  -2.7439  -2.7372  -2.7252  -2.7184
    -2.7104  -2.5995  -2.5986  -2.5932  -2.5902  -2.5886  -2.5855

          k = 0.0000-0.5773 0.0000 (386352 PWs)   bands (ev):

  -101.3315 -89.4977 -89.4937 -69.7522 -69.7494 -69.6939 -69.6901 -69.6676
   -69.6667 -69.6638 -66.8102 -66.7985 -66.7985 -66.7976 -66.7976 -66.7976
   -66.7958 -66.7957 -66.7881 -66.7879 -66.7878 -66.7870 -66.7870 -66.7851
   -66.7851 -66.7822 -66.7793 -66.7756 -66.7732 -66.7729 -66.7728 -66.7727
   -66.7726 -66.7719 -66.7719 -66.7719 -66.7719 -66.7700 -66.7700 -66.7700
   -66.7700 -66.7692 -66.7684 -66.7683 -66.7675 -66.7674 -66.7674 -66.7656
   -66.7655 -66.7655 -66.7633 -66.7622 -66.7621 -66.7619 -66.7619 -66.7612
   -66.7612 -66.7611 -66.7611 -66.7593 -66.7593 -66.7592 -66.7592 -66.7576
   -66.7576 -66.7567 -66.7567 -66.7548 -66.7548 -66.7494 -66.7481 -66.7418
   -66.7408 -66.7296 -55.8434 -55.6040 -55.3344 -55.3096 -55.3074 -55.2824
   -55.2457 -55.0847 -55.0713 -41.1018 -41.1005 -41.1005 -41.1005 -41.1003
   -41.0996 -41.0996 -41.0996 -41.0996 -41.0984 -41.0984 -41.0984 -41.0984
   -41.0963 -41.0936 -41.0851 -41.0772 -41.0736 -41.0736 -41.0728 -41.0728
   -41.0716 -41.0715 -41.0703 -41.0616 -41.0616 -41.0607 -41.0607 -41.0595
   -41.0595 -41.0505 -41.0347 -41.0109 -41.0109 -41.0109 -41.0109 -41.0101
   -41.0100 -41.0100 -41.0100 -41.0088 -41.0088 -41.0088 -41.0088 -41.0058
   -40.9996 -40.9974 -40.9937 -40.9882 -40.9641 -40.9577 -40.9522 -40.9522
   -40.9513 -40.9512 -40.9501 -40.9500 -40.9459 -40.9426 -40.9426 -40.9418
   -40.9418 -40.9404 -40.9404 -40.9367 -40.9339 -40.9313 -40.9313 -40.9304
   -40.9304 -40.9292 -40.9292 -40.9280 -40.9212 -40.9146 -40.9059 -40.9020
   -40.9018 -40.9018 -40.9017 -40.9016 -40.9008 -40.9008 -40.9008 -40.9008
   -40.8995 -40.8995 -40.8995 -40.8995 -40.8946 -40.8930 -40.8930 -40.8921
   -40.8920 -40.8914 -40.8908 -40.8907 -40.8888 -40.8812 -40.8811 -40.8807
   -40.8807 -40.8806 -40.8805 -40.8803 -40.8803 -40.8802 -40.8798 -40.8797
   -40.8797 -40.8797 -40.8789 -40.8789 -40.8785 -40.8785 -40.8784 -40.8784
   -40.8781 -40.8761 -40.8756 -40.8720 -40.8719 -40.8711 -40.8711 -40.8698
   -40.8698 -40.8685 -40.8673 -40.8504 -40.8502 -40.8501 -40.8501 -40.8494
   -40.8494 -40.8493 -40.8493 -40.8490 -40.8479 -40.8479 -40.8479 -40.8478
   -40.8434 -40.8397 -40.8368 -40.8155 -40.8155 -40.8154 -40.8154 -40.8146
   -40.8146 -40.8146 -40.8146 -40.8131 -40.8131 -40.8131 -40.8131 -40.8102
   -40.8071 -40.8039 -40.8033 -40.8033 -40.8025 -40.8024 -40.8010 -40.8009
   -40.8005 -40.7952 -40.7841 -40.7839 -40.7832 -40.7831 -40.7817 -40.7816
   -40.7816 -40.7768 -40.7670 -40.7670 -40.7668 -40.7661 -40.7661 -40.7646
   -40.7646 -40.7549 -40.7450 -40.7364 -40.7363 -40.7355 -40.7354 -40.7339
   -40.7339 -40.7276 -40.7180 -20.1686 -20.0678 -20.0445 -20.0084 -19.9453
   -19.9169 -19.8372 -19.8263 -19.6798 -19.6385 -19.6060 -19.5872 -19.5146
   -19.4978 -19.4118 -19.4036 -19.2475 -19.0143 -18.9792 -18.9458 -18.9260
   -18.9177 -18.9033 -18.8962 -18.8904 -18.8867 -18.8651 -18.8413 -18.8320
   -18.8216 -18.8143 -18.8004 -18.7704 -18.7587 -18.7485 -18.7324 -18.7304
   -18.7246 -18.7100 -18.6989 -18.6917 -18.6584 -18.6565 -18.6524 -18.6468
   -18.6159 -18.5911 -18.5875 -18.5833 -18.5572 -18.5495 -18.5316 -18.5119
   -18.4971 -18.4927 -18.4632 -18.4320 -18.4294 -18.4249 -18.4106 -18.3775
   -18.3687 -18.3603 -18.3401 -18.3125 -18.2967 -18.2933 -18.2894 -18.2822
   -18.2804 -18.2767 -18.2750 -18.2644 -18.2531 -18.2519 -18.2494 -18.2455
   -18.2446 -18.2341 -18.2298 -18.2266 -18.2198 -18.2174 -18.2078 -18.1890
   -18.1876 -18.1835 -18.1804 -18.1781 -18.1759 -18.1723 -18.1668 -18.1660
   -18.1568 -18.1278 -18.1260 -18.1162 -18.1136 -18.1076 -18.0980 -18.0714
   -18.0705 -18.0625 -18.0537 -18.0287 -18.0268 -18.0234 -18.0179 -18.0089
   -18.0000 -17.9983 -17.9979 -17.9976 -17.9962 -17.9956 -17.9913 -17.9824
   -17.9806 -17.9638 -17.9617 -17.9412 -17.9392 -17.9229 -17.9207 -17.9072
   -17.9064 -17.8980 -17.8979 -12.0433 -12.0076 -11.8982 -11.8858 -11.8183
   -11.7511 -11.7171 -11.6967 -11.6781 -11.6741 -11.6722 -11.6612 -11.6521
   -11.6435 -11.6280 -11.5914 -11.5773 -11.5635 -11.5586 -11.5426 -11.5297
   -11.5129 -11.5018 -11.4974 -11.4780 -11.4598 -11.4527 -11.4497 -11.4398
   -11.4382 -11.4350 -11.4310 -11.4272 -11.3885 -11.3824 -11.3733 -11.3691
   -11.3563 -11.3505 -11.3465 -11.3453 -11.3331 -11.3248 -11.3242 -11.3074
   -11.2950 -11.2652 -11.2550 -11.2411 -11.2392 -11.2284 -11.1751 -11.1648
   -11.1301 -11.1170 -11.1093 -11.1069 -11.0978 -11.0860 -11.0785 -11.0641
   -11.0374 -11.0346 -11.0149 -11.0132 -11.0072 -10.9989 -10.9918 -10.9901
   -10.9899 -10.9882 -10.9877 -10.9818 -10.9769 -10.9736 -10.9732 -10.9709
   -10.9702 -10.9624 -10.9619 -10.9596 -10.9579 -10.9222 -10.9215 -10.9210
   -10.9209 -10.8558 -10.7788 -10.7204 -10.7104 -10.7052 -10.6945 -10.6662
   -10.6417 -10.5975 -10.5716 -10.5318 -10.4624 -10.4279 -10.4210 -10.3372
   -10.3276 -10.3100 -10.3073 -10.2881 -10.2844 -10.2635 -10.2593 -10.2344
   -10.2265 -10.2127 -10.2094 -10.2089 -10.2056 -10.1956 -10.1898 -10.1635
   -10.1484 -10.1129 -10.1082 -10.1054 -10.0895 -10.0863 -10.0754 -10.0700
   -10.0595 -10.0414 -10.0370 -10.0268 -10.0179  -9.9881  -9.9761  -9.9606
    -9.9556  -9.9446  -9.9440  -9.9151  -9.9078  -9.8894  -9.8745  -9.8632
    -9.8604  -9.8329  -9.8319  -9.8010  -9.7970  -9.7935  -9.7855  -9.7651
    -9.7474  -9.7352  -9.7293  -9.7190  -9.7140  -9.7112  -9.7028  -9.6722
    -9.6694  -9.6657  -9.6517  -9.6510  -9.6461  -9.6417  -9.6374  -9.6326
    -9.6191  -9.6106  -9.6034  -9.5681  -9.5499  -9.5359  -9.5256  -9.4707
    -9.4610  -9.4404  -9.4109  -9.3981  -9.3908  -9.3831  -9.3782  -9.3689
    -9.3480  -9.3368  -9.3229  -9.3144  -9.3035  -9.2991  -9.2861  -9.2617
    -9.2597  -9.2380  -9.2243  -9.2187  -9.2178  -9.2112  -9.2041  -9.1797
    -9.1680  -9.1562  -9.1551  -9.1336  -9.1290  -9.1243  -9.1229  -9.1069
    -9.0965  -9.0786  -9.0704  -9.0700  -9.0669  -9.0656  -9.0616  -9.0561
    -9.0501  -9.0479  -9.0450  -9.0412  -9.0377  -9.0349  -9.0327  -9.0294
    -9.0185  -9.0181  -9.0129  -8.9963  -8.9892  -8.9716  -8.9708  -8.9698
    -8.9686  -8.9635  -8.9620  -8.9453  -8.9413  -8.9396  -8.9154  -8.9118
    -8.9092  -8.9057  -8.8980  -8.8764  -8.8415  -8.8309  -8.8213  -8.7926
    -8.7721  -8.7461  -8.6910  -8.6829  -8.6719  -8.6339  -8.6163  -8.5993
    -8.5726  -8.5396  -8.5313  -8.4693  -8.4573  -8.4438  -8.4097  -8.3620
    -8.3063  -8.3060  -8.2989  -8.2973  -8.2906  -8.2859  -8.2842  -8.2488
    -8.2439  -8.2324  -8.1691  -8.1484  -8.1377  -8.0994  -8.0712  -8.0359
    -8.0272  -8.0212  -8.0168  -8.0111  -7.9996  -7.9935  -7.9905  -7.9835
    -7.9810  -7.9806  -7.9777  -7.9755  -7.9723  -7.9669  -7.9616  -7.9599
    -7.9564  -7.9553  -7.9482  -7.9474  -7.9452  -7.9442  -7.9417  -7.9408
    -7.9370  -7.9366  -7.9310  -7.9228  -7.9159  -7.9118  -7.9079  -7.9055
    -7.9006  -7.8902  -7.8758  -7.8749  -7.8745  -7.8735  -7.8505  -7.8489
    -7.8447  -7.8441  -7.8420  -7.8408  -7.8300  -7.8230  -7.8113  -7.7978
    -7.7907  -7.7870  -7.7860  -7.7810  -7.7757  -7.7736  -7.7639  -7.7623
    -7.7470  -7.7426  -7.7420  -7.7364  -7.7332  -7.7271  -7.7265  -7.7052
    -7.6472  -7.6401  -7.6361  -7.6339  -7.6181  -7.6049  -7.5688  -7.5572
    -7.5005  -7.4161  -7.3857  -7.3696  -7.3510  -7.3473  -7.3429  -7.3372
    -7.3121  -7.3008  -7.2892  -7.2826  -7.2804  -7.2672  -7.2528  -7.2339
    -7.2208  -7.2037  -7.2003  -7.1909  -7.1786  -7.1680  -7.1619  -7.1557
    -7.1450  -7.1105  -7.0964  -7.0900  -7.0744  -7.0694  -7.0539  -7.0402
    -7.0381  -7.0329  -7.0117  -6.9990  -6.9868  -6.9695  -6.9420  -6.9370
    -6.9190  -6.8816  -6.8622  -6.8485  -6.8291  -6.8124  -6.8046  -6.7961
    -6.7874  -6.7841  -6.7828  -6.7815  -6.7733  -6.7665  -6.7657  -6.7652
    -6.7621  -6.7573  -6.7572  -6.7571  -6.7567  -6.7369  -6.7110  -6.6845
    -6.6625  -6.6574  -6.5963  -6.5772  -6.5589  -6.5112  -6.5054  -6.5041
    -6.4928  -6.4873  -6.4762  -6.4621  -6.4574  -6.4560  -6.4553  -6.4536
    -6.4503  -6.4487  -6.4332  -6.4281  -6.4134  -6.4092  -6.3999  -6.3934
    -6.3825  -6.3783  -6.3763  -6.3746  -6.3124  -6.2146  -6.1764  -6.1719
    -6.1312  -6.1225  -6.0839  -6.0704  -6.0505  -6.0429  -6.0220  -6.0182
    -5.9205  -5.8675  -5.8136  -5.7734  -5.7571  -5.5273  -5.3760  -5.2236
    -5.2010  -5.1394  -4.9167  -4.2699  -4.2685  -4.2619  -4.2532  -4.1182
    -4.1070  -4.0976  -4.0926  -4.0840  -4.0583  -4.0251  -4.0201  -4.0108
    -4.0050  -3.9918  -3.9885  -3.9770  -3.9761  -3.9729  -3.9435  -3.8704
    -3.8640  -3.8590  -3.8284  -3.7923  -3.7812  -3.7799  -3.7760  -3.7748
    -3.7565  -3.7327  -3.7277  -3.7103  -3.7062  -3.6998  -3.6958  -3.6922
    -3.6878  -3.6670  -3.6612  -3.6588  -3.6525  -3.6503  -3.6489  -3.6427
    -3.6370  -3.6259  -3.6202  -3.6128  -3.6047  -3.5982  -3.5928  -3.5893
    -3.5827  -3.5416  -3.5318  -3.5276  -3.5263  -3.5235  -3.5229  -3.5195
    -3.5163  -3.4949  -3.4873  -3.4739  -3.4674  -3.4670  -3.4624  -3.4579
    -3.4568  -3.4537  -3.4521  -3.4342  -3.4272  -3.4246  -3.4185  -3.4118
    -3.4074  -3.4035  -3.3933  -3.3884  -3.3864  -3.3856  -3.3762  -3.3693
    -3.3600  -3.3549  -3.3512  -3.3482  -3.3405  -3.3382  -3.3380  -3.3378
    -3.3332  -3.2812  -3.2763  -3.2619  -3.2472  -3.2442  -3.2419  -3.2393
    -3.2352  -3.2032  -3.2016  -3.2007  -3.2000  -3.1988  -3.1979  -3.1888
    -3.1876  -3.1865  -3.1858  -3.1800  -3.1751  -3.1687  -3.1674  -3.1580
    -3.1539  -3.1533  -3.1478  -3.1462  -3.1404  -3.1376  -3.1316  -3.1287
    -3.1245  -3.1225  -3.1196  -3.1105  -3.1081  -3.1042  -3.0934  -3.0734
    -3.0703  -3.0689  -3.0611  -3.0534  -3.0527  -3.0471  -3.0400  -2.9722
    -2.9689  -2.9671  -2.9638  -2.9157  -2.9024  -2.8936  -2.8853  -2.7969
    -2.7890  -2.7683  -2.7646  -2.7492  -2.7461  -2.7262  -2.7209  -2.7187
    -2.7094  -2.7046  -2.7028  -2.7016  -2.6989  -2.5836  -2.5782  -2.5741
    -2.5726  -2.5613  -2.5608  -2.5253  -2.5249  -2.5102  -2.5068

          k =-0.5000-0.2887 0.0000 (386352 PWs)   bands (ev):

  -101.3315 -89.4977 -89.4937 -69.7522 -69.7494 -69.6939 -69.6901 -69.6676
   -69.6667 -69.6638 -66.8106 -66.7986 -66.7984 -66.7977 -66.7976 -66.7958
   -66.7957 -66.7946 -66.7901 -66.7879 -66.7878 -66.7870 -66.7870 -66.7861
   -66.7851 -66.7851 -66.7780 -66.7733 -66.7731 -66.7731 -66.7725 -66.7724
   -66.7723 -66.7719 -66.7719 -66.7719 -66.7719 -66.7700 -66.7700 -66.7700
   -66.7700 -66.7695 -66.7684 -66.7682 -66.7675 -66.7674 -66.7663 -66.7660
   -66.7656 -66.7655 -66.7647 -66.7626 -66.7621 -66.7618 -66.7616 -66.7613
   -66.7612 -66.7611 -66.7611 -66.7593 -66.7593 -66.7592 -66.7592 -66.7576
   -66.7576 -66.7567 -66.7567 -66.7548 -66.7548 -66.7497 -66.7471 -66.7444
   -66.7390 -66.7297 -55.8434 -55.6040 -55.3344 -55.3096 -55.3074 -55.2824
   -55.2457 -55.0847 -55.0713 -41.1095 -41.1067 -41.1008 -41.1005 -41.1004
   -41.1001 -41.0997 -41.0996 -41.0996 -41.0995 -41.0984 -41.0984 -41.0984
   -41.0984 -41.0798 -41.0787 -41.0737 -41.0736 -41.0729 -41.0727 -41.0716
   -41.0715 -41.0708 -41.0616 -41.0616 -41.0613 -41.0607 -41.0607 -41.0595
   -41.0595 -41.0528 -41.0471 -41.0109 -41.0109 -41.0108 -41.0108 -41.0101
   -41.0100 -41.0100 -41.0100 -41.0088 -41.0088 -41.0088 -41.0088 -41.0060
   -41.0046 -40.9999 -40.9943 -40.9882 -40.9642 -40.9573 -40.9523 -40.9521
   -40.9513 -40.9512 -40.9501 -40.9500 -40.9457 -40.9426 -40.9426 -40.9418
   -40.9418 -40.9404 -40.9404 -40.9348 -40.9342 -40.9313 -40.9313 -40.9304
   -40.9304 -40.9292 -40.9292 -40.9267 -40.9246 -40.9117 -40.9048 -40.9020
   -40.9020 -40.9014 -40.9014 -40.9010 -40.9008 -40.9008 -40.9008 -40.9008
   -40.8995 -40.8995 -40.8995 -40.8995 -40.8955 -40.8931 -40.8929 -40.8921
   -40.8920 -40.8908 -40.8907 -40.8890 -40.8885 -40.8872 -40.8811 -40.8811
   -40.8811 -40.8808 -40.8804 -40.8804 -40.8803 -40.8803 -40.8798 -40.8797
   -40.8797 -40.8796 -40.8789 -40.8789 -40.8785 -40.8785 -40.8784 -40.8784
   -40.8774 -40.8765 -40.8720 -40.8720 -40.8711 -40.8711 -40.8710 -40.8698
   -40.8698 -40.8698 -40.8661 -40.8520 -40.8506 -40.8503 -40.8500 -40.8498
   -40.8494 -40.8494 -40.8493 -40.8493 -40.8479 -40.8479 -40.8478 -40.8478
   -40.8478 -40.8319 -40.8286 -40.8155 -40.8155 -40.8154 -40.8154 -40.8146
   -40.8146 -40.8146 -40.8146 -40.8131 -40.8131 -40.8131 -40.8131 -40.8094
   -40.8062 -40.8053 -40.8034 -40.8032 -40.8025 -40.8024 -40.8010 -40.8009
   -40.7999 -40.7993 -40.7843 -40.7837 -40.7832 -40.7831 -40.7817 -40.7816
   -40.7816 -40.7803 -40.7670 -40.7670 -40.7661 -40.7661 -40.7651 -40.7646
   -40.7646 -40.7544 -40.7524 -40.7365 -40.7361 -40.7355 -40.7354 -40.7339
   -40.7339 -40.7308 -40.7111 -20.1719 -20.0668 -20.0446 -20.0056 -19.9452
   -19.9142 -19.8369 -19.8254 -19.6787 -19.6420 -19.6059 -19.5900 -19.5144
   -19.4994 -19.4117 -19.4042 -19.2524 -19.0056 -18.9593 -18.9591 -18.9282
   -18.9194 -18.9031 -18.8946 -18.8930 -18.8871 -18.8698 -18.8392 -18.8301
   -18.8214 -18.8166 -18.8011 -18.7641 -18.7611 -18.7456 -18.7315 -18.7260
   -18.7246 -18.7197 -18.6994 -18.6729 -18.6630 -18.6625 -18.6568 -18.6454
   -18.6143 -18.5912 -18.5869 -18.5777 -18.5682 -18.5500 -18.5362 -18.5083
   -18.4918 -18.4880 -18.4876 -18.4388 -18.4245 -18.4141 -18.4098 -18.3837
   -18.3684 -18.3506 -18.3421 -18.3258 -18.3014 -18.2903 -18.2873 -18.2818
   -18.2801 -18.2779 -18.2752 -18.2547 -18.2539 -18.2508 -18.2495 -18.2468
   -18.2440 -18.2397 -18.2268 -18.2253 -18.2179 -18.2134 -18.2082 -18.1925
   -18.1856 -18.1818 -18.1793 -18.1790 -18.1752 -18.1706 -18.1661 -18.1653
   -18.1547 -18.1386 -18.1167 -18.1157 -18.1121 -18.1040 -18.0976 -18.0762
   -18.0663 -18.0595 -18.0539 -18.0297 -18.0274 -18.0217 -18.0180 -18.0088
   -18.0057 -17.9993 -17.9981 -17.9973 -17.9964 -17.9955 -17.9952 -17.9839
   -17.9818 -17.9654 -17.9625 -17.9410 -17.9393 -17.9217 -17.9199 -17.9064
   -17.9056 -17.8979 -17.8978 -12.0742 -12.0274 -11.8988 -11.8824 -11.7801
   -11.7342 -11.6981 -11.6955 -11.6782 -11.6742 -11.6635 -11.6582 -11.6358
   -11.6339 -11.6255 -11.5942 -11.5805 -11.5701 -11.5678 -11.5299 -11.5235
   -11.5135 -11.5113 -11.4948 -11.4742 -11.4672 -11.4611 -11.4531 -11.4418
   -11.4385 -11.4376 -11.4330 -11.4281 -11.3858 -11.3842 -11.3750 -11.3685
   -11.3538 -11.3484 -11.3481 -11.3458 -11.3279 -11.3274 -11.3243 -11.3086
   -11.2980 -11.2658 -11.2612 -11.2470 -11.2468 -11.2113 -11.1822 -11.1579
   -11.1530 -11.1205 -11.1169 -11.1046 -11.1041 -11.0790 -11.0702 -11.0514
   -11.0423 -11.0235 -11.0158 -11.0094 -11.0087 -11.0031 -10.9912 -10.9901
   -10.9897 -10.9890 -10.9878 -10.9798 -10.9767 -10.9741 -10.9739 -10.9698
   -10.9696 -10.9634 -10.9620 -10.9590 -10.9498 -10.9265 -10.9215 -10.9209
   -10.9201 -10.9160 -10.7915 -10.7195 -10.7111 -10.7071 -10.7005 -10.6627
   -10.6288 -10.6103 -10.5666 -10.5261 -10.4302 -10.3995 -10.3944 -10.3552
   -10.3349 -10.3212 -10.2991 -10.2934 -10.2799 -10.2735 -10.2407 -10.2305
   -10.2279 -10.2162 -10.2144 -10.2056 -10.2001 -10.1957 -10.1874 -10.1696
   -10.1570 -10.1220 -10.1174 -10.0998 -10.0977 -10.0907 -10.0817 -10.0783
   -10.0719 -10.0554 -10.0421 -10.0260  -9.9996  -9.9968  -9.9776  -9.9694
    -9.9544  -9.9524  -9.9418  -9.9243  -9.9027  -9.9016  -9.8846  -9.8729
    -9.8513  -9.8392  -9.8365  -9.8057  -9.8039  -9.7925  -9.7818  -9.7563
    -9.7397  -9.7312  -9.7256  -9.7246  -9.7155  -9.7101  -9.6947  -9.6707
    -9.6673  -9.6576  -9.6572  -9.6539  -9.6405  -9.6364  -9.6353  -9.6190
    -9.6124  -9.6063  -9.6038  -9.5514  -9.5413  -9.5106  -9.4887  -9.4808
    -9.4736  -9.4358  -9.4054  -9.3930  -9.3922  -9.3827  -9.3799  -9.3602
    -9.3535  -9.3355  -9.3273  -9.3174  -9.3109  -9.2962  -9.2789  -9.2641
    -9.2525  -9.2421  -9.2360  -9.2204  -9.2201  -9.2112  -9.2015  -9.1857
    -9.1799  -9.1616  -9.1391  -9.1365  -9.1319  -9.1310  -9.1200  -9.1005
    -9.0894  -9.0785  -9.0711  -9.0709  -9.0664  -9.0635  -9.0615  -9.0613
    -9.0595  -9.0536  -9.0476  -9.0463  -9.0369  -9.0306  -9.0252  -9.0234
    -9.0185  -9.0178  -9.0080  -9.0034  -8.9904  -8.9753  -8.9724  -8.9699
    -8.9642  -8.9618  -8.9612  -8.9422  -8.9399  -8.9374  -8.9120  -8.9103
    -8.9094  -8.9067  -8.8981  -8.8800  -8.8449  -8.8404  -8.8207  -8.8076
    -8.7731  -8.7466  -8.6830  -8.6820  -8.6680  -8.6337  -8.6213  -8.5933
    -8.5381  -8.5373  -8.5163  -8.4991  -8.4904  -8.4396  -8.4075  -8.3349
    -8.3108  -8.3059  -8.3045  -8.2970  -8.2951  -8.2857  -8.2850  -8.2473
    -8.2328  -8.2171  -8.1976  -8.1528  -8.1496  -8.1276  -8.1078  -8.0230
    -8.0195  -8.0172  -8.0155  -8.0058  -7.9976  -7.9940  -7.9922  -7.9844
    -7.9835  -7.9784  -7.9729  -7.9710  -7.9695  -7.9682  -7.9659  -7.9644
    -7.9597  -7.9595  -7.9491  -7.9479  -7.9462  -7.9451  -7.9435  -7.9424
    -7.9373  -7.9370  -7.9335  -7.9235  -7.9197  -7.9148  -7.9123  -7.9061
    -7.8959  -7.8954  -7.8861  -7.8756  -7.8743  -7.8727  -7.8726  -7.8463
    -7.8445  -7.8429  -7.8425  -7.8393  -7.8280  -7.8197  -7.8098  -7.7930
    -7.7870  -7.7864  -7.7835  -7.7767  -7.7747  -7.7715  -7.7650  -7.7634
    -7.7433  -7.7425  -7.7399  -7.7347  -7.7251  -7.7192  -7.7148  -7.6837
    -7.6422  -7.6415  -7.6352  -7.6282  -7.6226  -7.6058  -7.5923  -7.5386
    -7.4728  -7.4258  -7.3799  -7.3505  -7.3473  -7.3468  -7.3394  -7.3192
    -7.3048  -7.3004  -7.2925  -7.2790  -7.2738  -7.2668  -7.2348  -7.2300
    -7.2217  -7.2198  -7.1980  -7.1966  -7.1794  -7.1601  -7.1584  -7.1493
    -7.1364  -7.1081  -7.1028  -7.0862  -7.0751  -7.0718  -7.0501  -7.0486
    -7.0478  -7.0305  -7.0239  -7.0139  -7.0026  -6.9640  -6.9407  -6.9385
    -6.9350  -6.8850  -6.8621  -6.8525  -6.8410  -6.8220  -6.7972  -6.7953
    -6.7918  -6.7860  -6.7856  -6.7829  -6.7826  -6.7688  -6.7680  -6.7657
    -6.7655  -6.7578  -6.7575  -6.7572  -6.7571  -6.7518  -6.7362  -6.6790
    -6.6663  -6.6617  -6.6263  -6.5809  -6.5779  -6.5097  -6.5060  -6.5029
    -6.4979  -6.4773  -6.4740  -6.4672  -6.4569  -6.4560  -6.4533  -6.4507
    -6.4494  -6.4489  -6.4328  -6.4282  -6.4139  -6.4065  -6.4005  -6.3885
    -6.3832  -6.3787  -6.3743  -6.3719  -6.2292  -6.2269  -6.1725  -6.1695
    -6.1237  -6.1233  -6.0765  -6.0678  -6.0509  -6.0256  -6.0213  -6.0170
    -5.8873  -5.8715  -5.8482  -5.7743  -5.7681  -5.5321  -5.3731  -5.2365
    -5.2015  -5.1305  -4.9057  -4.2682  -4.2639  -4.2633  -4.2538  -4.1183
    -4.1085  -4.0944  -4.0857  -4.0834  -4.0621  -4.0216  -4.0209  -4.0079
    -4.0065  -3.9906  -3.9898  -3.9766  -3.9765  -3.9697  -3.9524  -3.8693
    -3.8610  -3.8556  -3.8295  -3.7901  -3.7865  -3.7824  -3.7769  -3.7749
    -3.7656  -3.7366  -3.7287  -3.7189  -3.7109  -3.7035  -3.6929  -3.6912
    -3.6854  -3.6655  -3.6647  -3.6594  -3.6525  -3.6516  -3.6496  -3.6445
    -3.6356  -3.6276  -3.6241  -3.6121  -3.6054  -3.6001  -3.5981  -3.5881
    -3.5859  -3.5451  -3.5284  -3.5280  -3.5255  -3.5197  -3.5196  -3.5155
    -3.5154  -3.4989  -3.4908  -3.4723  -3.4658  -3.4643  -3.4595  -3.4563
    -3.4550  -3.4542  -3.4538  -3.4343  -3.4214  -3.4209  -3.4176  -3.4080
    -3.4045  -3.4033  -3.4024  -3.3890  -3.3882  -3.3851  -3.3781  -3.3685
    -3.3648  -3.3528  -3.3510  -3.3484  -3.3442  -3.3381  -3.3380  -3.3375
    -3.3274  -3.2825  -3.2749  -3.2590  -3.2472  -3.2445  -3.2440  -3.2366
    -3.2356  -3.2060  -3.2030  -3.2013  -3.1990  -3.1978  -3.1976  -3.1927
    -3.1900  -3.1849  -3.1826  -3.1786  -3.1759  -3.1681  -3.1633  -3.1579
    -3.1572  -3.1568  -3.1450  -3.1439  -3.1421  -3.1417  -3.1323  -3.1305
    -3.1245  -3.1232  -3.1204  -3.1151  -3.1089  -3.1068  -3.0923  -3.0791
    -3.0733  -3.0599  -3.0588  -3.0545  -3.0491  -3.0441  -3.0422  -2.9741
    -2.9690  -2.9629  -2.9626  -2.9034  -2.9016  -2.8946  -2.8937  -2.8038
    -2.7870  -2.7714  -2.7596  -2.7517  -2.7421  -2.7233  -2.7175  -2.7090
    -2.7071  -2.7065  -2.7033  -2.7021  -2.6958  -2.5776  -2.5758  -2.5754
    -2.5735  -2.5616  -2.5612  -2.5232  -2.5223  -2.5147  -2.5140

          k =-0.5000-0.8660 0.0000 (386352 PWs)   bands (ev):

  -101.3315 -89.4977 -89.4937 -69.7522 -69.7494 -69.6939 -69.6901 -69.6676
   -69.6667 -69.6638 -66.8102 -66.7985 -66.7985 -66.7977 -66.7976 -66.7976
   -66.7958 -66.7957 -66.7881 -66.7879 -66.7878 -66.7870 -66.7870 -66.7851
   -66.7851 -66.7821 -66.7793 -66.7757 -66.7733 -66.7729 -66.7728 -66.7727
   -66.7726 -66.7719 -66.7719 -66.7719 -66.7719 -66.7700 -66.7700 -66.7700
   -66.7700 -66.7691 -66.7683 -66.7683 -66.7676 -66.7675 -66.7674 -66.7656
   -66.7655 -66.7654 -66.7633 -66.7621 -66.7621 -66.7619 -66.7619 -66.7612
   -66.7612 -66.7611 -66.7611 -66.7593 -66.7593 -66.7593 -66.7592 -66.7576
   -66.7576 -66.7567 -66.7567 -66.7548 -66.7548 -66.7495 -66.7480 -66.7418
   -66.7408 -66.7296 -55.8434 -55.6040 -55.3344 -55.3096 -55.3075 -55.2824
   -55.2457 -55.0847 -55.0713 -41.1017 -41.1005 -41.1005 -41.1004 -41.1003
   -41.0997 -41.0996 -41.0996 -41.0995 -41.0985 -41.0984 -41.0984 -41.0983
   -41.0963 -41.0936 -41.0851 -41.0773 -41.0737 -41.0736 -41.0728 -41.0728
   -41.0716 -41.0715 -41.0703 -41.0616 -41.0616 -41.0607 -41.0607 -41.0595
   -41.0595 -41.0506 -41.0347 -41.0109 -41.0109 -41.0109 -41.0109 -41.0100
   -41.0100 -41.0100 -41.0100 -41.0088 -41.0088 -41.0088 -41.0088 -41.0059
   -40.9996 -40.9973 -40.9937 -40.9883 -40.9640 -40.9578 -40.9522 -40.9521
   -40.9513 -40.9512 -40.9501 -40.9500 -40.9459 -40.9427 -40.9426 -40.9418
   -40.9418 -40.9404 -40.9404 -40.9367 -40.9339 -40.9313 -40.9313 -40.9304
   -40.9304 -40.9292 -40.9292 -40.9281 -40.9211 -40.9145 -40.9059 -40.9019
   -40.9018 -40.9018 -40.9017 -40.9016 -40.9008 -40.9008 -40.9008 -40.9008
   -40.8995 -40.8995 -40.8995 -40.8995 -40.8946 -40.8930 -40.8930 -40.8921
   -40.8920 -40.8915 -40.8908 -40.8907 -40.8888 -40.8812 -40.8811 -40.8808
   -40.8807 -40.8806 -40.8805 -40.8803 -40.8803 -40.8802 -40.8798 -40.8798
   -40.8797 -40.8797 -40.8789 -40.8789 -40.8785 -40.8785 -40.8784 -40.8784
   -40.8781 -40.8760 -40.8756 -40.8720 -40.8720 -40.8711 -40.8711 -40.8698
   -40.8698 -40.8685 -40.8674 -40.8503 -40.8502 -40.8502 -40.8501 -40.8494
   -40.8494 -40.8493 -40.8493 -40.8490 -40.8479 -40.8479 -40.8479 -40.8478
   -40.8436 -40.8397 -40.8368 -40.8155 -40.8155 -40.8154 -40.8154 -40.8146
   -40.8146 -40.8146 -40.8146 -40.8131 -40.8131 -40.8131 -40.8131 -40.8102
   -40.8073 -40.8038 -40.8033 -40.8033 -40.8025 -40.8024 -40.8010 -40.8009
   -40.8004 -40.7951 -40.7841 -40.7839 -40.7832 -40.7831 -40.7818 -40.7817
   -40.7816 -40.7770 -40.7670 -40.7670 -40.7666 -40.7661 -40.7661 -40.7646
[...]
     atom  171 type  2   force =    -0.00000413   -0.00000097    0.00000125
     atom  172 type  2   force =    -0.00000052    0.00000038    0.00161287
     atom  173 type  2   force =    -0.00000067   -0.00000013   -0.00236298
     atom  174 type  2   force =    -0.00000542    0.00000676    0.00001750
     atom  175 type  1   force =    -0.00000294    0.00001580   -0.00000710
     atom  176 type  1   force =     0.00020203   -0.00005361   -0.00012027
     atom  177 type  2   force =    -0.00012966   -0.00009528    0.00023887
     atom  178 type  2   force =     0.00000153    0.00003573   -0.00001136
     atom  179 type  2   force =     0.00001577    0.00002981   -0.00000083
     atom  180 type  2   force =     0.00012938    0.00004526   -0.00028256
     atom  181 type  1   force =     0.00000122   -0.00000055    0.00068302
     atom  182 type  1   force =    -0.00001002   -0.00000403    0.00000017
     atom  183 type  2   force =    -0.00000224   -0.00000219    0.00000172
     atom  184 type  2   force =    -0.00000054    0.00000050    0.00161292
     atom  185 type  2   force =    -0.00000080   -0.00000003   -0.00236298
     atom  186 type  2   force =    -0.00000398    0.00000596    0.00002282
     atom  187 type  1   force =    -0.00000418    0.00001707   -0.00000108
     atom  188 type  1   force =     0.00008388    0.00016804   -0.00011706
     atom  189 type  2   force =    -0.00014215    0.00022227   -0.00004936
     atom  190 type  2   force =     0.00001231    0.00001653   -0.00000946
     atom  191 type  2   force =     0.00001354    0.00003449   -0.00000395
     atom  192 type  2   force =    -0.00006560   -0.00019654   -0.00002904
     atom  193 type  3   force =     0.00018858    0.00011305   -0.00017945
     atom  194 type  3   force =     0.00018334    0.00003940   -0.00017057
     atom  195 type  4   force =     0.00076965    0.00043617    0.00013717

     Total force =     0.003063     Total SCF correction =     0.000253
     Energy error            =      1.6E-05 Ry
     Gradient error          =      7.7E-04 Ry/Bohr

     bfgs converged in  21 scf cycles and  20 bfgs steps
     (criteria: energy <  1.0E-04 Ry, force <  1.0E-03 Ry/Bohr)

     End of BFGS Geometry Optimization

     Final energy             =  -34492.2275734072 Ry

     File ./outdir/pwscf.bfgs deleted, as requested
Begin final coordinates

ATOMIC_POSITIONS (angstrom)
Mo               0.0000119917        1.8193638619       -9.1672481230    0   0   0
Mo               1.5756136568        0.9097075315       -3.0554901653    0   0   0
S                0.0000188998        1.8193822938       -4.6232556019    0   0   0
S                1.5756321638        0.9096773839       -7.6014065489    0   0   0
S                1.5756326175        0.9096785128      -10.7330757790    0   0   0
S                0.0000189190        1.8193860094       -1.4877129945    0   0   0
Mo               0.0003175612        1.8217064536        3.0581374859
Mo               1.5718410190        0.9197328069        9.1715907080
S                0.0033760681        1.8240905394        7.5835453372
S                1.5765545903        0.9122271106        4.6254994481
S                1.5756214498        0.9118688221        1.4899707752
S               -0.0124518313        1.8203696499       10.7312835012
Mo              -1.5756053507        4.5484193819       -9.1672481230    0   0   0
Mo               0.0000378379        3.6387394919       -3.0554952701    0   0   0
S               -1.5755913433        4.5484363582       -4.6232494962    0   0   0
S                0.0000148214        3.6387329039       -7.6014065489    0   0   0
S                0.0000152751        3.6387340328      -10.7330757790    0   0   0
S               -1.5755906502        4.5484413613       -1.4877305502    0   0   0
Mo              -1.5753534983        4.5508800850        3.0581298976
Mo              -0.0371310450        3.6319732868        9.1551107399
S               -1.5825656568        4.5707896939        7.5836037332
S                0.0006872031        3.6414514973        4.6262493261
S                0.0001392379        3.6409326647        1.4902673369
S               -1.5937402643        4.5592188688       10.7313479135
Mo              -3.1512226931        7.2774749019       -9.1672481230    0   0   0
Mo              -1.5755910988        6.3678216792       -3.0555115988    0   0   0
S               -3.1512162438        7.2774954350       -4.6232578178    0   0   0
S               -1.5756025210        6.3677884239       -7.6014065489    0   0   0
S               -1.5756020673        6.3677895528      -10.7330757790    0   0   0
S               -3.1512127704        7.2774877076       -1.4877200710    0   0   0
Mo              -3.1511078749        7.2798119999        3.0577588225
Mo              -1.5815404450        6.3814204381        9.1715961898
S               -3.1479376455        7.2957413830        7.5954154085
S               -1.5749566440        6.3708067907        4.6254875805
S               -1.5755160342        6.3698824843        1.4899679962
S               -3.1626250422        7.2940807128       10.7339882374
Mo              -4.7268400355       10.0065304219       -9.1672481230    0   0   0
Mo              -3.1512405618        9.0968403586       -3.0554816746    0   0   0
S               -4.7268341792       10.0065523623       -4.6232463762    0   0   0
S               -3.1512198634        9.0968439439       -7.6014065489    0   0   0
S               -3.1512194097        9.0968450728      -10.7330757790    0   0   0
S               -4.7268370797       10.0065537885       -1.4877176751    0   0   0
Mo              -4.7267001926       10.0088058243        3.0577806182
Mo              -3.1468719037        9.1140740039        9.1656937877
S               -4.7221109506       10.0221076590        7.5953991927
S               -3.1509906825        9.0992918094        4.6252519987
S               -3.1510924841        9.0990471545        1.4899988194
S               -4.7310543687       10.0104969076       10.7339811033
Mo               3.1512517547        1.8193638619       -9.1672481230    0   0   0
Mo               4.7269020221        0.9097289540       -3.0554823951    0   0   0
S                3.1512612351        1.8193882564       -4.6232320683    0   0   0
S                4.7268719268        0.9096773839       -7.6014065489    0   0   0
S                4.7268723805        0.9096785128      -10.7330757790    0   0   0
S                3.1512592485        1.8193890201       -1.4877261251    0   0   0
Mo               3.1514476060        1.8219894574        3.0574082972
Mo               4.7372380921        0.9197600510        9.1742263284
S                3.1571978019        1.8512724206        7.6335342408
S                4.7265017494        0.9123287431        4.6258954911
S                4.7272046495        0.9119161232        1.4900357159
S                3.1560313621        1.7177697591       10.8081548307
Mo               1.5756344123        4.5484193819       -9.1672481230    0   0   0
Mo               3.1512756394        3.6387769522       -3.0554814834    0   0   0
S                1.5756504879        4.5484423799       -4.6232390542    0   0   0
S                3.1512545844        3.6387329039       -7.6014065489    0   0   0
S                3.1512550381        3.6387340328      -10.7330757790    0   0   0
S                1.5756466253        4.5484431864       -1.4877251801    0   0   0
Mo               1.5760107118        4.5508452879        3.0577159519
Mo               3.1662519168        3.6330505715        9.2282226646
S                1.5958290918        4.5746807763        7.6663947669
S                3.1510502942        3.6410770608        4.6259605800
S                3.1514153503        3.6411321169        1.4897188168
S                1.4956192728        4.5171234919       10.7374993917
Mo               0.0000170699        7.2774749019       -9.1672481230    0   0   0
Mo               1.5756764447        6.3678236689       -3.0554877708    0   0   0
S                0.0000381981        7.2774979204       -4.6232454413    0   0   0
S                1.5756372420        6.3677884239       -7.6014065489    0   0   0
S                1.5756376957        6.3677895528      -10.7330757790    0   0   0
S                0.0000328088        7.2774946042       -1.4877307940    0   0   0
Mo               0.0004869228        7.2796519685        3.0574427127
Mo               1.5654839650        6.4056431730        9.2282383995
S                0.0179364384        7.2884352285        7.6335184361
S                1.5755773164        6.3698364951        4.6260197284
S                1.5759951546        6.3699086517        1.4897608115
S               -0.0986043939        7.3545597946       10.8081508303
Mo              -1.5756002725       10.0065304219       -9.1672481230    0   0   0
Mo               0.0000873425        9.0968676911       -3.0554912329    0   0   0
S               -1.5755883952       10.0065504530       -4.6232240150    0   0   0
S                0.0000198996        9.0968439439       -7.6014065489    0   0   0
S                0.0000203533        9.0968450728      -10.7330757790    0   0   0
S               -1.5755859047       10.0065492576       -1.4877362381    0   0   0
Mo              -1.5753754665       10.0088726168        3.0579218813
Mo               0.0011082470        9.1227118143        9.1741731682
S               -1.5685100514       10.0252452026        7.5969754443
S                0.0001054795        9.0986290297        4.6259625768
S                0.0003365227        9.0991708632        1.4900775523
S               -1.5737014128       10.0223803438       10.7424426846
Mo               6.3024915177        1.8193638619       -9.1672481230    0   0   0
Mo               7.8781001445        0.9096521684       -3.0554919963    0   0   0
S                6.3025008696        1.8193826232       -4.6232480596    0   0   0
S                7.8781116898        0.9096773839       -7.6014065489    0   0   0
S                7.8781121435        0.9096785128      -10.7330757790    0   0   0
S                6.3025042007        1.8193849068       -1.4877147524    0   0   0
Mo               6.3023923109        1.8217499227        3.0582660146
Mo               7.8825249961        0.9268807733        9.1620628880
S                6.3051009039        1.8345603205        7.5955522546
S                7.8781327870        0.9120214184        4.6255649630
S                7.8779491030        0.9116605403        1.4903509005
S                6.3162885672        1.8339835710       10.7379690537
Mo               4.7268741753        4.5484193819       -9.1672481230    0   0   0
Mo               6.3024679138        3.6387501714       -3.0554895197    0   0   0
S                4.7268748770        4.5484386753       -4.6232519432    0   0   0
S                6.3024943474        3.6387329039       -7.6014065489    0   0   0
S                6.3024948011        3.6387340328      -10.7330757790    0   0   0
S                4.7268770533        4.5484432419       -1.4877137856    0   0   0
Mo               4.7265627337        4.5506605306        3.0581179728
Mo               6.3191127986        3.6511120283        9.1686053925
S                4.7118912863        4.5566437999        7.6383334380
S                6.3020383767        3.6413714572        4.6261430940
S                6.3023981476        3.6409162978        1.4903282978
S                4.8070705536        4.5905014823       10.7801698249
Mo               3.1512568329        7.2774749019       -9.1672481230    0   0   0
Mo               4.7268384135        6.3678043337       -3.0554959052    0   0   0
S                3.1512606125        7.2774972547       -4.6232589675    0   0   0
S                4.7268770050        6.3677884239       -7.6014065489    0   0   0
S                4.7268774587        6.3677895528      -10.7330757790    0   0   0
S                3.1512629079        7.2774963749       -1.4877081835    0   0   0
Mo               3.1511360459        7.2793927119        3.0581862379
Mo               4.7435996143        6.3921695552        9.1862619359
S                3.1381357853        7.2822865955        7.6382544085
S                4.7264014905        6.3697500263        4.6265972263
S                4.7268630855        6.3699118543        1.4903611461
S                3.2148563620        7.3480799816       10.7800995585
Mo               1.5756394905       10.0065304219       -9.1672481230    0   0   0
Mo               3.1512330605        9.0968514907       -3.0554878870    0   0   0
S                1.5756499830       10.0065443759       -4.6232632674    0   0   0
S                3.1512596626        9.0968439439       -7.6014065489    0   0   0
S                3.1512601163        9.0968450728      -10.7330757790    0   0   0
S                1.5756503041       10.0065459699       -1.4877044377    0   0   0
Mo               1.5757431924       10.0085690322        3.0583473133
Mo               3.1573990453        9.1270443674        9.1684962454
S                1.5772478533       10.0230532236        7.5954968710
S                3.1513191069        9.0985431889        4.6262585270
S                3.1512681902        9.0988303190        1.4904090436
S                1.5822495168       10.0331921023       10.7378998088
Mo               9.4537312807        1.8193638619       -9.1672481230    0   0   0
Mo              11.0293863460        0.9096952246       -3.0554894007    0   0   0
S                9.4537395970        1.8193770750       -4.6232328036    0   0   0
S               11.0293514528        0.9096773839       -7.6014065489    0   0   0
S               11.0293519066        0.9096785128      -10.7330757790    0   0   0
S                9.4537393632        1.8193794783       -1.4877366147    0   0   0
Mo               9.4536855574        1.8215741451        3.0576897004
Mo              11.0306864485        0.9200982383        9.1543510320
S                9.4543272229        1.8343363024        7.5872587473
S               11.0292916757        0.9119778458        4.6251752858
S               11.0295237251        0.9117704264        1.4902107950
S                9.4588419416        1.8370006522       10.7240003961
Mo               7.8781139383        4.5484193819       -9.1672481230    0   0   0
Mo               9.4537539161        3.6387607911       -3.0554933032    0   0   0
S                7.8781175448        4.5484378232       -4.6232366318    0   0   0
S                9.4537341104        3.6387329039       -7.6014065489    0   0   0
S                9.4537345641        3.6387340328      -10.7330757790    0   0   0
S                7.8781194018        4.5484411585       -1.4877377057    0   0   0
Mo               7.8779607959        4.5507432518        3.0579885379
Mo               9.4507089082        3.6566819520        9.1544481792
S                7.8743111136        4.5663054597        7.5884778897
S                9.4536710519        3.6410349994        4.6251502707
S                9.4538266464        3.6410155726        1.4901832222
S                7.8921102884        4.5670360298       10.7334838963
Mo               6.3024965959        7.2774749019       -9.1672481230    0   0   0
Mo               7.8781361655        6.3678242352       -3.0555014130    0   0   0
S                6.3024973331        7.2774953556       -4.6232392528    0   0   0
S                7.8781167680        6.3677884239       -7.6014065489    0   0   0
S                7.8781172217        6.3677895528      -10.7330757790    0   0   0
S                6.3024989866        7.2774929744       -1.4877349119    0   0   0
Mo               6.3023079774        7.2795854846        3.0582275371
Mo               7.8778816344        6.3845899991        9.1607027857
S                6.2963314163        7.2885227041        7.5938608003
S                7.8782016790        6.3701912777        4.6255477141
S                7.8779174535        6.3699475951        1.4902044861
S                6.3243617214        7.3049331782       10.7438424572
Mo               4.7268792535       10.0065304219       -9.1672481230    0   0   0
Mo               6.3025111524        9.0968738021       -3.0554915260    0   0   0
S                4.7268840634       10.0065452125       -4.6232380477    0   0   0
S                6.3024994256        9.0968439439       -7.6014065489    0   0   0
S                6.3024998793        9.0968450728      -10.7330757790    0   0   0
S                4.7268847312       10.0065459141       -1.4877283294    0   0   0
Mo               4.7268665366       10.0085722344        3.0580634808
Mo               6.3041026244        9.1102822490        9.1606642569
S                4.7276666594       10.0161872893        7.5884025571
S                6.3026230719        9.0991646447        4.6255792023
S                6.3024012755        9.0987854904        1.4902489411
S                4.7369880191       10.0314790216       10.7333786620
Pd               1.5316942494        6.2892536251       12.1628874514
Pd               3.0487209518        3.6629012874       12.1627996326
Pt               2.5047183678        5.0999491070       14.1698582999
End final coordinates



     Writing all to output data dir ./outdir/pwscf.save/ :
     XML data file, charge density, pseudopotentials, collected wavefunctions
 
     init_run     :    178.08s CPU    181.58s WALL (       1 calls)
     electrons    : 185661.81s CPU 188054.68s WALL (      21 calls)
     update_pot   :     33.98s CPU     35.14s WALL (      20 calls)
     forces       :   2765.60s CPU   2815.75s WALL (      21 calls)
     force_dftd3  :     14.63s CPU     15.28s WALL (      21 calls)

     Called by init_run:
     wfcinit      :    153.93s CPU    155.97s WALL (       1 calls)
     potinit      :      1.31s CPU      1.41s WALL (       1 calls)
     hinit0       :     13.10s CPU     13.20s WALL (       1 calls)

     Called by electrons:
     c_bands      : 162930.59s CPU 164511.61s WALL (     316 calls)
     sum_band     :  20304.46s CPU  20716.87s WALL (     316 calls)
     v_of_rho     :    115.57s CPU    129.91s WALL (     321 calls)
     newd         :   2038.13s CPU   2426.87s WALL (     321 calls)
     PAW_pot      :    301.14s CPU    304.25s WALL (     341 calls)
     mix_rho      :     33.34s CPU     37.97s WALL (     316 calls)
     energy_dftd3 :      8.54s CPU      8.57s WALL (      21 calls)

     Called by c_bands:
     init_us_2    :    684.34s CPU    687.57s WALL (    2696 calls)
     init_us_2:cp :    684.32s CPU    687.55s WALL (    2696 calls)
     cegterg      : 159903.93s CPU 161467.39s WALL (    1282 calls)

     Called by *egterg:
     cdiaghg      :   9990.46s CPU  10354.60s WALL (   16855 calls)
     h_psi        :  81014.27s CPU  81513.79s WALL (   17003 calls)
     s_psi        :  19244.26s CPU  19361.34s WALL (   17003 calls)
     g_psi        :    137.97s CPU    138.60s WALL (   15717 calls)

     Called by h_psi:
     h_psi:calbec :  18476.70s CPU  18536.17s WALL (   17003 calls)
     vloc_psi     :  42851.76s CPU  43054.57s WALL (   17003 calls)
     add_vuspsi   :  19358.54s CPU  19477.06s WALL (   17003 calls)

     General routines
     calbec       :  26724.93s CPU  26812.72s WALL (   18683 calls)
     fft          :    100.29s CPU    112.82s WALL (    4398 calls)
     ffts         :      5.70s CPU      6.12s WALL (     637 calls)
     fftw         :  32914.34s CPU  33070.57s WALL ( 8581044 calls)
     interpolate  :      9.97s CPU     10.90s WALL (     321 calls)
 
     Parallel routines
 
     PWSCF        :   2d 4h37m CPU   2d 5h20m WALL

 
   This run was terminated on:   1:32:54   8Apr2024            

=------------------------------------------------------------------------------=
   JOB DONE.
=------------------------------------------------------------------------------=
