
     Program PWSCF v.7.2 starts on  4Oct2023 at 23:29:41 

     This program is part of the open-source Quantum ESPRESSO suite
     for quantum simulation of materials; please cite
         "P. Giannozzi et al., J. Phys.:Condens. Matter 21 395502 (2009);
         "P. Giannozzi et al., J. Phys.:Condens. Matter 29 465901 (2017);
         "P. Giannozzi et al., J. Chem. Phys. 152 154105 (2020);
          URL http://www.quantum-espresso.org", 
     in publications or presentations arising from this work. More details at
     http://www.quantum-espresso.org/quote

     Parallel version (MPI), running on    36 processors

     MPI processes distributed on     1 nodes
     770462 MiB available memory on the printing compute node when the environment starts
 
     Waiting for input...
     Reading input from standard input
Warning: card &CELL ignored
Warning: card / ignored

     Current dimensions of program PWSCF are:
     Max number of different atomic species (ntypx) = 10
     Max number of k-points (npk) =  40000
     Max angular momentum in pseudopotentials (lmaxx) =  4
     file Mo.pbe-spn-kjpaw_psl.1.0.0.UPF: wavefunction(s)  4S 4D renormalized
     file S.pbe-n-kjpaw_psl.1.0.0.UPF: wavefunction(s)  3S 3P renormalized
     file Pd.pbe-spn-kjpaw_psl.1.0.0.UPF: wavefunction(s)  4S 5S 4D renormalized
 
     R & G space division:  proc/nbgrp/npool/nimage =      36
     Subspace diagonalization in iterative solution of the eigenvalue problem:
     one sub-group per band group will be used
     custom distributed-memory algorithm (size of sub-group:  6*  6 procs)

 
     Parallelization info
     --------------------
     sticks:   dense  smooth     PW     G-vecs:    dense   smooth      PW
     Min         586     335     89               165416    71459    9765
     Max         587     337     90               165425    71461    9778
     Sum       21109   12085   3205              5955087  2572543  351657
 
     Using Slab Decomposition
 


     bravais-lattice index     =            0
     lattice parameter (alat)  =      23.8395  a.u.
     unit-cell volume          =   28182.8498 (a.u.)^3
     number of atoms/cell      =          146
     number of atomic types    =            3
     number of electrons       =      1284.00
     number of Kohn-Sham states=          770
     kinetic-energy cutoff     =      77.0000  Ry
     charge density cutoff     =     539.0000  Ry
     scf convergence threshold =      1.0E-06
     mixing beta               =       0.2000
     number of iterations used =            8  plain     mixing
     energy convergence thresh.=      1.0E-04
     force convergence thresh. =      1.0E-03
     Exchange-correlation= SLA  PW   PBX  PBC
                           (   1   4   3   4   0   0   0)
     nstep                     =         1000


     Effective Screening Medium Method
     =================================
     Boundary Conditions: Vacuum-Slab-Vacuum
     total charge in unit cell        =   0.0000
     grid points for fit at edges     =        4 
 

     celldm(1)=  23.839504  celldm(2)=   0.000000  celldm(3)=   0.000000
     celldm(4)=   0.000000  celldm(5)=   0.000000  celldm(6)=   0.000000

     crystal axes: (cart. coord. in units of alat)
               a(1) = (   1.000000   0.000000   0.000000 )  
               a(2) = (  -0.500001   0.866026   0.000000 )  
               a(3) = (   0.000000   0.000000   2.401941 )  

     reciprocal axes: (cart. coord. in units 2 pi/alat)
               b(1) = (  1.000000  0.577351  0.000000 )  
               b(2) = (  0.000000  1.154700  0.000000 )  
               b(3) = (  0.000000  0.000000  0.416330 )  


     PseudoPot. # 1 for Mo read from file:
     ./pseudo/Mo.pbe-spn-kjpaw_psl.1.0.0.UPF
     MD5 check sum: 317bf72632116215fd98f72de1686f13
     Pseudo is Projector augmented-wave + core cor, Zval = 14.0
     Generated using 'atomic' code by A. Dal Corso  v.7.2
     Shape of augmentation charge: PSQ
     Using radial grid of 1229 points,  6 beta functions with: 
                l(1) =   0
                l(2) =   0
                l(3) =   1
                l(4) =   1
                l(5) =   2
                l(6) =   2
     Q(r) pseudized with 0 coefficients 


     PseudoPot. # 2 for S  read from file:
     ./pseudo/S.pbe-n-kjpaw_psl.1.0.0.UPF
     MD5 check sum: 8b7b5302570d38d5e87fed6a1065abda
     Pseudo is Projector augmented-wave + core cor, Zval =  6.0
     Generated using 'atomic' code by A. Dal Corso  v.7.2
     Shape of augmentation charge: PSQ
     Using radial grid of 1151 points,  6 beta functions with: 
                l(1) =   0
                l(2) =   0
                l(3) =   1
                l(4) =   1
                l(5) =   2
                l(6) =   2
     Q(r) pseudized with 0 coefficients 


     PseudoPot. # 3 for Pd read from file:
     ./pseudo/Pd.pbe-spn-kjpaw_psl.1.0.0.UPF
     MD5 check sum: a60571a671f2502b8a6a4569d20a6edb
     Pseudo is Projector augmented-wave + core cor, Zval = 18.0
     Generated using 'atomic' code by A. Dal Corso  v.7.2
     Shape of augmentation charge: PSQ
     Using radial grid of 1235 points,  6 beta functions with: 
                l(1) =   0
                l(2) =   0
                l(3) =   1
                l(4) =   1
                l(5) =   2
                l(6) =   2
     Q(r) pseudized with 0 coefficients 


     atomic species   valence    mass     pseudopotential
        Mo            14.00    95.95000     Mo( 1.00)
        S              6.00    32.06000     S ( 1.00)
        Pd            18.00   106.42000     Pd( 1.00)

     No symmetry found



   Cartesian axes

     site n.     atom                  positions (alat units)
         1           Mo  tau(   1) = (   0.1244805   0.2154429   0.4826124  )
         2           Mo  tau(   2) = (   0.1250004   0.0721694  -0.4825273  )
         3           Mo  tau(   3) = (   0.0000154   0.1443583  -0.0000534  )
         4           S   tau(   4) = (   0.0000004   0.0000006  -0.6064556  )
         5           S   tau(   5) = (   0.1249822   0.0722030  -0.1241916  )
         6           S   tau(   6) = (   0.0001873   0.1444894   0.3573292  )
         7           S   tau(   7) = (   0.0000004   0.0000005  -0.3584711  )
         8           S   tau(   8) = (   0.1250220   0.0721432   0.1241096  )
         9           S   tau(   9) = (  -0.0009222   0.1433430   0.6062350  )
        10           Mo  tau(  10) = (  -0.0011812   0.4330952   0.4826123  )
        11           Mo  tau(  11) = (   0.0000001   0.2886759  -0.4825273  )
        12           Mo  tau(  12) = (  -0.1249761   0.3608493  -0.0000533  )
        13           S   tau(  13) = (  -0.1249999   0.2165071  -0.6064556  )
        14           S   tau(  14) = (   0.0000232   0.2886904  -0.1241345  )
        15           S   tau(  15) = (  -0.1247753   0.3609305   0.3573291  )
        16           S   tau(  16) = (  -0.1249998   0.2165070  -0.3584711  )
        17           S   tau(  17) = (   0.0000901   0.2887289   0.1242236  )
        18           S   tau(  18) = (  -0.1263226   0.3605428   0.6062351  )
        19           Mo  tau(  19) = (  -0.1251400   0.6495983   0.4819363  )
        20           Mo  tau(  20) = (  -0.1250002   0.5051824  -0.4825273  )
        21           Mo  tau(  21) = (  -0.2500026   0.5773383  -0.0001491  )
        22           S   tau(  22) = (  -0.2500002   0.4330136  -0.6064556  )
        23           S   tau(  23) = (  -0.1249812   0.5051509  -0.1241919  )
        24           S   tau(  24) = (  -0.2500015   0.5775831   0.3575295  )
        25           S   tau(  25) = (  -0.2500001   0.4330135  -0.3584711  )
        26           S   tau(  26) = (  -0.1250129   0.5052153   0.1241101  )
        27           S   tau(  27) = (  -0.2500018   0.5771934   0.6060379  )
        28           Mo  tau(  28) = (   0.2499987  -0.0001601   0.4819365  )
        29           Mo  tau(  29) = (  -0.2500004   0.7216889  -0.4825273  )
        30           Mo  tau(  30) = (  -0.3750135   0.7938631  -0.0001491  )
        31           S   tau(  31) = (  -0.3750004   0.6495201  -0.6064556  )
        32           S   tau(  32) = (  -0.2500026   0.7216883  -0.1242347  )
        33           S   tau(  33) = (  -0.3747997   0.7937400   0.3575295  )
        34           S   tau(  34) = (  -0.3750004   0.6495200  -0.3584711  )
        35           S   tau(  35) = (  -0.2500029   0.7216883   0.1240299  )
        36           S   tau(  36) = (  -0.3751376   0.7939346   0.6060379  )
        37           Mo  tau(  37) = (   0.3755166   0.2154425   0.4826119  )
        38           Mo  tau(  38) = (   0.3750004   0.0721694  -0.4825273  )
        39           Mo  tau(  39) = (   0.2499990   0.1443474  -0.0000968  )
        40           S   tau(  40) = (   0.2500004   0.0000006  -0.6064556  )
        41           S   tau(  41) = (   0.3750152   0.0722028  -0.1241921  )
        42           S   tau(  42) = (   0.2499983   0.1443201   0.3580593  )
        43           S   tau(  43) = (   0.2500004   0.0000005  -0.3584711  )
        44           S   tau(  44) = (   0.3749754   0.0721432   0.1241106  )
        45           S   tau(  45) = (   0.2499987   0.1437775   0.6065499  )
        46           Mo  tau(  46) = (   0.2499984   0.4330123   0.4872880  )
        47           Mo  tau(  47) = (   0.2500001   0.2886759  -0.4825273  )
        48           Mo  tau(  48) = (   0.1250277   0.3608616  -0.0000572  )
        49           S   tau(  49) = (   0.1250001   0.2165071  -0.6064556  )
        50           S   tau(  50) = (   0.2499987   0.2886898  -0.1241693  )
        51           S   tau(  51) = (   0.1266397   0.3617911   0.3615924  )
        52           S   tau(  52) = (   0.1250002   0.2165070  -0.3584711  )
        53           S   tau(  53) = (   0.2499988   0.2886671   0.1241958  )
        54           S   tau(  54) = (   0.1173054   0.3564020   0.6108885  )
        55           Mo  tau(  55) = (   0.1243363   0.6504991   0.4826116  )
        56           Mo  tau(  56) = (   0.1249998   0.5051824  -0.4825273  )
        57           Mo  tau(  57) = (   0.0000060   0.5773464  -0.0000969  )
        58           S   tau(  58) = (  -0.0000002   0.4330136  -0.6064556  )
        59           S   tau(  59) = (   0.1250101   0.5051751  -0.1241696  )
        60           S   tau(  60) = (  -0.0000165   0.5773581   0.3580590  )
        61           S   tau(  61) = (  -0.0000001   0.4330135  -0.3584711  )
        62           S   tau(  62) = (   0.1249907   0.5051868   0.1241956  )
        63           S   tau(  63) = (  -0.0004863   0.5776299   0.6065497  )
        64           Mo  tau(  64) = (   0.5000682   0.0000393   0.4813064  )
        65           Mo  tau(  65) = (  -0.0000004   0.7216889  -0.4825273  )
        66           Mo  tau(  66) = (  -0.1249919   0.7938635  -0.0001489  )
        67           S   tau(  67) = (  -0.1250004   0.6495201  -0.6064556  )
        68           S   tau(  68) = (   0.0000350   0.7216859  -0.1241920  )
        69           S   tau(  69) = (  -0.1252051   0.7937392   0.3575294  )
        70           S   tau(  70) = (  -0.1250004   0.6495200  -0.3584711  )
        71           S   tau(  71) = (  -0.0000364   0.7216812   0.1241103  )
        72           S   tau(  72) = (  -0.1248667   0.7939344   0.6060378  )
        73           Mo  tau(  73) = (   0.6250985   0.2164481   0.4814760  )
        74           Mo  tau(  74) = (   0.6250004   0.0721694  -0.4825273  )
        75           Mo  tau(  75) = (   0.4999807   0.1443583  -0.0000532  )
        76           S   tau(  76) = (   0.5000004   0.0000006  -0.6064556  )
        77           S   tau(  77) = (   0.6249710   0.0721537  -0.1241599  )
        78           S   tau(  78) = (   0.4998101   0.1444887   0.3573287  )
        79           S   tau(  79) = (   0.5000004   0.0000005  -0.3584711  )
        80           S   tau(  80) = (   0.6250072   0.0721744   0.1241160  )
        81           S   tau(  81) = (   0.5009199   0.1433424   0.6062338  )
        82           Mo  tau(  82) = (   0.5011786   0.4330950   0.4826115  )
        83           Mo  tau(  83) = (   0.5000001   0.2886759  -0.4825273  )
        84           Mo  tau(  84) = (   0.3749686   0.3608615  -0.0000573  )
        85           S   tau(  85) = (   0.3750001   0.2165071  -0.6064556  )
        86           S   tau(  86) = (   0.4999725   0.2886900  -0.1241349  )
        87           S   tau(  87) = (   0.3733572   0.3617909   0.3615920  )
        88           S   tau(  88) = (   0.3750002   0.2165070  -0.3584711  )
        89           S   tau(  89) = (   0.4999057   0.2887288   0.1242238  )
        90           S   tau(  90) = (   0.3826919   0.3564018   0.6108876  )
        91           Mo  tau(  91) = (   0.3756598   0.6504996   0.4826113  )
        92           Mo  tau(  92) = (   0.3749998   0.5051824  -0.4825273  )
        93           Mo  tau(  93) = (   0.2499978   0.5773166  -0.0000576  )
        94           S   tau(  94) = (   0.2499998   0.4330136  -0.6064556  )
        95           S   tau(  95) = (   0.3749857   0.5051746  -0.1241697  )
        96           S   tau(  96) = (   0.2499981   0.5754545   0.3615919  )
        97           S   tau(  97) = (   0.2499999   0.4330135  -0.3584711  )
        98           S   tau(  98) = (   0.3750048   0.5051860   0.1241960  )
        99           S   tau(  99) = (   0.2499983   0.5862331   0.6108872  )
       100           Mo  tau( 100) = (   0.7499988   0.0001148   0.4814756  )
       101           Mo  tau( 101) = (   0.2499996   0.7216889  -0.4825273  )
       102           Mo  tau( 102) = (   0.1250062   0.7938321  -0.0000534  )
       103           S   tau( 103) = (   0.1249996   0.6495201  -0.6064556  )
       104           S   tau( 104) = (   0.2499971   0.7216593  -0.1241350  )
       105           S   tau( 105) = (   0.1250350   0.7936175   0.3573284  )
       106           S   tau( 106) = (   0.1249996   0.6495200  -0.3584711  )
       107           S   tau( 107) = (   0.2499972   0.7215818   0.1242234  )
       108           S   tau( 108) = (   0.1245975   0.7951515   0.6062336  )
       109           Mo  tau( 109) = (  -0.1251006   0.2164484   0.4814769  )
       110           Mo  tau( 110) = (   0.8750004   0.0721694  -0.4825273  )
       111           Mo  tau( 111) = (   0.7499976   0.1443379  -0.0001196  )
       112           S   tau( 112) = (   0.7500004   0.0000006  -0.6064556  )
       113           S   tau( 113) = (   0.8750246   0.0721533  -0.1241599  )
       114           S   tau( 114) = (   0.7499994   0.1443376   0.3572937  )
       115           S   tau( 115) = (   0.7500004   0.0000005  -0.3584711  )
       116           S   tau( 116) = (   0.8749884   0.0721739   0.1241157  )
       117           S   tau( 117) = (   0.7499987   0.1443370   0.6058240  )
       118           Mo  tau( 118) = (  -0.2500010   0.4329316   0.4813070  )
       119           Mo  tau( 119) = (   0.7500001   0.2886759  -0.4825273  )
       120           Mo  tau( 120) = (   0.6249710   0.3608493  -0.0000534  )
       121           S   tau( 121) = (   0.6250001   0.2165071  -0.6064556  )
       122           S   tau( 122) = (   0.7499973   0.2887067  -0.1241600  )
       123           S   tau( 123) = (   0.6247737   0.3609305   0.3573287  )
       124           S   tau( 124) = (   0.6250002   0.2165070  -0.3584711  )
       125           S   tau( 125) = (   0.7499971   0.2886649   0.1241160  )
       126           S   tau( 126) = (   0.6263203   0.3605423   0.6062340  )
       127           Mo  tau( 127) = (  -0.3748636   0.6495986   0.4819361  )
       128           Mo  tau( 128) = (   0.6249998   0.5051824  -0.4825273  )
       129           Mo  tau( 129) = (   0.4999891   0.5773453  -0.0000967  )
       130           S   tau( 130) = (   0.4999998   0.4330136  -0.6064556  )
       131           S   tau( 131) = (   0.6249761   0.5051506  -0.1241920  )
       132           S   tau( 132) = (   0.5000130   0.5773585   0.3580587  )
       133           S   tau( 133) = (   0.4999999   0.4330135  -0.3584711  )
       134           S   tau( 134) = (   0.6250081   0.5052147   0.1241104  )
       135           S   tau( 135) = (   0.5004826   0.5776298   0.6065487  )
       136           Mo  tau( 136) = (  -0.0000706   0.0000401   0.4813070  )
       137           Mo  tau( 137) = (   0.4999996   0.7216889  -0.4825273  )
       138           Mo  tau( 138) = (   0.3749881   0.7938314  -0.0000535  )
       139           S   tau( 139) = (   0.3749996   0.6495201  -0.6064556  )
       140           S   tau( 140) = (   0.4999594   0.7216844  -0.1241918  )
       141           S   tau( 141) = (   0.3749610   0.7936184   0.3573285  )
       142           S   tau( 142) = (   0.3749996   0.6495200  -0.3584711  )
       143           S   tau( 143) = (   0.5000310   0.7216802   0.1241101  )
       144           S   tau( 144) = (   0.3753979   0.7951517   0.6062337  )
       145           Pd  tau( 145) = (   0.2499985   0.4330123   0.7148096  )
       146           Pd  tau( 146) = (  -0.0031707   0.4315123   0.7268146  )

     --------------------------------------------
     DFT-D3 Dispersion Correction (3-body terms):
     --------------------------------------------
       Reference C6 values for interpolation: 

         atom   Coordination number   C6
         S          0.000           268.01
         S          0.995           261.99
         S          1.990           251.62
         Mo         0.000          1691.79
         Mo         1.942          1004.01
         Mo        11.056           674.22
         Pd         0.000          1217.01
         Pd         1.863           573.90
         Pd         5.710           531.75

       Values used:

         atom   Coordination number  R0_AB[au]  C6      C8
         Mo        10.181            3.547    674.22  77634.20
         Mo        10.189            3.547    674.22  77634.20
         Mo        10.201            3.547    674.22  77634.20
         S          3.753            3.128    251.62  12327.25
         S          3.858            3.128    251.62  12327.25
         S          3.848            3.128    251.62  12327.25
         S          3.859            3.128    251.62  12327.25
         S          3.860            3.128    251.62  12327.25
         S          3.808            3.128    251.62  12327.25
         Mo        10.689            3.547    674.22  77634.20
         Mo        10.189            3.547    674.22  77634.20
         Mo        10.201            3.547    674.22  77634.20
         S          3.753            3.128    251.62  12327.25
         S          3.859            3.128    251.62  12327.25
         S          3.849            3.128    251.62  12327.25
         S          3.858            3.128    251.62  12327.25
         S          3.855            3.128    251.62  12327.25
         S          4.753            3.128    251.62  12327.25
         Mo        10.217            3.547    674.22  77634.20
         Mo        10.189            3.547    674.22  77634.20
         Mo        10.200            3.547    674.22  77634.20
         S          3.753            3.128    251.62  12327.25
         S          3.858            3.128    251.62  12327.25
         S          3.862            3.128    251.62  12327.25
         S          3.859            3.128    251.62  12327.25
         S          3.860            3.128    251.62  12327.25
         S          3.769            3.128    251.62  12327.25
         Mo        10.209            3.547    674.22  77634.20
         Mo        10.189            3.547    674.22  77634.20
         Mo        10.200            3.547    674.22  77634.20
         S          3.753            3.128    251.62  12327.25
         S          3.858            3.128    251.62  12327.25
         S          3.862            3.128    251.62  12327.25
         S          3.859            3.128    251.62  12327.25
         S          3.862            3.128    251.62  12327.25
         S          3.759            3.128    251.62  12327.25
         Mo        10.173            3.547    674.22  77634.20
         Mo        10.189            3.547    674.22  77634.20
         Mo        10.202            3.547    674.22  77634.20
         S          3.753            3.128    251.62  12327.25
         S          3.858            3.128    251.62  12327.25
         S          3.857            3.128    251.62  12327.25
         S          3.859            3.128    251.62  12327.25
         S          3.860            3.128    251.62  12327.25
         S          3.751            3.128    251.62  12327.25
         Mo        10.819            3.547    674.22  77634.20
         Mo        10.189            3.547    674.22  77634.20
         Mo        10.202            3.547    674.22  77634.20
         S          3.753            3.128    251.62  12327.25
         S          3.859            3.128    251.62  12327.25
         S          3.867            3.128    251.62  12327.25
         S          3.859            3.128    251.62  12327.25
         S          3.853            3.128    251.62  12327.25
         S          5.612            3.128    251.62  12327.25
         Mo        10.180            3.547    674.22  77634.20
         Mo        10.189            3.547    674.22  77634.20
         Mo        10.202            3.547    674.22  77634.20
         S          3.753            3.128    251.62  12327.25
         S          3.859            3.128    251.62  12327.25
         S          3.858            3.128    251.62  12327.25
         S          3.859            3.128    251.62  12327.25
         S          3.853            3.128    251.62  12327.25
         S          4.691            3.128    251.62  12327.25
         Mo        10.223            3.547    674.22  77634.20
         Mo        10.189            3.547    674.22  77634.20
         Mo        10.200            3.547    674.22  77634.20
         S          3.753            3.128    251.62  12327.25
         S          3.858            3.128    251.62  12327.25
         S          3.862            3.128    251.62  12327.25
         S          3.859            3.128    251.62  12327.25
         S          3.860            3.128    251.62  12327.25
         S          3.760            3.128    251.62  12327.25
         Mo        10.213            3.547    674.22  77634.20
         Mo        10.189            3.547    674.22  77634.20
         Mo        10.201            3.547    674.22  77634.20
         S          3.753            3.128    251.62  12327.25
         S          3.858            3.128    251.62  12327.25
         S          3.848            3.128    251.62  12327.25
         S          3.859            3.128    251.62  12327.25
         S          3.860            3.128    251.62  12327.25
         S          3.798            3.128    251.62  12327.25
         Mo        10.173            3.547    674.22  77634.20
         Mo        10.189            3.547    674.22  77634.20
         Mo        10.202            3.547    674.22  77634.20
         S          3.753            3.128    251.62  12327.25
         S          3.859            3.128    251.62  12327.25
         S          3.866            3.128    251.62  12327.25
         S          3.859            3.128    251.62  12327.25
         S          3.855            3.128    251.62  12327.25
         S          4.646            3.128    251.62  12327.25
         Mo        10.173            3.547    674.22  77634.20
         Mo        10.189            3.547    674.22  77634.20
         Mo        10.202            3.547    674.22  77634.20
         S          3.753            3.128    251.62  12327.25
         S          3.859            3.128    251.62  12327.25
         S          3.866            3.128    251.62  12327.25
         S          3.859            3.128    251.62  12327.25
         S          3.853            3.128    251.62  12327.25
         S          4.653            3.128    251.62  12327.25
         Mo        10.213            3.547    674.22  77634.20
         Mo        10.189            3.547    674.22  77634.20
         Mo        10.201            3.547    674.22  77634.20
         S          3.753            3.128    251.62  12327.25
         S          3.859            3.128    251.62  12327.25
         S          3.848            3.128    251.62  12327.25
         S          3.859            3.128    251.62  12327.25
         S          3.855            3.128    251.62  12327.25
         S          3.799            3.128    251.62  12327.25
         Mo        10.222            3.547    674.22  77634.20
         Mo        10.189            3.547    674.22  77634.20
         Mo        10.199            3.547    674.22  77634.20
         S          3.753            3.128    251.62  12327.25
         S          3.858            3.128    251.62  12327.25
         S          3.855            3.128    251.62  12327.25
         S          3.858            3.128    251.62  12327.25
         S          3.860            3.128    251.62  12327.25
         S          3.778            3.128    251.62  12327.25
         Mo        10.231            3.547    674.22  77634.20
         Mo        10.189            3.547    674.22  77634.20
         Mo        10.201            3.547    674.22  77634.20
         S          3.753            3.128    251.62  12327.25
         S          3.858            3.128    251.62  12327.25
         S          3.848            3.128    251.62  12327.25
         S          3.858            3.128    251.62  12327.25
         S          3.860            3.128    251.62  12327.25
         S          3.799            3.128    251.62  12327.25
         Mo        10.209            3.547    674.22  77634.20
         Mo        10.189            3.547    674.22  77634.20
         Mo        10.202            3.547    674.22  77634.20
         S          3.753            3.128    251.62  12327.25
         S          3.859            3.128    251.62  12327.25
         S          3.857            3.128    251.62  12327.25
         S          3.859            3.128    251.62  12327.25
         S          3.860            3.128    251.62  12327.25
         S          3.751            3.128    251.62  12327.25
         Mo        10.223            3.547    674.22  77634.20
         Mo        10.189            3.547    674.22  77634.20
         Mo        10.201            3.547    674.22  77634.20
         S          3.753            3.128    251.62  12327.25
         S          3.858            3.128    251.62  12327.25
         S          3.848            3.128    251.62  12327.25
         S          3.859            3.128    251.62  12327.25
         S          3.860            3.128    251.62  12327.25
         S          3.798            3.128    251.62  12327.25
         Pd         3.941            3.168    532.09  48751.91
         Pd         3.642            3.168    573.39  52535.70

         Molecular C6 ( Ry / a.u.^6 ) =   7919208.68


     number of k points=     4  Gaussian smearing, width (Ry)=  0.0100
                       cart. coord. in units 2pi/alat
        k(    1) = (   0.0000000   0.0000000   0.0000000), wk =   0.5000000
        k(    2) = (   0.0000000  -0.5773499   0.0000000), wk =   0.5000000
        k(    3) = (  -0.5000000  -0.2886755   0.0000000), wk =   0.5000000
        k(    4) = (  -0.5000000  -0.8660254   0.0000000), wk =   0.5000000

     Dense  grid:  5955087 G-vectors     FFT dimensions: ( 180, 180, 432)

     Smooth grid:  2572543 G-vectors     FFT dimensions: ( 135, 135, 320)

     Estimated max dynamical RAM per process >       2.14 GB

     Estimated total dynamical RAM >      76.86 GB

     Initial potential from superposition of free atoms

     starting charge    1283.9538, renormalised to    1284.0000

     negative rho (up, down):  1.067E-03 0.000E+00
     Starting wfcs are  884 randomized atomic wfcs
     Checking if some PAW data can be deallocated... 

     total cpu time spent up to now is      106.8 secs

     Self-consistent Calculation

     iteration #  1     ecut=    77.00 Ry     beta= 0.20
     Davidson diagonalization with overlap
     ethr =  1.00E-02,  avg # of iterations =  2.0

     Threshold (ethr) on eigenvalues was too large:
     Diagonalizing with lowered threshold

     Davidson diagonalization with overlap
     ethr =  2.18E-04,  avg # of iterations = 15.2

     negative rho (up, down):  3.325E-04 0.000E+00

     total cpu time spent up to now is     1117.7 secs

     total energy              =  -24868.97395108 Ry
     estimated scf accuracy    <       4.74189637 Ry

     iteration #  2     ecut=    77.00 Ry     beta= 0.20
     Davidson diagonalization with overlap
     ethr =  3.69E-04,  avg # of iterations =  8.0

     negative rho (up, down):  7.224E-05 0.000E+00

     total cpu time spent up to now is     1362.5 secs

     total energy              =  -24868.36115138 Ry
     estimated scf accuracy    <       2.33160557 Ry

     iteration #  3     ecut=    77.00 Ry     beta= 0.20
     Davidson diagonalization with overlap
     ethr =  1.82E-04,  avg # of iterations =  9.5

     negative rho (up, down):  3.052E-05 0.000E+00

     total cpu time spent up to now is     1623.9 secs

     total energy              =  -24868.36222523 Ry
     estimated scf accuracy    <       0.86872204 Ry

     iteration #  4     ecut=    77.00 Ry     beta= 0.20
     Davidson diagonalization with overlap
     ethr =  6.77E-05,  avg # of iterations = 16.8

     negative rho (up, down):  3.401E-05 0.000E+00

     total cpu time spent up to now is     2126.2 secs

     total energy              =  -24868.83781336 Ry
     estimated scf accuracy    <       0.23868677 Ry

     iteration #  5     ecut=    77.00 Ry     beta= 0.20
     Davidson diagonalization with overlap
     c_bands:  5 eigenvalues not converged
     c_bands:  5 eigenvalues not converged
     ethr =  1.86E-05,  avg # of iterations = 24.0

     negative rho (up, down):  5.741E-05 0.000E+00

     total cpu time spent up to now is     2775.6 secs

     total energy              =  -24869.06932423 Ry
     estimated scf accuracy    <       0.12623737 Ry

     iteration #  6     ecut=    77.00 Ry     beta= 0.20
     Davidson diagonalization with overlap
     c_bands:  1 eigenvalues not converged
     c_bands:  5 eigenvalues not converged
     c_bands:  3 eigenvalues not converged
     c_bands:  5 eigenvalues not converged
     ethr =  9.83E-06,  avg # of iterations = 40.0

     negative rho (up, down):  2.176E-04 0.000E+00

     total cpu time spent up to now is     3402.4 secs

     total energy              =  -24869.08193716 Ry
     estimated scf accuracy    <       0.08606509 Ry

     iteration #  7     ecut=    77.00 Ry     beta= 0.20
     Davidson diagonalization with overlap
     c_bands:  1 eigenvalues not converged
     c_bands:  3 eigenvalues not converged
     c_bands:  2 eigenvalues not converged
     c_bands:  5 eigenvalues not converged
     ethr =  6.70E-06,  avg # of iterations = 25.0

     negative rho (up, down):  8.937E-04 0.000E+00

     total cpu time spent up to now is     3756.4 secs

     total energy              =  -24869.09033398 Ry
     estimated scf accuracy    <       0.03499513 Ry

     iteration #  8     ecut=    77.00 Ry     beta= 0.20
     Davidson diagonalization with overlap
     c_bands:  3 eigenvalues not converged
     c_bands:  4 eigenvalues not converged
     c_bands:  2 eigenvalues not converged
     c_bands:  3 eigenvalues not converged
     ethr =  2.73E-06,  avg # of iterations = 35.0

     negative rho (up, down):  6.406E-04 0.000E+00

     total cpu time spent up to now is     4588.3 secs

     total energy              =  -24869.10539321 Ry
     estimated scf accuracy    <       0.06173002 Ry

     iteration #  9     ecut=    77.00 Ry     beta= 0.20
     Davidson diagonalization with overlap
     c_bands:  4 eigenvalues not converged
     c_bands:  1 eigenvalues not converged
     c_bands:  5 eigenvalues not converged
     c_bands:  5 eigenvalues not converged
     ethr =  2.73E-06,  avg # of iterations = 30.0

     negative rho (up, down):  5.035E-04 0.000E+00

     total cpu time spent up to now is     5005.1 secs

     total energy              =  -24869.10334775 Ry
     estimated scf accuracy    <       0.01241877 Ry

     iteration # 10     ecut=    77.00 Ry     beta= 0.20
     Davidson diagonalization with overlap
     c_bands:  3 eigenvalues not converged
     c_bands:  3 eigenvalues not converged
     c_bands:  1 eigenvalues not converged
     ethr =  9.67E-07,  avg # of iterations = 24.0

     negative rho (up, down):  5.919E-04 0.000E+00

     total cpu time spent up to now is     5697.3 secs

     total energy              =  -24869.11953869 Ry
     estimated scf accuracy    <       0.01252634 Ry

     iteration # 11     ecut=    77.00 Ry     beta= 0.20
     Davidson diagonalization with overlap
     c_bands:  4 eigenvalues not converged
     ethr =  9.67E-07,  avg # of iterations = 23.2

     negative rho (up, down):  7.716E-04 0.000E+00

     total cpu time spent up to now is     6116.0 secs

     total energy              =  -24869.11665096 Ry
     estimated scf accuracy    <       0.00621405 Ry

     iteration # 12     ecut=    77.00 Ry     beta= 0.20
     Davidson diagonalization with overlap
     c_bands:  1 eigenvalues not converged
     ethr =  4.84E-07,  avg # of iterations = 14.0

     negative rho (up, down):  9.537E-04 0.000E+00

     total cpu time spent up to now is     6450.0 secs

     total energy              =  -24869.11697944 Ry
     estimated scf accuracy    <       0.00084958 Ry

     iteration # 13     ecut=    77.00 Ry     beta= 0.20
     Davidson diagonalization with overlap
     c_bands:  3 eigenvalues not converged
     c_bands:  1 eigenvalues not converged
     ethr =  6.62E-08,  avg # of iterations = 18.8

     negative rho (up, down):  8.993E-04 0.000E+00

     total cpu time spent up to now is     7584.7 secs

     total energy              =  -24869.12009920 Ry
     estimated scf accuracy    <       0.00454105 Ry

     iteration # 14     ecut=    77.00 Ry     beta= 0.20
     Davidson diagonalization with overlap
     c_bands:  3 eigenvalues not converged
     ethr =  6.62E-08,  avg # of iterations =  8.5

     negative rho (up, down):  8.923E-04 0.000E+00

     total cpu time spent up to now is     7840.4 secs

     total energy              =  -24869.11934585 Ry
     estimated scf accuracy    <       0.00254528 Ry

     iteration # 15     ecut=    77.00 Ry     beta= 0.20
     Davidson diagonalization with overlap
     c_bands:  1 eigenvalues not converged
     ethr =  6.62E-08,  avg # of iterations = 10.8

     negative rho (up, down):  9.455E-04 0.000E+00

     total cpu time spent up to now is     8188.3 secs

     total energy              =  -24869.11943814 Ry
     estimated scf accuracy    <       0.00065381 Ry

     iteration # 16     ecut=    77.00 Ry     beta= 0.20
     Davidson diagonalization with overlap
     c_bands:  3 eigenvalues not converged
     ethr =  5.09E-08,  avg # of iterations = 10.0

     negative rho (up, down):  9.649E-04 0.000E+00

     total cpu time spent up to now is     8526.7 secs

     total energy              =  -24869.11970473 Ry
     estimated scf accuracy    <       0.00004948 Ry

     iteration # 17     ecut=    77.00 Ry     beta= 0.20
     Davidson diagonalization with overlap
     c_bands:  1 eigenvalues not converged
     ethr =  3.85E-09,  avg # of iterations = 21.0

     negative rho (up, down):  9.679E-04 0.000E+00

     total cpu time spent up to now is     9776.8 secs

     total energy              =  -24869.11992702 Ry
     estimated scf accuracy    <       0.00005536 Ry

     iteration # 18     ecut=    77.00 Ry     beta= 0.20
     Davidson diagonalization with overlap
     ethr =  3.85E-09,  avg # of iterations =  1.0

     negative rho (up, down):  9.744E-04 0.000E+00

     total cpu time spent up to now is     9987.1 secs

     total energy              =  -24869.11991484 Ry
     estimated scf accuracy    <       0.00004711 Ry

     iteration # 19     ecut=    77.00 Ry     beta= 0.20
     Davidson diagonalization with overlap
     ethr =  3.67E-09,  avg # of iterations =  1.0

     negative rho (up, down):  9.772E-04 0.000E+00

     total cpu time spent up to now is    10197.6 secs

     total energy              =  -24869.11990521 Ry
     estimated scf accuracy    <       0.00002474 Ry

     iteration # 20     ecut=    77.00 Ry     beta= 0.20
     Davidson diagonalization with overlap
     ethr =  1.93E-09,  avg # of iterations =  8.0

     negative rho (up, down):  9.832E-04 0.000E+00

     total cpu time spent up to now is    10462.7 secs

     total energy              =  -24869.11990106 Ry
     estimated scf accuracy    <       0.00000698 Ry

     iteration # 21     ecut=    77.00 Ry     beta= 0.20
     Davidson diagonalization with overlap
     c_bands:  1 eigenvalues not converged
     ethr =  5.43E-10,  avg # of iterations = 18.0

     negative rho (up, down):  9.832E-04 0.000E+00

     total cpu time spent up to now is    11281.8 secs

     total energy              =  -24869.11991534 Ry
     estimated scf accuracy    <       0.00002614 Ry

     iteration # 22     ecut=    77.00 Ry     beta= 0.20
     Davidson diagonalization with overlap
     ethr =  5.43E-10,  avg # of iterations =  2.8

     negative rho (up, down):  9.798E-04 0.000E+00

     total cpu time spent up to now is    11516.5 secs

     total energy              =  -24869.11991032 Ry
     estimated scf accuracy    <       0.00001109 Ry

     iteration # 23     ecut=    77.00 Ry     beta= 0.20
     Davidson diagonalization with overlap
     ethr =  5.43E-10,  avg # of iterations = 13.0

     negative rho (up, down):  9.796E-04 0.000E+00

     total cpu time spent up to now is    11967.6 secs

     total energy              =  -24869.11991662 Ry
     estimated scf accuracy    <       0.00000100 Ry

     iteration # 24     ecut=    77.00 Ry     beta= 0.20
     Davidson diagonalization with overlap
     c_bands:  3 eigenvalues not converged
     ethr =  7.81E-11,  avg # of iterations = 16.2

     negative rho (up, down):  9.803E-04 0.000E+00

     total cpu time spent up to now is    12601.6 secs

     total energy              =  -24869.11991614 Ry
     estimated scf accuracy    <       0.00000228 Ry

     iteration # 25     ecut=    77.00 Ry     beta= 0.20
     Davidson diagonalization with overlap
     c_bands:  1 eigenvalues not converged
     ethr =  7.81E-11,  avg # of iterations = 17.2

     negative rho (up, down):  9.775E-04 0.000E+00

     total cpu time spent up to now is    13021.3 secs

     End of self-consistent calculation

          k = 0.0000 0.0000 0.0000 (321495 PWs)   bands (ev):

   -88.6932 -88.3914 -66.6639 -66.6428 -66.6428 -66.6428 -66.6428 -66.6428
   -66.6428 -66.6216 -66.6216 -66.6216 -66.6216 -66.6216 -66.6216 -66.6216
   -66.6216 -66.6216 -66.5979 -66.5772 -66.5770 -66.5768 -66.5768 -66.5765
   -66.5765 -66.5561 -66.5559 -66.5558 -66.5556 -66.5556 -66.5555 -66.5554
   -66.5553 -66.5551 -66.5245 -66.5112 -66.5063 -66.5037 -66.4973 -66.4941
   -66.4908 -66.4878 -66.4802 -66.4752 -66.4728 -66.4699 -66.4671 -66.4647
   -66.4570 -66.4477 -54.5079 -54.4996 -54.4631 -54.2357 -54.2072 -54.1439
   -40.9903 -40.9903 -40.9903 -40.9233 -40.9231 -40.9231 -40.9155 -40.9155
   -40.9155 -40.9155 -40.9155 -40.9155 -40.8486 -40.8485 -40.8484 -40.8483
   -40.8483 -40.8482 -40.8446 -40.8427 -40.8374 -40.8240 -40.7900 -40.7900
   -40.7900 -40.7899 -40.7899 -40.7899 -40.7826 -40.7826 -40.7826 -40.7826
   -40.7826 -40.7826 -40.7721 -40.7708 -40.7653 -40.7613 -40.7585 -40.7575
   -40.7551 -40.7551 -40.7551 -40.7551 -40.7551 -40.7551 -40.7545 -40.7409
   -40.7409 -40.7409 -40.7409 -40.7409 -40.7409 -40.7408 -40.7408 -40.7408
   -40.7232 -40.7231 -40.7230 -40.7229 -40.7229 -40.7228 -40.7174 -40.7173
   -40.7171 -40.7171 -40.7169 -40.7168 -40.6938 -40.6884 -40.6883 -40.6882
   -40.6881 -40.6881 -40.6880 -40.6773 -40.6773 -40.6773 -40.6759 -40.6758
   -40.6756 -40.6755 -40.6754 -40.6753 -40.6752 -40.6752 -40.6750 -40.6719
   -40.6534 -40.6516 -40.6486 -40.6476 -40.6464 -40.6445 -40.6425 -40.6385
   -40.6376 -40.6335 -40.6305 -40.6305 -40.6305 -40.6305 -40.6305 -40.6305
   -40.6235 -40.6163 -40.6147 -40.6134 -40.6105 -40.6104 -40.6104 -40.6098
   -40.6070 -40.6057 -40.6049 -40.6026 -40.6010 -40.5976 -40.5968 -40.5939
   -40.5933 -40.5917 -40.5867 -40.5832 -40.5832 -40.5640 -40.5637 -40.5637
   -40.5636 -40.5636 -40.5635 -40.5294 -40.5270 -40.5257 -40.5164 -40.5164
   -40.4821 -40.4805 -40.4792 -40.4760 -40.4731 -40.4711 -40.4290 -40.4251
   -20.1012 -20.0147 -19.8877 -19.3602 -19.2373 -19.2329 -19.2294 -19.2289
   -19.2283 -19.2192 -19.1751 -19.1563 -19.1249 -19.1194 -19.1130 -19.0719
   -19.0502 -19.0430 -19.0130 -19.0015 -18.9845 -18.8485 -18.6919 -18.5824
   -18.4878 -18.4790 -18.4648 -18.4444 -18.4344 -18.4305 -18.3984 -18.3485
   -18.3390 -18.3247 -18.3067 -18.2757 -18.2418 -18.2197 -18.1902 -18.1839
   -18.1757 -18.1362 -18.1249 -18.1241 -18.1236 -18.1235 -18.1232 -18.1231
   -18.1195 -18.1159 -18.0832 -18.0831 -18.0831 -18.0519 -18.0479 -18.0443
   -18.0418 -18.0384 -18.0351 -18.0254 -18.0110 -18.0104 -18.0056 -17.9821
   -17.9590 -17.9526 -17.9462 -17.9411 -17.9404 -17.9280 -17.9236 -17.9223
   -17.9110 -17.9000 -17.8966 -17.8962 -17.8937 -17.8922 -17.8690 -17.8619
   -17.8588 -17.8426 -17.8376 -17.8282 -17.8270 -17.8218 -17.8196 -17.7988
   -17.7932 -17.7856 -17.7640 -17.7531 -17.7470 -17.7423 -17.7385 -17.7315
   -11.9328 -11.8503 -11.7704 -11.7449 -11.7360 -11.7316 -11.7044 -11.6515
   -11.6488 -11.6367 -11.5819 -11.3071 -11.2353 -11.2087 -11.1931 -11.1871
   -11.1864 -11.1760 -11.1548 -11.1409 -11.1188 -11.1131 -11.1116 -11.1112
   -11.1031 -11.0945 -11.0792 -11.0239 -10.9979 -10.9906 -10.9760 -10.9651
   -10.9625 -10.9514 -10.9355 -10.9281 -10.9112 -10.8998 -10.8987 -10.8957
   -10.8898 -10.8800 -10.8487 -10.8441 -10.8310 -10.8193 -10.8179 -10.8161
   -10.8134 -10.8130 -10.8102 -10.7990 -10.7933 -10.7906 -10.7847 -10.7840
   -10.7780 -10.7661 -10.7645 -10.7623 -10.7600 -10.7516 -10.7424 -10.7249
   -10.7059 -10.7034 -10.6844 -10.6573 -10.6513 -10.6205 -10.6103 -10.6042
   -10.5839 -10.5791 -10.5743 -10.3530 -10.1854 -10.1084 -10.0307 -10.0296
   -10.0260  -9.9356  -9.8761  -9.8660  -9.8590  -9.7894  -9.7656  -9.7623
    -9.7593  -9.7567  -9.7528  -9.7218  -9.7049  -9.6997  -9.6858  -9.6754
    -9.6728  -9.6627  -9.6620  -9.6425  -9.6224  -9.6098  -9.6076  -9.6026
    -9.5977  -9.5956  -9.5843  -9.5626  -9.5588  -9.5578  -9.5565  -9.5544
    -9.5535  -9.5529  -9.5348  -9.5189  -9.5117  -9.5020  -9.4900  -9.4876
    -9.4476  -9.4378  -9.4201  -9.4177  -9.4135  -9.4097  -9.3529  -9.3320
    -9.3194  -9.3133  -9.3116  -9.3054  -9.2930  -9.2828  -9.2525  -9.2324
    -9.2192  -9.2005  -9.1821  -9.1787  -9.1728  -9.1692  -9.1651  -9.1562
    -9.0780  -9.0656  -9.0371  -9.0080  -9.0051  -9.0024  -9.0019  -9.0018
    -8.9953  -8.9929  -8.9746  -8.9676  -8.9252  -8.9235  -8.9213  -8.9127
    -8.8913  -8.8594  -8.8472  -8.8364  -8.8263  -8.7936  -8.7887  -8.7845
    -8.7812  -8.7801  -8.7776  -8.7693  -8.7595  -8.7331  -8.7282  -8.7182
    -8.7155  -8.7095  -8.7017  -8.6988  -8.6898  -8.6723  -8.6660  -8.4992
    -8.4248  -8.4134  -8.4131  -8.4130  -8.3406  -8.3405  -8.3015  -8.3010
    -8.3009  -8.3009  -8.3009  -8.3008  -8.2834  -8.2701  -8.2547  -8.2492
    -8.2305  -8.2294  -8.2268  -8.2221  -8.2220  -8.2209  -8.1856  -8.1770
    -8.1614  -8.0908  -8.0209  -7.9895  -7.9147  -7.9051  -7.9021  -7.8583
    -7.6783  -7.6608  -7.6570  -7.6085  -7.5921  -7.5656  -7.5655  -7.5655
    -7.5654  -7.5653  -7.5645  -7.5195  -7.5192  -7.5189  -7.5188  -7.5188
    -7.5182  -7.5121  -7.5029  -7.4984  -7.4934  -7.4925  -7.4865  -7.4841
    -7.4738  -7.4692  -7.4650  -7.4523  -7.4519  -7.4472  -7.4448  -7.4447
    -7.4428  -7.4316  -7.4302  -7.4271  -7.4172  -7.4033  -7.4003  -7.3998
    -7.3989  -7.3957  -7.3869  -7.3571  -7.3261  -7.2842  -7.2842  -7.2599
    -7.2424  -7.2176  -7.2148  -7.2099  -7.1938  -7.1803  -7.1646  -7.1555
    -7.0995  -7.0108  -6.9805  -6.9668  -6.9395  -6.9049  -6.8949  -6.8586
    -6.8509  -6.8148  -6.8045  -6.7821  -6.7795  -6.7742  -6.7332  -6.6761
    -6.6530  -6.6490  -6.6470  -6.6236  -6.6107  -6.5997  -6.5968  -6.5932
    -6.5809  -6.5533  -6.5244  -6.5121  -6.5073  -6.5060  -6.4995  -6.4948
    -6.4900  -6.4817  -6.4710  -6.4588  -6.4461  -6.4389  -6.4298  -6.4162
    -6.4034  -6.4027  -6.3987  -6.3947  -6.3529  -6.3384  -6.3322  -6.3321
    -6.3321  -6.3321  -6.3321  -6.3321  -6.3054  -6.2857  -6.2596  -6.2558
    -6.2555  -6.2541  -6.2537  -6.2512  -6.2354  -6.2178  -6.1984  -6.1683
    -6.1558  -6.0799  -5.9499  -5.8106  -5.7103  -5.5265  -5.4525  -5.4014
    -5.3246  -5.1088  -3.9511  -3.8463  -3.8179  -3.8145  -3.8125  -3.8116
    -3.7882  -3.7861  -3.7831  -3.7823  -3.7803  -3.7787  -3.7312  -3.6647
    -3.5855  -3.5802  -3.5674  -3.5634  -3.5617  -3.5534  -3.5493  -3.5476
    -3.5447  -3.5409  -3.4727  -3.4727  -3.4727  -3.4566  -3.4554  -3.4545
    -3.4542  -3.4533  -3.4528  -3.4055  -3.4052  -3.4052  -3.3909  -3.3792
    -3.3651  -3.3601  -3.3553  -3.3547  -3.3504  -3.3467  -3.3455  -3.3425
    -3.3397  -3.3374  -3.3217  -3.3181  -3.3172  -3.3097  -3.2772  -3.2627
    -3.2510  -3.2429  -3.2388  -3.2274  -3.2138  -3.2064  -3.2023  -3.1966
    -3.1634  -3.0064  -3.0064  -3.0063  -3.0012  -3.0009  -2.9650  -2.9350
    -2.9344  -2.9342  -2.9340  -2.9337  -2.9336  -2.9335  -2.9331  -2.9242
    -2.9128  -2.9123  -2.9113  -2.8970  -2.8920  -2.8782  -2.8752  -2.8703
    -2.8688  -2.8648  -2.8624  -2.8596  -2.8594  -2.8502  -2.8481  -2.8375
    -2.8303  -2.8260  -2.7924  -2.7853  -2.7712  -2.7660  -2.7620  -2.7517
    -2.7457  -2.7455  -2.7173  -2.7160  -2.7113  -2.7083  -2.7042  -2.6997
    -2.6758  -2.6735  -2.6695  -2.6410  -2.6281  -2.6120  -2.6087  -2.6038
    -2.5874  -2.5765  -2.5160  -2.5073  -2.4847  -2.4598  -2.4462  -2.4339
    -2.4312  -2.4241

          k = 0.0000-0.5773 0.0000 (321564 PWs)   bands (ev):

   -88.6932 -88.3914 -66.6577 -66.6577 -66.6472 -66.6472 -66.6322 -66.6322
   -66.6322 -66.6322 -66.6278 -66.6278 -66.6216 -66.6216 -66.6216 -66.6216
   -66.6172 -66.6172 -66.5918 -66.5916 -66.5812 -66.5811 -66.5664 -66.5664
   -66.5662 -66.5660 -66.5619 -66.5617 -66.5560 -66.5556 -66.5555 -66.5554
   -66.5512 -66.5512 -66.5230 -66.5136 -66.5078 -66.5033 -66.4979 -66.4921
   -66.4910 -66.4843 -66.4813 -66.4758 -66.4733 -66.4712 -66.4670 -66.4640
   -66.4571 -66.4476 -54.5079 -54.4996 -54.4631 -54.2357 -54.2072 -54.1440
   -40.9589 -40.9589 -40.9589 -40.9589 -40.9323 -40.9323 -40.9203 -40.9203
   -40.8921 -40.8917 -40.8916 -40.8916 -40.8699 -40.8699 -40.8699 -40.8699
   -40.8653 -40.8650 -40.8533 -40.8532 -40.8268 -40.8119 -40.8119 -40.8105
   -40.8034 -40.8029 -40.8028 -40.8028 -40.8028 -40.8020 -40.8020 -40.7937
   -40.7912 -40.7912 -40.7905 -40.7833 -40.7710 -40.7618 -40.7618 -40.7618
   -40.7618 -40.7601 -40.7531 -40.7531 -40.7465 -40.7462 -40.7410 -40.7410
   -40.7409 -40.7409 -40.7409 -40.7409 -40.7351 -40.7350 -40.7322 -40.7322
   -40.7257 -40.7257 -40.7209 -40.7195 -40.7186 -40.7102 -40.7102 -40.7102
   -40.7102 -40.7100 -40.6964 -40.6964 -40.6962 -40.6961 -40.6878 -40.6875
   -40.6864 -40.6791 -40.6758 -40.6757 -40.6757 -40.6757 -40.6757 -40.6753
   -40.6753 -40.6752 -40.6741 -40.6740 -40.6668 -40.6668 -40.6636 -40.6636
   -40.6635 -40.6565 -40.6492 -40.6455 -40.6445 -40.6445 -40.6435 -40.6434
   -40.6433 -40.6432 -40.6429 -40.6334 -40.6276 -40.6276 -40.6268 -40.6191
   -40.6144 -40.6128 -40.6092 -40.6089 -40.6089 -40.6088 -40.6088 -40.6078
   -40.6020 -40.5976 -40.5971 -40.5971 -40.5969 -40.5966 -40.5922 -40.5904
   -40.5868 -40.5854 -40.5777 -40.5775 -40.5688 -40.5620 -40.5608 -40.5607
   -40.5582 -40.5507 -40.5304 -40.5302 -40.5277 -40.5229 -40.5219 -40.5206
   -40.5192 -40.4989 -40.4959 -40.4919 -40.4740 -40.4691 -40.4498 -40.4323
   -19.8848 -19.8590 -19.8232 -19.7421 -19.6730 -19.6162 -19.4300 -19.4264
   -19.3604 -19.3336 -19.2406 -19.2199 -18.8880 -18.7528 -18.7258 -18.7210
   -18.7171 -18.7157 -18.7096 -18.6787 -18.6463 -18.6378 -18.6079 -18.5845
   -18.5753 -18.5682 -18.5554 -18.5238 -18.5149 -18.5126 -18.4694 -18.4680
   -18.4362 -18.4205 -18.3903 -18.3839 -18.3751 -18.3685 -18.3362 -18.2979
   -18.2740 -18.2469 -18.2322 -18.2074 -18.1944 -18.1916 -18.1657 -18.1391
   -18.1168 -18.1038 -18.1037 -18.1036 -18.1035 -18.0940 -18.0839 -18.0748
   -18.0609 -18.0385 -18.0284 -18.0271 -18.0230 -18.0210 -18.0167 -17.9867
   -17.9825 -17.9665 -17.9617 -17.9517 -17.9446 -17.9427 -17.9239 -17.9155
   -17.9091 -17.8996 -17.8987 -17.8830 -17.8637 -17.8509 -17.8403 -17.8402
   -17.8350 -17.8331 -17.7966 -17.7848 -17.7806 -17.7804 -17.7647 -17.7640
   -17.7539 -17.7529 -17.7369 -17.7266 -17.7194 -17.7138 -17.6576 -17.6551
   -11.7584 -11.6879 -11.6512 -11.5656 -11.4748 -11.4510 -11.4510 -11.4478
   -11.4429 -11.4270 -11.4181 -11.3726 -11.3689 -11.3676 -11.3504 -11.3469
   -11.3242 -11.3020 -11.2845 -11.2749 -11.2695 -11.2645 -11.2576 -11.2372
   -11.2331 -11.2330 -11.2012 -11.1875 -11.1873 -11.1692 -11.1374 -11.1310
   -11.1269 -11.1266 -11.0562 -11.0161 -10.9666 -10.9576 -10.9424 -10.9359
   -10.9137 -10.8969 -10.8890 -10.8849 -10.8679 -10.8547 -10.8512 -10.8243
   -10.8154 -10.8120 -10.8067 -10.8063 -10.8045 -10.8019 -10.7995 -10.7896
   -10.7702 -10.7618 -10.7457 -10.7415 -10.7331 -10.7293 -10.7130 -10.6572
   -10.5768 -10.5565 -10.5242 -10.4723 -10.4634 -10.4174 -10.3503 -10.3199
   -10.2651 -10.2038 -10.1103 -10.1046 -10.1016 -10.0921 -10.0759 -10.0392
   -10.0251 -10.0087 -10.0058  -9.9453  -9.9370  -9.9202  -9.9128  -9.9115
    -9.9030  -9.8948  -9.8911  -9.8738  -9.8720  -9.8676  -9.8574  -9.8437
    -9.7853  -9.7667  -9.7549  -9.7453  -9.7268  -9.7222  -9.7079  -9.6935
    -9.6883  -9.6860  -9.6772  -9.6718  -9.6371  -9.6274  -9.6142  -9.6129
    -9.6088  -9.5883  -9.5851  -9.5727  -9.5570  -9.5127  -9.5059  -9.5031
    -9.4864  -9.4726  -9.4456  -9.4448  -9.4182  -9.4045  -9.3042  -9.3024
    -9.2509  -9.2377  -9.1874  -9.1707  -9.1644  -9.1520  -9.1312  -9.1160
    -9.1097  -9.1032  -9.1021  -9.0993  -9.0633  -9.0490  -9.0427  -9.0198
    -9.0101  -9.0069  -8.9892  -8.9861  -8.9668  -8.9583  -8.9556  -8.9344
    -8.9297  -8.9251  -8.9187  -8.9135  -8.9095  -8.9073  -8.8974  -8.8844
    -8.8758  -8.8649  -8.8462  -8.8439  -8.8334  -8.8287  -8.8250  -8.8198
    -8.8157  -8.8148  -8.8032  -8.7920  -8.7802  -8.7750  -8.7603  -8.7475
    -8.7431  -8.7382  -8.7177  -8.7117  -8.6942  -8.6768  -8.5243  -8.5033
    -8.4901  -8.4860  -8.4830  -8.4056  -8.4015  -8.3784  -8.3118  -8.2476
    -8.2012  -8.1879  -8.1695  -8.1694  -8.1186  -8.0978  -8.0970  -8.0674
    -8.0368  -8.0280  -7.9415  -7.9125  -7.9089  -7.8977  -7.8891  -7.8404
    -7.8341  -7.8316  -7.8281  -7.8228  -7.8228  -7.8205  -7.8198  -7.8141
    -7.7989  -7.7787  -7.7770  -7.7763  -7.7761  -7.7582  -7.7529  -7.7517
    -7.7431  -7.7341  -7.7316  -7.7276  -7.7172  -7.7050  -7.7040  -7.6979
    -7.6939  -7.6818  -7.6771  -7.6676  -7.6634  -7.6513  -7.6407  -7.6376
    -7.6375  -7.6309  -7.6289  -7.6158  -7.6035  -7.5969  -7.5793  -7.5679
    -7.5631  -7.5567  -7.5450  -7.5205  -7.5086  -7.5007  -7.4973  -7.4369
    -7.4282  -7.4105  -7.3314  -7.3041  -7.2372  -7.2316  -7.2120  -7.2072
    -7.1884  -7.1540  -7.1329  -7.1047  -7.0932  -7.0729  -7.0318  -7.0176
    -6.9903  -6.9842  -6.9791  -6.9630  -6.9371  -6.9234  -6.9189  -6.9169
    -6.9097  -6.8778  -6.8507  -6.8143  -6.8117  -6.8041  -6.7920  -6.7569
    -6.7525  -6.7166  -6.6950  -6.6674  -6.6361  -6.6344  -6.6344  -6.6344
    -6.6308  -6.6160  -6.5944  -6.5710  -6.5672  -6.5662  -6.5636  -6.5604
    -6.5457  -6.5320  -6.5230  -6.4966  -6.4793  -6.4469  -6.4256  -6.4084
    -6.3077  -6.3034  -6.3028  -6.3027  -6.2989  -6.2740  -6.2421  -6.2404
    -6.2318  -6.2237  -6.2213  -6.2199  -6.2160  -6.2034  -6.1670  -6.1645
    -6.1458  -6.1198  -6.0867  -5.9682  -5.9543  -5.9542  -5.8776  -5.8767
    -5.8261  -5.7578  -5.7337  -5.6356  -5.6318  -5.5257  -5.5049  -5.4635
    -5.3806  -5.2827  -4.0250  -4.0005  -3.9907  -3.9899  -3.8915  -3.8699
    -3.8698  -3.8623  -3.8222  -3.8052  -3.8046  -3.7837  -3.7436  -3.7374
    -3.7354  -3.7297  -3.6750  -3.6629  -3.5819  -3.5754  -3.5733  -3.5701
    -3.5691  -3.5555  -3.5553  -3.5420  -3.5206  -3.5106  -3.4801  -3.4760
    -3.4753  -3.4659  -3.4566  -3.4514  -3.4490  -3.4454  -3.4364  -3.4362
    -3.3920  -3.3767  -3.3718  -3.3511  -3.3427  -3.3260  -3.3250  -3.3224
    -3.3222  -3.2932  -3.2900  -3.2867  -3.2815  -3.2565  -3.2470  -3.2462
    -3.2459  -3.2453  -3.2350  -3.2244  -3.2148  -3.2059  -3.1974  -3.1834
    -3.1779  -3.1769  -3.1726  -3.1655  -3.1621  -3.1546  -3.1261  -3.1069
    -3.0932  -3.0832  -3.0782  -3.0640  -3.0433  -3.0408  -3.0063  -3.0022
    -3.0016  -2.9935  -2.9835  -2.9828  -2.9826  -2.9824  -2.9505  -2.9377
    -2.9343  -2.9327  -2.9179  -2.9089  -2.9054  -2.8948  -2.8864  -2.8863
    -2.8704  -2.8674  -2.8568  -2.8548  -2.8477  -2.8366  -2.8320  -2.8112
    -2.7986  -2.7849  -2.7713  -2.7708  -2.7678  -2.7591  -2.7042  -2.6789
    -2.6741  -2.6214  -2.6205  -2.6175  -2.6087  -2.6056  -2.5996  -2.5382
    -2.5349  -2.5278  -2.4822  -2.4762  -2.4684  -2.4569  -2.4542  -2.4333
    -2.3244  -2.3085

          k =-0.5000-0.2887 0.0000 (321564 PWs)   bands (ev):

   -88.6932 -88.3914 -66.6578 -66.6577 -66.6472 -66.6472 -66.6322 -66.6322
   -66.6322 -66.6322 -66.6278 -66.6278 -66.6216 -66.6216 -66.6216 -66.6216
   -66.6172 -66.6172 -66.5917 -66.5917 -66.5812 -66.5811 -66.5664 -66.5663
   -66.5662 -66.5660 -66.5618 -66.5618 -66.5557 -66.5557 -66.5555 -66.5555
   -66.5513 -66.5511 -66.5218 -66.5170 -66.5057 -66.5005 -66.4969 -66.4947
   -66.4935 -66.4837 -66.4811 -66.4757 -66.4724 -66.4704 -66.4682 -66.4641
   -66.4571 -66.4476 -54.5079 -54.4996 -54.4631 -54.2357 -54.2072 -54.1439
   -40.9589 -40.9589 -40.9589 -40.9589 -40.9323 -40.9323 -40.9203 -40.9203
   -40.8918 -40.8918 -40.8918 -40.8917 -40.8699 -40.8699 -40.8699 -40.8699
   -40.8652 -40.8651 -40.8533 -40.8531 -40.8197 -40.8140 -40.8119 -40.8119
   -40.8095 -40.8029 -40.8029 -40.8028 -40.8028 -40.8020 -40.8020 -40.7968
   -40.7912 -40.7912 -40.7900 -40.7864 -40.7675 -40.7618 -40.7618 -40.7618
   -40.7618 -40.7549 -40.7531 -40.7531 -40.7464 -40.7463 -40.7410 -40.7410
   -40.7409 -40.7409 -40.7409 -40.7409 -40.7351 -40.7350 -40.7322 -40.7322
   -40.7257 -40.7256 -40.7193 -40.7181 -40.7149 -40.7133 -40.7102 -40.7102
   -40.7102 -40.7102 -40.6964 -40.6964 -40.6963 -40.6962 -40.6877 -40.6876
   -40.6863 -40.6791 -40.6757 -40.6757 -40.6757 -40.6757 -40.6755 -40.6755
   -40.6754 -40.6753 -40.6741 -40.6740 -40.6669 -40.6668 -40.6652 -40.6637
   -40.6636 -40.6549 -40.6524 -40.6464 -40.6445 -40.6444 -40.6435 -40.6433
   -40.6433 -40.6432 -40.6432 -40.6311 -40.6276 -40.6276 -40.6250 -40.6224
   -40.6183 -40.6151 -40.6089 -40.6089 -40.6088 -40.6088 -40.6050 -40.6034
   -40.6013 -40.5999 -40.5971 -40.5971 -40.5968 -40.5968 -40.5944 -40.5918
   -40.5874 -40.5849 -40.5777 -40.5775 -40.5636 -40.5632 -40.5608 -40.5607
   -40.5588 -40.5563 -40.5303 -40.5303 -40.5269 -40.5248 -40.5222 -40.5176
   -40.5152 -40.5033 -40.4953 -40.4909 -40.4721 -40.4649 -40.4497 -40.4365
   -19.8811 -19.8595 -19.8198 -19.7486 -19.6728 -19.6271 -19.4279 -19.4263
   -19.3500 -19.3321 -19.2360 -19.2190 -18.8937 -18.7571 -18.7339 -18.7187
   -18.7165 -18.7161 -18.7102 -18.6851 -18.6440 -18.6355 -18.6043 -18.5844
   -18.5791 -18.5678 -18.5455 -18.5248 -18.5211 -18.5138 -18.4686 -18.4684
   -18.4278 -18.4249 -18.4019 -18.3840 -18.3737 -18.3626 -18.3480 -18.2900
   -18.2707 -18.2460 -18.2231 -18.2103 -18.1968 -18.1928 -18.1561 -18.1292
   -18.1261 -18.1038 -18.1037 -18.1036 -18.1036 -18.0944 -18.0792 -18.0754
   -18.0434 -18.0418 -18.0316 -18.0269 -18.0256 -18.0190 -18.0104 -18.0034
   -17.9757 -17.9678 -17.9640 -17.9504 -17.9484 -17.9431 -17.9216 -17.9165
   -17.9112 -17.9055 -17.8985 -17.8885 -17.8559 -17.8519 -17.8436 -17.8403
   -17.8402 -17.8338 -17.7909 -17.7857 -17.7807 -17.7803 -17.7735 -17.7646
   -17.7638 -17.7526 -17.7325 -17.7227 -17.7188 -17.7054 -17.6604 -17.6507
   -11.7327 -11.6685 -11.6400 -11.5759 -11.4922 -11.4551 -11.4513 -11.4489
   -11.4438 -11.4267 -11.4195 -11.4095 -11.3830 -11.3712 -11.3497 -11.3429
   -11.3393 -11.3172 -11.2976 -11.2907 -11.2746 -11.2581 -11.2566 -11.2331
   -11.2331 -11.2164 -11.1932 -11.1873 -11.1866 -11.1533 -11.1324 -11.1304
   -11.1289 -11.1273 -11.0460 -11.0024 -10.9759 -10.9598 -10.9476 -10.9364
   -10.9155 -10.8945 -10.8862 -10.8826 -10.8701 -10.8519 -10.8418 -10.8237
   -10.8168 -10.8104 -10.8062 -10.8052 -10.8038 -10.8018 -10.7926 -10.7849
   -10.7677 -10.7641 -10.7511 -10.7419 -10.7343 -10.7311 -10.7220 -10.6831
   -10.5728 -10.5482 -10.4927 -10.4707 -10.4529 -10.3734 -10.3442 -10.3028
   -10.2741 -10.2333 -10.1553 -10.1222 -10.1021 -10.0925 -10.0892 -10.0655
   -10.0197 -10.0046  -9.9864  -9.9682  -9.9233  -9.9135  -9.9116  -9.9109
    -9.9071  -9.9013  -9.8772  -9.8732  -9.8697  -9.8677  -9.8522  -9.8191
    -9.7750  -9.7678  -9.7366  -9.7307  -9.7251  -9.7237  -9.7059  -9.6926
    -9.6867  -9.6846  -9.6750  -9.6659  -9.6304  -9.6267  -9.6211  -9.6112
    -9.5934  -9.5862  -9.5813  -9.5798  -9.5238  -9.5115  -9.5057  -9.5038
    -9.4907  -9.4796  -9.4467  -9.4451  -9.4306  -9.4092  -9.3314  -9.2919
    -9.2845  -9.2392  -9.2215  -9.1795  -9.1589  -9.1517  -9.1307  -9.1234
    -9.1221  -9.1095  -9.1025  -9.0988  -9.0791  -9.0504  -9.0346  -9.0216
    -9.0147  -8.9925  -8.9871  -8.9789  -8.9673  -8.9629  -8.9501  -8.9424
    -8.9300  -8.9267  -8.9190  -8.9098  -8.9081  -8.9066  -8.9003  -8.8922
    -8.8662  -8.8656  -8.8439  -8.8331  -8.8311  -8.8239  -8.8172  -8.8157
    -8.8115  -8.8082  -8.8039  -8.7934  -8.7868  -8.7782  -8.7663  -8.7556
    -8.7410  -8.7374  -8.7242  -8.7150  -8.6925  -8.6726  -8.5579  -8.4987
    -8.4881  -8.4855  -8.4612  -8.4063  -8.3999  -8.3931  -8.3302  -8.2758
    -8.1995  -8.1695  -8.1695  -8.1426  -8.1027  -8.0974  -8.0968  -8.0777
    -8.0411  -8.0205  -7.9452  -7.9219  -7.9086  -7.9033  -7.8484  -7.8413
    -7.8397  -7.8305  -7.8252  -7.8227  -7.8227  -7.8212  -7.8192  -7.8135
    -7.7818  -7.7801  -7.7767  -7.7761  -7.7687  -7.7584  -7.7551  -7.7510
    -7.7448  -7.7337  -7.7279  -7.7212  -7.7126  -7.7072  -7.7035  -7.7000
    -7.6955  -7.6894  -7.6784  -7.6658  -7.6631  -7.6569  -7.6402  -7.6375
    -7.6374  -7.6234  -7.6189  -7.6102  -7.5999  -7.5946  -7.5756  -7.5704
    -7.5677  -7.5602  -7.5512  -7.5190  -7.5107  -7.4982  -7.4796  -7.4651
    -7.4327  -7.4139  -7.3361  -7.2886  -7.2398  -7.2283  -7.2126  -7.2045
    -7.1874  -7.1631  -7.1075  -7.1023  -7.0802  -7.0739  -7.0308  -7.0228
    -6.9978  -6.9861  -6.9832  -6.9686  -6.9543  -6.9264  -6.9223  -6.9165
    -6.8792  -6.8773  -6.8589  -6.8501  -6.8359  -6.8112  -6.8019  -6.7789
    -6.7429  -6.7024  -6.6773  -6.6644  -6.6454  -6.6352  -6.6344  -6.6344
    -6.6341  -6.6329  -6.6015  -6.5703  -6.5671  -6.5661  -6.5639  -6.5598
    -6.5350  -6.5332  -6.5185  -6.4828  -6.4518  -6.4327  -6.4213  -6.4133
    -6.3895  -6.3042  -6.3030  -6.3026  -6.3023  -6.2846  -6.2384  -6.2361
    -6.2260  -6.2212  -6.2193  -6.2169  -6.2036  -6.1819  -6.1741  -6.1579
    -6.1455  -6.1196  -5.9781  -5.9543  -5.9543  -5.9118  -5.8818  -5.8753
    -5.8596  -5.8243  -5.7280  -5.6344  -5.6231  -5.5634  -5.5137  -5.4719
    -5.3775  -5.2843  -4.0268  -3.9995  -3.9928  -3.9917  -3.9138  -3.8698
    -3.8698  -3.8542  -3.8159  -3.8050  -3.8048  -3.7773  -3.7489  -3.7464
    -3.7380  -3.7277  -3.6888  -3.6551  -3.5814  -3.5747  -3.5718  -3.5703
    -3.5649  -3.5554  -3.5553  -3.5446  -3.5210  -3.5164  -3.4803  -3.4782
    -3.4762  -3.4722  -3.4532  -3.4489  -3.4443  -3.4424  -3.4388  -3.4370
    -3.3922  -3.3734  -3.3569  -3.3458  -3.3317  -3.3290  -3.3235  -3.3227
    -3.3109  -3.2941  -3.2889  -3.2838  -3.2788  -3.2638  -3.2494  -3.2464
    -3.2460  -3.2455  -3.2439  -3.2209  -3.2118  -3.2063  -3.2000  -3.1851
    -3.1753  -3.1742  -3.1709  -3.1668  -3.1599  -3.1508  -3.1194  -3.1040
    -3.0887  -3.0853  -3.0729  -3.0654  -3.0432  -3.0413  -3.0051  -3.0034
    -3.0018  -3.0001  -2.9830  -2.9830  -2.9826  -2.9823  -2.9489  -2.9389
    -2.9343  -2.9333  -2.9176  -2.9082  -2.8965  -2.8951  -2.8893  -2.8869
    -2.8721  -2.8682  -2.8561  -2.8529  -2.8438  -2.8363  -2.8329  -2.8093
    -2.7978  -2.7907  -2.7819  -2.7761  -2.7725  -2.7685  -2.7066  -2.6993
    -2.6772  -2.6690  -2.6232  -2.6214  -2.6199  -2.6141  -2.6021  -2.5989
    -2.5396  -2.5351  -2.4890  -2.4792  -2.4634  -2.4605  -2.4545  -2.4371
    -2.3416  -2.2991

          k =-0.5000-0.8660 0.0000 (321564 PWs)   bands (ev):

   -88.6932 -88.3914 -66.6577 -66.6577 -66.6472 -66.6472 -66.6322 -66.6322
   -66.6322 -66.6322 -66.6278 -66.6278 -66.6216 -66.6216 -66.6216 -66.6216
   -66.6172 -66.6172 -66.5919 -66.5915 -66.5812 -66.5811 -66.5664 -66.5663
   -66.5663 -66.5660 -66.5620 -66.5616 -66.5559 -66.5559 -66.5555 -66.5552
   -66.5513 -66.5511 -66.5217 -66.5172 -66.5055 -66.5007 -66.4971 -66.4950
   -66.4924 -66.4848 -66.4809 -66.4749 -66.4733 -66.4697 -66.4681 -66.4645
   -66.4571 -66.4476 -54.5079 -54.4996 -54.4631 -54.2357 -54.2072 -54.1439
   -40.9589 -40.9589 -40.9589 -40.9589 -40.9323 -40.9323 -40.9203 -40.9203
   -40.8920 -40.8920 -40.8916 -40.8915 -40.8699 -40.8699 -40.8699 -40.8699
   -40.8653 -40.8650 -40.8533 -40.8531 -40.8183 -40.8146 -40.8119 -40.8119
   -40.8058 -40.8029 -40.8029 -40.8028 -40.8028 -40.8020 -40.8020 -40.8016
   -40.7912 -40.7912 -40.7907 -40.7858 -40.7692 -40.7618 -40.7618 -40.7618
   -40.7618 -40.7536 -40.7531 -40.7531 -40.7465 -40.7462 -40.7410 -40.7410
   -40.7409 -40.7409 -40.7409 -40.7409 -40.7351 -40.7350 -40.7322 -40.7322
   -40.7257 -40.7257 -40.7222 -40.7167 -40.7131 -40.7119 -40.7102 -40.7102
   -40.7102 -40.7102 -40.6964 -40.6964 -40.6963 -40.6962 -40.6878 -40.6875
   -40.6872 -40.6763 -40.6757 -40.6757 -40.6757 -40.6757 -40.6757 -40.6756
   -40.6753 -40.6751 -40.6741 -40.6740 -40.6684 -40.6669 -40.6668 -40.6636
   -40.6636 -40.6548 -40.6526 -40.6464 -40.6445 -40.6445 -40.6436 -40.6435
   -40.6433 -40.6430 -40.6396 -40.6329 -40.6276 -40.6276 -40.6253 -40.6235
   -40.6188 -40.6140 -40.6089 -40.6089 -40.6088 -40.6088 -40.6046 -40.6039
   -40.6014 -40.5988 -40.5971 -40.5971 -40.5970 -40.5966 -40.5934 -40.5928
   -40.5881 -40.5847 -40.5778 -40.5774 -40.5642 -40.5614 -40.5608 -40.5607
   -40.5606 -40.5567 -40.5305 -40.5301 -40.5285 -40.5232 -40.5213 -40.5192
   -40.5145 -40.5034 -40.4975 -40.4876 -40.4720 -40.4656 -40.4489 -40.4372
   -19.8821 -19.8594 -19.8210 -19.7462 -19.6729 -19.6234 -19.4301 -19.4256
   -19.3615 -19.3267 -19.2412 -19.2131 -18.8843 -18.7618 -18.7323 -18.7184
   -18.7167 -18.7159 -18.7103 -18.6741 -18.6571 -18.6362 -18.6056 -18.5847
   -18.5766 -18.5728 -18.5452 -18.5246 -18.5205 -18.5128 -18.4694 -18.4679
   -18.4329 -18.4269 -18.3961 -18.3809 -18.3724 -18.3663 -18.3477 -18.2866
   -18.2715 -18.2480 -18.2223 -18.2060 -18.1977 -18.1913 -18.1543 -18.1373
   -18.1183 -18.1039 -18.1038 -18.1036 -18.1035 -18.0999 -18.0793 -18.0766
   -18.0474 -18.0406 -18.0306 -18.0282 -18.0252 -18.0201 -18.0123 -18.0002
   -17.9757 -17.9678 -17.9574 -17.9538 -17.9480 -17.9430 -17.9213 -17.9177
   -17.9122 -17.9048 -17.8985 -17.8873 -17.8577 -17.8544 -17.8413 -17.8403
   -17.8402 -17.8335 -17.7914 -17.7886 -17.7804 -17.7803 -17.7696 -17.7642
   -17.7638 -17.7508 -17.7324 -17.7227 -17.7183 -17.7074 -17.6611 -17.6507
   -11.7317 -11.6746 -11.6473 -11.5872 -11.4779 -11.4516 -11.4514 -11.4476
   -11.4440 -11.4306 -11.4142 -11.3888 -11.3794 -11.3653 -11.3531 -11.3463
   -11.3391 -11.3114 -11.2930 -11.2850 -11.2731 -11.2586 -11.2577 -11.2331
   -11.2331 -11.2296 -11.2065 -11.1873 -11.1871 -11.1640 -11.1323 -11.1322
   -11.1282 -11.1269 -11.0519 -11.0053 -10.9681 -10.9603 -10.9463 -10.9381
   -10.9126 -10.8932 -10.8847 -10.8774 -10.8697 -10.8638 -10.8397 -10.8269
   -10.8149 -10.8094 -10.8062 -10.8053 -10.8048 -10.7995 -10.7937 -10.7847
   -10.7669 -10.7531 -10.7491 -10.7449 -10.7325 -10.7275 -10.7145 -10.7028
   -10.5647 -10.5501 -10.5179 -10.4676 -10.4590 -10.3832 -10.3522 -10.3145
   -10.2255 -10.2009 -10.1527 -10.1286 -10.1025 -10.0900 -10.0847 -10.0764
   -10.0251  -9.9994  -9.9889  -9.9729  -9.9302  -9.9142  -9.9128  -9.9107
    -9.9081  -9.8973  -9.8868  -9.8762  -9.8698  -9.8676  -9.8549  -9.8162
    -9.7784  -9.7609  -9.7370  -9.7302  -9.7259  -9.7238  -9.7040  -9.7002
    -9.6862  -9.6846  -9.6738  -9.6666  -9.6313  -9.6279  -9.6206  -9.6078
    -9.5952  -9.5882  -9.5852  -9.5740  -9.5263  -9.5135  -9.5057  -9.5038
    -9.4872  -9.4859  -9.4460  -9.4452  -9.4286  -9.4021  -9.3254  -9.2904
    -9.2793  -9.2404  -9.2243  -9.1812  -9.1600  -9.1419  -9.1375  -9.1313
    -9.1163  -9.1086  -9.1034  -9.0994  -9.0797  -9.0506  -9.0299  -9.0238
    -9.0177  -8.9972  -8.9875  -8.9853  -8.9738  -8.9601  -8.9439  -8.9411
    -8.9316  -8.9282  -8.9200  -8.9163  -8.9076  -8.9073  -8.8996  -8.8900
    -8.8690  -8.8603  -8.8431  -8.8332  -8.8308  -8.8259  -8.8167  -8.8157
    -8.8121  -8.8095  -8.8017  -8.7893  -8.7854  -8.7745  -8.7636  -8.7551
    -8.7403  -8.7380  -8.7235  -8.7145  -8.6929  -8.6757  -8.5715  -8.4918
    -8.4883  -8.4796  -8.4547  -8.4050  -8.4017  -8.3927  -8.3143  -8.2930
    -8.1975  -8.1695  -8.1694  -8.1434  -8.1237  -8.0976  -8.0971  -8.0691
    -8.0219  -8.0149  -7.9815  -7.9126  -7.9087  -7.8977  -7.8557  -7.8408
    -7.8381  -7.8301  -7.8267  -7.8228  -7.8227  -7.8217  -7.8158  -7.8134
    -7.7896  -7.7788  -7.7767  -7.7760  -7.7735  -7.7609  -7.7534  -7.7512
    -7.7391  -7.7328  -7.7268  -7.7189  -7.7123  -7.7088  -7.7028  -7.7004
    -7.6930  -7.6908  -7.6754  -7.6674  -7.6609  -7.6573  -7.6398  -7.6375
    -7.6374  -7.6261  -7.6244  -7.6023  -7.5989  -7.5910  -7.5800  -7.5712
    -7.5675  -7.5518  -7.5489  -7.5222  -7.5161  -7.4902  -7.4818  -7.4535
    -7.4367  -7.4110  -7.3384  -7.2759  -7.2358  -7.2258  -7.2145  -7.1994
    -7.1822  -7.1695  -7.1148  -7.1035  -7.0874  -7.0785  -7.0311  -7.0177
    -6.9993  -6.9876  -6.9830  -6.9784  -6.9650  -6.9268  -6.9219  -6.9126
    -6.8892  -6.8773  -6.8578  -6.8448  -6.8385  -6.8090  -6.8017  -6.7822
    -6.7415  -6.6974  -6.6849  -6.6759  -6.6456  -6.6345  -6.6344  -6.6344
    -6.6343  -6.6258  -6.5956  -6.5754  -6.5673  -6.5653  -6.5641  -6.5619
    -6.5435  -6.5263  -6.5162  -6.4686  -6.4565  -6.4260  -6.4130  -6.3929
    -6.3818  -6.3144  -6.3029  -6.3027  -6.3021  -6.3001  -6.2423  -6.2384
    -6.2241  -6.2236  -6.2205  -6.2173  -6.2090  -6.1876  -6.1753  -6.1732
    -6.1319  -6.1147  -5.9972  -5.9543  -5.9543  -5.8965  -5.8795  -5.8713
    -5.8585  -5.8124  -5.7260  -5.6345  -5.6288  -5.5551  -5.5234  -5.4730
    -5.3800  -5.2825  -4.0295  -4.0004  -3.9933  -3.9900  -3.9194  -3.8698
    -3.8698  -3.8524  -3.8169  -3.8051  -3.8049  -3.7775  -3.7487  -3.7441
    -3.7380  -3.7264  -3.6902  -3.6557  -3.5829  -3.5758  -3.5714  -3.5699
    -3.5646  -3.5554  -3.5552  -3.5430  -3.5208  -3.5185  -3.4852  -3.4769
    -3.4749  -3.4644  -3.4543  -3.4507  -3.4460  -3.4407  -3.4376  -3.4348
    -3.3876  -3.3768  -3.3594  -3.3478  -3.3310  -3.3275  -3.3228  -3.3224
    -3.3076  -3.2938  -3.2887  -3.2819  -3.2780  -3.2639  -3.2477  -3.2461
    -3.2459  -3.2450  -3.2435  -3.2175  -3.2114  -3.2066  -3.2010  -3.1911
    -3.1784  -3.1778  -3.1687  -3.1624  -3.1596  -3.1549  -3.1220  -3.1035
    -3.0906  -3.0849  -3.0773  -3.0558  -3.0429  -3.0416  -3.0057  -3.0033
    -3.0016  -3.0005  -2.9827  -2.9825  -2.9823  -2.9822  -2.9482  -2.9393
    -2.9341  -2.9332  -2.9192  -2.9058  -2.8958  -2.8930  -2.8876  -2.8871
    -2.8689  -2.8604  -2.8578  -2.8529  -2.8464  -2.8377  -2.8270  -2.8094
    -2.8002  -2.7943  -2.7799  -2.7728  -2.7722  -2.7698  -2.7048  -2.7023
    -2.6775  -2.6711  -2.6261  -2.6203  -2.6193  -2.6121  -2.6022  -2.6002
    -2.5391  -2.5358  -2.4844  -2.4780  -2.4674  -2.4605  -2.4556  -2.4397
    -2.3393  -2.3161

     the Fermi energy is    -4.5799 ev

!    total energy              =  -24869.11991707 Ry
     total all-electron energy =   -485549.023414 Ry
     estimated scf accuracy    <       0.00000005 Ry
     smearing contrib. (-TS)   =      -0.00000000 Ry
     internal energy E=F+TS    =  -24869.11991707 Ry

     The total energy is F=E-TS. E is the sum of the following terms:
     one-electron contribution =  477891.50123976 Ry
     hartree contribution      = -239050.72082817 Ry
     xc contribution           =   -1490.02591154 Ry
     ewald contribution        = -246362.84548591 Ry
     DFT-D3 Dispersion         =      -4.01808211 Ry
     one-center paw contrib.   =  -15853.01084909 Ry

     convergence has been achieved in  25 iterations

     negative rho (up, down):  9.775E-04 0.000E+00

     Forces acting on atoms (cartesian axes, Ry/au):

     atom    1 type  1   force =     0.00260295   -0.00236327    0.00059793
     atom    2 type  1   force =     0.00000328   -0.00000012    0.00190598
     atom    3 type  1   force =    -0.00002272   -0.00004936    0.00000525
     atom    4 type  2   force =     0.00000034   -0.00000179   -0.00334984
     atom    5 type  2   force =     0.00000784    0.00000072   -0.00010171
     atom    6 type  2   force =    -0.00014095   -0.00086514   -0.00117636
     atom    7 type  2   force =     0.00000186   -0.00000295    0.00155114
     atom    8 type  2   force =     0.00000338   -0.00002839    0.00005698
     atom    9 type  2   force =    -0.00016431    0.00071381   -0.00127804
     atom   10 type  1   force =     0.00061791   -0.00022181   -0.02429717
     atom   11 type  1   force =    -0.00000030   -0.00000020    0.00190314
     atom   12 type  1   force =     0.00000160   -0.00000170   -0.00002507
     atom   13 type  2   force =     0.00000000   -0.00000105   -0.00334945
     atom   14 type  2   force =    -0.00002347   -0.00001720   -0.00008456
     atom   15 type  2   force =     0.00044660    0.00037580    0.00293881
     atom   16 type  2   force =     0.00000005   -0.00000052    0.00157033
     atom   17 type  2   force =    -0.00004982   -0.00004193    0.00007125
     atom   18 type  2   force =    -0.02661715   -0.01365648    0.01001552
     atom   19 type  1   force =    -0.00126843    0.00215183   -0.00262999
     atom   20 type  1   force =     0.00000286   -0.00000105    0.00190376
     atom   21 type  1   force =    -0.00004474    0.00002704   -0.00001676
     atom   22 type  2   force =    -0.00000069   -0.00000062   -0.00335198
     atom   23 type  2   force =     0.00000521    0.00000766   -0.00009082
     atom   24 type  2   force =    -0.00063413    0.00028687   -0.00104600
     atom   25 type  2   force =    -0.00000196    0.00000160    0.00155325
     atom   26 type  2   force =    -0.00002285    0.00002161    0.00011052
     atom   27 type  2   force =     0.00100599   -0.00042272   -0.00066127
     atom   28 type  1   force =     0.00004178    0.00030106    0.00038570
     atom   29 type  1   force =    -0.00000234    0.00000316    0.00190995
     atom   30 type  1   force =     0.00004705    0.00000671   -0.00006978
     atom   31 type  2   force =    -0.00000145    0.00000067   -0.00334782
     atom   32 type  2   force =    -0.00000147    0.00000266   -0.00012159
     atom   33 type  2   force =    -0.00006007    0.00010714   -0.00034483
     atom   34 type  2   force =    -0.00000501   -0.00000078    0.00155949
     atom   35 type  2   force =    -0.00001310    0.00000203    0.00006706
     atom   36 type  2   force =     0.00035559   -0.00002911   -0.00005562
     atom   37 type  1   force =    -0.00085460    0.00056368    0.00037653
     atom   38 type  1   force =    -0.00000235    0.00000347    0.00190457
     atom   39 type  1   force =    -0.00000194   -0.00002796   -0.00000561
     atom   40 type  2   force =    -0.00000067    0.00000029   -0.00334553
     atom   41 type  2   force =    -0.00001121    0.00000140   -0.00010002
     atom   42 type  2   force =    -0.00041053    0.00047532   -0.00015795
     atom   43 type  2   force =    -0.00000042    0.00000401    0.00155826
     atom   44 type  2   force =    -0.00000933   -0.00000964    0.00005426
     atom   45 type  2   force =    -0.00013735    0.00055300    0.00039333
     atom   46 type  1   force =     0.00234767   -0.00015156    0.00110123
     atom   47 type  1   force =     0.00000463   -0.00000232    0.00190326
     atom   48 type  1   force =    -0.00002881    0.00000289   -0.00002100
     atom   49 type  2   force =    -0.00000018   -0.00000066   -0.00334583
     atom   50 type  2   force =    -0.00000166    0.00000544   -0.00007592
     atom   51 type  2   force =    -0.00024530    0.00039061    0.00274115
     atom   52 type  2   force =     0.00000001    0.00000529    0.00155418
     atom   53 type  2   force =    -0.00000455    0.00002174    0.00010901
     atom   54 type  2   force =     0.03008395   -0.01500341    0.00066953
     atom   55 type  1   force =     0.00181499    0.00371799   -0.00178606
     atom   56 type  1   force =     0.00000209    0.00000300    0.00190354
     atom   57 type  1   force =     0.00001330   -0.00002260   -0.00002828
     atom   58 type  2   force =    -0.00000000   -0.00000057   -0.00334861
     atom   59 type  2   force =     0.00000728   -0.00000386   -0.00007718
     atom   60 type  2   force =     0.00057951   -0.00016110    0.00306839
     atom   61 type  2   force =     0.00000507   -0.00000382    0.00155713
     atom   62 type  2   force =     0.00002481   -0.00000110    0.00010010
     atom   63 type  2   force =    -0.00115938    0.02410513    0.01161088
     atom   64 type  1   force =    -0.00017023   -0.00051590    0.00016348
     atom   65 type  1   force =     0.00000413    0.00000115    0.00190326
     atom   66 type  1   force =    -0.00004836    0.00000966   -0.00003864
     atom   67 type  2   force =     0.00000066    0.00000067   -0.00334842
     atom   68 type  2   force =    -0.00000199   -0.00000751   -0.00008855
     atom   69 type  2   force =     0.00004279    0.00007370   -0.00016912
     atom   70 type  2   force =     0.00000349   -0.00000079    0.00156192
     atom   71 type  2   force =    -0.00001205   -0.00000789    0.00011683
     atom   72 type  2   force =     0.00000427   -0.00008598    0.00064216
     atom   73 type  1   force =     0.00042147    0.00040864   -0.00010103
     atom   74 type  1   force =    -0.00000044   -0.00000268    0.00190553
     atom   75 type  1   force =     0.00000933   -0.00001368   -0.00003954
     atom   76 type  2   force =     0.00000043    0.00000024   -0.00334850
     atom   77 type  2   force =     0.00004874    0.00002747   -0.00005686
     atom   78 type  2   force =    -0.00006562   -0.00002746   -0.00009073
     atom   79 type  2   force =    -0.00000221   -0.00000063    0.00155084
     atom   80 type  2   force =    -0.00003664   -0.00001993    0.00012154
     atom   81 type  2   force =     0.00009107    0.00007258    0.00012698
     atom   82 type  1   force =    -0.00018034   -0.00014877    0.00022357
     atom   83 type  1   force =    -0.00000491    0.00000018    0.00190674
     atom   84 type  1   force =     0.00003766    0.00001511   -0.00000808
     atom   85 type  2   force =    -0.00000040   -0.00000021   -0.00334822
     atom   86 type  2   force =     0.00002416   -0.00001236   -0.00008852
     atom   87 type  2   force =    -0.00017623    0.00041025    0.00001173
     atom   88 type  2   force =     0.00000054    0.00000640    0.00155746
     atom   89 type  2   force =     0.00004229   -0.00002230    0.00005632
     atom   90 type  2   force =     0.00005725    0.00086216    0.00149525
     atom   91 type  1   force =     0.00045185   -0.00022675    0.00031378
     atom   92 type  1   force =    -0.00000068    0.00000109    0.00190537
     atom   93 type  1   force =     0.00002928    0.00003544    0.00000677
     atom   94 type  2   force =     0.00000010   -0.00000017   -0.00334852
     atom   95 type  2   force =    -0.00000566   -0.00000111   -0.00008839
     atom   96 type  2   force =     0.00075742    0.00062447   -0.00067084
     atom   97 type  2   force =     0.00000039   -0.00000014    0.00155612
     atom   98 type  2   force =    -0.00000083    0.00000413    0.00006462
     atom   99 type  2   force =     0.00053653   -0.00236177   -0.00287356
     atom  100 type  1   force =    -0.00001014    0.00015457    0.00036095
     atom  101 type  1   force =     0.00000169   -0.00000033    0.00190397
     atom  102 type  1   force =     0.00003159    0.00003171   -0.00001294
     atom  103 type  2   force =     0.00000081    0.00000017   -0.00334639
     atom  104 type  2   force =     0.00000117    0.00002763   -0.00009015
     atom  105 type  2   force =     0.00008153   -0.00031927   -0.00007057
     atom  106 type  2   force =     0.00000671   -0.00000255    0.00155640
     atom  107 type  2   force =     0.00001042    0.00005572    0.00004809
     atom  108 type  2   force =     0.00018871    0.00011142    0.00032892
     atom  109 type  1   force =    -0.00153709   -0.00246737   -0.00160283
     atom  110 type  1   force =    -0.00000247   -0.00000463    0.00190559
     atom  111 type  1   force =     0.00001168   -0.00004432    0.00011746
     atom  112 type  2   force =     0.00000062   -0.00000047   -0.00334797
     atom  113 type  2   force =    -0.00004632    0.00002789   -0.00006135
     atom  114 type  2   force =     0.00023763   -0.00010562   -0.00052660
     atom  115 type  2   force =    -0.00000020   -0.00000097    0.00157053
     atom  116 type  2   force =     0.00003890   -0.00003243    0.00012640
     atom  117 type  2   force =    -0.00002877   -0.00007736    0.00055917
     atom  118 type  1   force =    -0.00312602    0.00003614   -0.00296699
     atom  119 type  1   force =    -0.00000116   -0.00000196    0.00190466
     atom  120 type  1   force =    -0.00001185    0.00002693   -0.00000636
     atom  121 type  2   force =     0.00000017   -0.00000109   -0.00335042
     atom  122 type  2   force =     0.00000080   -0.00005480   -0.00004504
     atom  123 type  2   force =     0.00000121    0.00027632   -0.00003409
     atom  124 type  2   force =    -0.00000217   -0.00000118    0.00157191
     atom  125 type  2   force =     0.00000836    0.00004828    0.00018774
     atom  126 type  2   force =    -0.00009265   -0.00025308    0.00095782
     atom  127 type  1   force =    -0.00053077    0.00022246    0.00047477
     atom  128 type  1   force =    -0.00000597    0.00000168    0.00190674
     atom  129 type  1   force =    -0.00000535   -0.00004577   -0.00003885
     atom  130 type  2   force =    -0.00000042   -0.00000025   -0.00335119
     atom  131 type  2   force =    -0.00000632    0.00000646   -0.00010325
     atom  132 type  2   force =    -0.00052927   -0.00033132   -0.00011250
     atom  133 type  2   force =    -0.00000427   -0.00000390    0.00155738
     atom  134 type  2   force =    -0.00000345    0.00002304    0.00004931
     atom  135 type  2   force =    -0.00044605   -0.00043841    0.00004745
     atom  136 type  1   force =     0.00013284   -0.00022607    0.00054009
     atom  137 type  1   force =    -0.00000350   -0.00000251    0.00190562
     atom  138 type  1   force =    -0.00003165    0.00003885   -0.00004553
     atom  139 type  2   force =     0.00000036    0.00000108   -0.00334651
     atom  140 type  2   force =     0.00000442   -0.00000421   -0.00009568
     atom  141 type  2   force =    -0.00009450    0.00009266   -0.00009095
     atom  142 type  2   force =    -0.00000587   -0.00000232    0.00155713
     atom  143 type  2   force =     0.00001400   -0.00000226    0.00006384
     atom  144 type  2   force =    -0.00055831    0.00006539    0.00004203
     atom  145 type  3   force =    -0.01331223   -0.00153018   -0.00180769
     atom  146 type  3   force =     0.00968150    0.00484008    0.00227855
     The non-local contrib.  to forces
     atom    1 type  1   force =     0.00018346    0.00233544   -0.00145954
[...]
     atom   65 type  1   force =    -0.00000024   -0.00000016    0.00260491
     atom   66 type  1   force =    -0.00000451    0.00000961   -0.00001368
     atom   67 type  2   force =    -0.00000006    0.00000004    0.00441113
     atom   68 type  2   force =    -0.00000198    0.00000016   -0.00004892
     atom   69 type  2   force =    -0.00000591    0.00000563   -0.00014582
     atom   70 type  2   force =    -0.00000013    0.00000007    0.00023676
     atom   71 type  2   force =    -0.00001363    0.00002206    0.00009535
     atom   72 type  2   force =     0.00012086   -0.00025275   -0.00429907
     atom   73 type  1   force =    -0.00000111    0.00008151   -0.00246018
     atom   74 type  1   force =    -0.00000020   -0.00000028    0.00260403
     atom   75 type  1   force =     0.00000333   -0.00000912   -0.00001519
     atom   76 type  2   force =    -0.00000001   -0.00000001    0.00441106
     atom   77 type  2   force =    -0.00000087   -0.00000073   -0.00004575
     atom   78 type  2   force =     0.00000730   -0.00000655   -0.00014026
     atom   79 type  2   force =    -0.00000042   -0.00000067    0.00023644
     atom   80 type  2   force =     0.00000055   -0.00000149    0.00010647
     atom   81 type  2   force =    -0.00017750    0.00020052   -0.00431898
     atom   82 type  1   force =    -0.00034487    0.00000019   -0.00218656
     atom   83 type  1   force =    -0.00000025    0.00000025    0.00260430
     atom   84 type  1   force =     0.00001410   -0.00000859   -0.00005168
     atom   85 type  2   force =     0.00000000   -0.00000001    0.00441099
     atom   86 type  2   force =    -0.00000028   -0.00000016   -0.00004915
     atom   87 type  2   force =    -0.00006378    0.00001380    0.00017583
     atom   88 type  2   force =    -0.00000048    0.00000029    0.00023638
     atom   89 type  2   force =     0.00000467   -0.00000913    0.00010633
     atom   90 type  2   force =    -0.00042665    0.00013938   -0.00430811
     atom   91 type  1   force =    -0.00026246   -0.00033659   -0.00216383
     atom   92 type  1   force =     0.00000005    0.00000013    0.00260491
     atom   93 type  1   force =     0.00000970    0.00001654   -0.00006070
     atom   94 type  2   force =     0.00000001   -0.00000002    0.00441085
     atom   95 type  2   force =     0.00000126    0.00000196   -0.00005269
     atom   96 type  2   force =    -0.00004053   -0.00007367    0.00023553
     atom   97 type  2   force =     0.00000004    0.00000018    0.00023652
     atom   98 type  2   force =     0.00002708    0.00001660    0.00008348
     atom   99 type  2   force =    -0.00045446   -0.00046074   -0.00417063
     atom  100 type  1   force =    -0.00001534   -0.00009079   -0.00246497
     atom  101 type  1   force =     0.00000005   -0.00000029    0.00260469
     atom  102 type  1   force =    -0.00000004    0.00001636   -0.00002296
     atom  103 type  2   force =    -0.00000000    0.00000003    0.00441095
     atom  104 type  2   force =     0.00000138   -0.00000026   -0.00004897
     atom  105 type  2   force =     0.00000187    0.00000431   -0.00010282
     atom  106 type  2   force =     0.00000003   -0.00000035    0.00023651
     atom  107 type  2   force =     0.00001369    0.00002257    0.00009636
     atom  108 type  2   force =    -0.00000245   -0.00054606   -0.00420933
     atom  109 type  1   force =     0.00025466    0.00033124   -0.00216346
     atom  110 type  1   force =     0.00000026   -0.00000031    0.00260415
     atom  111 type  1   force =    -0.00000280   -0.00000872   -0.00001279
     atom  112 type  2   force =    -0.00000000   -0.00000002    0.00441098
     atom  113 type  2   force =     0.00000160   -0.00000167   -0.00004591
     atom  114 type  2   force =    -0.00000493   -0.00000842   -0.00014064
     atom  115 type  2   force =     0.00000021   -0.00000082    0.00023632
     atom  116 type  2   force =    -0.00000335   -0.00001945    0.00009703
     atom  117 type  2   force =     0.00017394    0.00020031   -0.00431589
     atom  118 type  1   force =     0.00034439   -0.00000017   -0.00218582
     atom  119 type  1   force =     0.00000000    0.00000034    0.00260401
     atom  120 type  1   force =     0.00000057   -0.00000388   -0.00002866
     atom  121 type  2   force =    -0.00000001    0.00000002    0.00441096
     atom  122 type  2   force =    -0.00000016    0.00000051   -0.00004886
     atom  123 type  2   force =     0.00000000   -0.00001714   -0.00011622
     atom  124 type  2   force =    -0.00000024    0.00000032    0.00023654
     atom  125 type  2   force =    -0.00000413   -0.00000941    0.00010562
     atom  126 type  2   force =    -0.00000139    0.00010497   -0.00423003
     atom  127 type  1   force =     0.00000008   -0.00008995   -0.00246184
     atom  128 type  1   force =    -0.00000004    0.00000043    0.00260498
     atom  129 type  1   force =     0.00000987    0.00000945   -0.00002804
     atom  130 type  2   force =     0.00000003   -0.00000002    0.00441101
     atom  131 type  2   force =     0.00000010    0.00000306   -0.00004809
     atom  132 type  2   force =    -0.00002377    0.00000024   -0.00010778
     atom  133 type  2   force =    -0.00000025    0.00000069    0.00023624
     atom  134 type  2   force =     0.00000036    0.00001726    0.00008903
     atom  135 type  2   force =    -0.00046786   -0.00029027   -0.00417806
     atom  136 type  1   force =    -0.00000623    0.00011112   -0.00246724
     atom  137 type  1   force =     0.00000027   -0.00000018    0.00260505
     atom  138 type  1   force =     0.00000464    0.00001022   -0.00001206
     atom  139 type  2   force =     0.00000005    0.00000004    0.00441108
     atom  140 type  2   force =     0.00000135   -0.00000023   -0.00004591
     atom  141 type  2   force =     0.00000412    0.00000844   -0.00014555
     atom  142 type  2   force =     0.00000008   -0.00000029    0.00023660
     atom  143 type  2   force =     0.00001316    0.00001676    0.00010203
     atom  144 type  2   force =    -0.00011817   -0.00025481   -0.00429868
     atom  145 type  3   force =    -0.00014370    0.00001085   -0.00626153
     atom  146 type  3   force =     0.00014441    0.00001058   -0.00625954

     Total force =     0.002763     Total SCF correction =     0.000372
     SCF correction compared to forces is large: reduce conv_thr to get better values
     Energy error            =      1.8E-05 Ry
     Gradient error          =      8.7E-04 Ry/Bohr

     bfgs converged in  18 scf cycles and  17 bfgs steps
     (criteria: energy <  1.0E-04 Ry, force <  1.0E-03 Ry/Bohr)

     End of BFGS Geometry Optimization

     Final energy             =  -24869.1297789429 Ry

     File ./outdir/pwscf.bfgs deleted, as requested
Begin final coordinates

ATOMIC_POSITIONS (angstrom)
Mo            1.5751807302        2.6886802179        6.0689578203
Mo            1.5769197498        0.9104407117       -6.0872367793    0   0   0
Mo           -0.0000057474        1.8210543642       -0.0006182626
S             0.0000044503        0.0000077495       -7.6506323570    0   0   0
S             1.5766739489        0.9112358648       -1.5669272927
S            -0.0102070258        1.8139868748        4.4967298735
S             0.0000053241        0.0000068460       -4.5222282367    0   0   0
S             1.5772503585        0.9099050141        1.5653807963
S            -0.0074966478        1.7974759998        7.6383727763
Mo           -0.0140020140        5.4608329061        6.1395451399
Mo            0.0000011799        3.6417399547       -6.0872367793    0   0   0
Mo           -1.5765491675        4.5523971042       -0.0001925515
S            -1.5769141197        2.7313069925       -7.6506323570    0   0   0
S             0.0000107656        3.6419287702       -1.5657624941
S            -1.5603689258        4.5647865519        4.5493223634
S            -1.5769132459        2.7313060890       -4.5222282367    0   0   0
S             0.0006691316        3.6421600220        1.5676274339
S            -1.6604907533        4.5076186614        7.7072304903
Mo           -1.5862515822        8.2053187021        6.0817541660
Mo           -1.5769173901        6.3730391977       -6.0872367793    0   0   0
Mo           -3.1537774655        7.2832712355       -0.0021627358
S            -3.1538326896        5.4626062355       -7.6506323570    0   0   0
S            -1.5765608147        6.3723914298       -1.5667366280
S            -3.1540379050        7.2798926033        4.5113005526
S            -3.1538318159        5.4626053320       -4.5222282367    0   0   0
S            -1.5770415135        6.3736972608        1.5662108983
S            -3.1584924252        7.2873467791        7.6467951596
Mo            3.1565681948       -0.0049874042        6.0634428493
Mo           -3.1538359601        9.1043384407       -6.0872367793    0   0   0
Mo           -4.7307176423       10.0148510937       -0.0025746074
S            -4.7307512596        8.1939054785       -7.6506323570    0   0   0
S            -3.1536911951        9.1041688007       -1.5678363212
S            -4.7304179540       10.0074183809        4.4993632271
S            -4.7307503859        8.1939045750       -4.5222282367    0   0   0
S            -3.1539432595        9.1041985039        1.5642390379
S            -4.7307432875       10.0155233141        7.6339212498
Mo            4.7352973334        2.7220130623        6.0838698329
Mo            4.7307503218        0.9104407117       -6.0872367793    0   0   0
Mo            3.1537801078        1.8211618584       -0.0012652497
S             3.1538350223        0.0000077495       -7.6506323570    0   0   0
S             4.7307670672        0.9107116240       -1.5671713780
S             3.1627684185        1.8165161553        4.4983625825
S             3.1538358961        0.0000068460       -4.5222282367    0   0   0
S             4.7308782156        0.9097575106        1.5644735201
S             3.1576650152        1.7979162748        7.6397085696
Mo            3.1642945504        5.4604877397        6.1396594134
Mo            3.1538317519        3.6417399547       -6.0872367793    0   0   0
Mo            1.5768485367        4.5524808789       -0.0004326942
S             1.5769164523        2.7313069925       -7.6506323570    0   0   0
S             3.1534630099        3.6421769604       -1.5662117400
S             1.5749909038        4.5676230294        4.5820355297
S             1.5769173261        2.7313060890       -4.5222282367    0   0   0
S             3.1531500286        3.6421080904        1.5672817721
S             1.5746654033        4.4187734354        7.6978848049
Mo            1.5760320570        8.2189658373        6.0906951727
Mo            1.5769131819        6.3730391977       -6.0872367793    0   0   0
Mo            0.0001633393        7.2829927332       -0.0012526804
S            -0.0000021176        5.4626062355       -7.6506323570    0   0   0
S             1.5769735679        6.3727256876       -1.5665594308
S             0.0012506893        7.2645930096        4.5542196380
S            -0.0000012439        5.4626053320       -4.5222282367    0   0   0
S             1.5768880184        6.3732190793        1.5669962568
S            -0.0057543311        7.3873797580        7.6943158218
Mo            6.3075297959        0.0032080577        6.0672533713
Mo           -0.0000053881        9.1043384407       -6.0872367793    0   0   0
Mo           -1.5766906948       10.0143709500       -0.0022538825
S            -1.5769206876        8.1939054785       -7.6506323570    0   0   0
S             0.0007064087        9.1038985986       -1.5667247164
S            -1.5739419974       10.0092157385        4.4997045381
S            -1.5769198139        8.1939045750       -4.5222282367    0   0   0
S            -0.0005579810        9.1030595778        1.5661152728
S            -1.5813088867       10.0283556274        7.6413540256
Mo            7.8833359506        2.7313803746        6.0713720182
Mo            7.8845808939        0.9104407117       -6.0872367793    0   0   0
Mo            6.3076003268        1.8210631229       -0.0013852590
S             6.3076655943        0.0000077495       -7.6506323570    0   0   0
S             7.8849770371        0.9102460306       -1.5660187313
S             6.3038187452        1.8259999252        4.5045874186
S             6.3076664681        0.0000068460       -4.5222282367    0   0   0
S             7.8840324179        0.9104724825        1.5661036801
S             6.3152934419        1.8118583713        7.6442404454
Mo            6.3163118650        5.4617658906        6.0860971947
Mo            6.3076623239        3.6417399547       -6.0872367793    0   0   0
Mo            4.7302370878        4.5523760125       -0.0006526948
S             4.7307470244        2.7313069925       -7.6506323570    0   0   0
S             6.3075701853        3.6422579149       -1.5661102226
S             4.7095800840        4.5647749145        4.5514033429
S             4.7307478981        2.7313060890       -4.5222282367    0   0   0
S             6.3066656180        3.6421394286        1.5667406621
S             4.8142478254        4.5077552998        7.7078352109
Mo            4.7386113887        8.2047665116        6.0830045996
Mo            4.7307437539        6.3730391977       -6.0872367793    0   0   0
Mo            3.1536584106        7.2830623841       -0.0010518810
S             3.1538284544        5.4626062355       -7.6506323570    0   0   0
S             4.7302945071        6.3726586989       -1.5667960611
S             3.1514814302        7.2633874926        4.5549054003
S             3.1538293281        5.4626053320       -4.5222282367    0   0   0
S             4.7308232210        6.3733198510        1.5662061463
S             3.1573803185        7.3865154507        7.6949191850
Mo            9.4605918461        0.0026979153        6.0649835307
Mo            3.1538251839        9.1043384407       -6.0872367793    0   0   0
Mo            1.5768364514       10.0143512698       -0.0004258550
S             1.5769098844        8.1939054785       -7.6506323570    0   0   0
S             3.1533424958        9.1041294389       -1.5663061188
S             1.5755246386       10.0132766404        4.5006513451
S             1.5769107581        8.1939045750       -4.5222282367    0   0   0
S             3.1539342485        9.1030928842        1.5665604381
S             1.5775526265       10.0457047168        7.6448487076
Mo           -1.5833217902        2.7219734113        6.0809153676
Mo           11.0384114659        0.9104407117       -6.0872367793    0   0   0
Mo            9.4614347644        1.8211084780       -0.0003461804
S             9.4614961663        0.0000077495       -7.6506323570    0   0   0
S            11.0381257676        0.9108122460       -1.5661483083
S             9.4620811105        1.8258124947        4.5022498379
S             9.4614970401        0.0000068460       -4.5222282367    0   0   0
S            11.0382849491        0.9097123428        1.5655240578
S             9.4535155821        1.8114414887        7.6411926114
Mo           -3.1649154294        5.4610749356        6.0855530667
Mo            9.4614928959        3.6417399547       -6.0872367793    0   0   0
Mo            7.8845361372        4.5523287158       -0.0003516753
S             7.8845775964        2.7313069925       -7.6506323570    0   0   0
S             9.4617543145        3.6419125376       -1.5655061021
S             7.8820594846        4.5572486033        4.5091140440
S             7.8845784701        2.7313060890       -4.5222282367    0   0   0
S             9.4621138114        3.6425816861        1.5673619616
S             7.8833564625        4.5439873186        7.6523160488
Mo           -4.7312234925        8.1929943041        6.0748969149
Mo            7.8845743259        6.3730391977       -6.0872367793    0   0   0
Mo            6.3075263624        7.2832155727       -0.0020612249
S             6.3076590264        5.4626062355       -7.6506323570    0   0   0
S             7.8845266882        6.3722731225       -1.5670927317
S             6.3054591941        7.2801545516        4.5123484000
S             6.3076599001        5.4626053320       -4.5222282367    0   0   0
S             7.8845519600        6.3738966142        1.5652286916
S             6.3115989787        7.2877477126        7.6480008950
Mo           -0.0035389633       -0.0060851879        6.0630450374
Mo            6.3076557559        9.1043384407       -6.0872367793    0   0   0
Mo            4.7304381658       10.0144322425       -0.0014615568
S             4.7307404564        8.1939054785       -7.6506323570    0   0   0
S             6.3071922264        9.1043068565       -1.5674705185
S             4.7274121372       10.0066805440        4.4994047227
S             4.7307413301        8.1939045750       -4.5222282367    0   0   0
S             6.3080996959        9.1040443967        1.5644808079
S             4.7331784253       10.0287261288        7.6406773099
Pd            3.0887476942        5.4858349627        9.0490060561
Pd            0.0703418671        5.4919346376        9.0487589820
End final coordinates



     Writing all to output data dir ./outdir/pwscf.save/
 
     init_run     :    104.11s CPU    106.44s WALL (       1 calls)
     electrons    :  82212.84s CPU  83217.91s WALL (      18 calls)
     update_pot   :     91.37s CPU     91.83s WALL (      17 calls)
     forces       :   1217.36s CPU   1252.99s WALL (      18 calls)
     force_dftd3  :      8.37s CPU      8.37s WALL (      18 calls)

     Called by init_run:
     wfcinit      :     85.34s CPU     86.56s WALL (       1 calls)
     potinit      :      1.82s CPU      1.90s WALL (       1 calls)
     hinit0       :     11.63s CPU     11.65s WALL (       1 calls)

     Called by electrons:
     c_bands      :  73361.40s CPU  73837.99s WALL (     226 calls)
     sum_band     :   8131.84s CPU   8439.96s WALL (     226 calls)
     v_of_rho     :     90.90s CPU     92.29s WALL (     226 calls)
     newd         :    467.00s CPU    696.69s WALL (     226 calls)
     PAW_pot      :    134.88s CPU    134.93s WALL (     243 calls)
     mix_rho      :     21.25s CPU     21.29s WALL (     226 calls)
     energy_dftd3 :      3.66s CPU      3.66s WALL (      18 calls)

     Called by c_bands:
     init_us_2    :    356.83s CPU    357.16s WALL (    1952 calls)
     init_us_2:cp :    356.80s CPU    357.15s WALL (    1952 calls)
     cegterg      :  72160.50s CPU  72632.27s WALL (     925 calls)

     Called by *egterg:
     cdiaghg      :   4371.65s CPU   4385.81s WALL (   10868 calls)
     h_psi        :  38772.37s CPU  38923.27s WALL (   11013 calls)
     s_psi        :   7845.91s CPU   7846.78s WALL (   11013 calls)
     g_psi        :     85.84s CPU     86.01s WALL (   10084 calls)

     Called by h_psi:
     h_psi:calbec :   7803.02s CPU   7805.05s WALL (   11013 calls)
     vloc_psi     :  22962.60s CPU  23032.87s WALL (   11013 calls)
     add_vuspsi   :   7905.28s CPU   7906.69s WALL (   11013 calls)

     General routines
     calbec       :  11043.58s CPU  11046.23s WALL (   12273 calls)
     fft          :    102.23s CPU    104.38s WALL (    3135 calls)
     ffts         :      3.97s CPU      4.04s WALL (     452 calls)
     fftw         :  18434.67s CPU  18485.77s WALL ( 5060288 calls)
     interpolate  :      9.06s CPU      9.17s WALL (     226 calls)
 
     Parallel routines
 
     PWSCF        :     23h20m CPU     23h38m WALL

 
   This run was terminated on:  23: 8: 9   5Oct2023            

=------------------------------------------------------------------------------=
   JOB DONE.
=------------------------------------------------------------------------------=
Application 11268004 resources: utime ~3025789s, stime ~37886s, Rss ~2363492, inblocks ~0, outblocks ~37385800
