
     Program PWSCF v.7.3 starts on 24Apr2024 at  9:52:26 

     This program is part of the open-source Quantum ESPRESSO suite
     for quantum simulation of materials; please cite
         "P. Giannozzi et al., J. Phys.:Condens. Matter 21 395502 (2009);
         "P. Giannozzi et al., J. Phys.:Condens. Matter 29 465901 (2017);
         "P. Giannozzi et al., J. Chem. Phys. 152 154105 (2020);
          URL http://www.quantum-espresso.org", 
     in publications or presentations arising from this work. More details at
     http://www.quantum-espresso.org/quote

     Parallel version (MPI & OpenMP), running on      36 processor cores
     Number of MPI processes:                36
     Threads/MPI process:                     1

     MPI processes distributed on     1 nodes
     549502 MiB available memory on the printing compute node when the environment starts
 
     Waiting for input...
     Reading input from standard input
Warning: card &CELL ignored
Warning: card / ignored

     Current dimensions of program PWSCF are:
     Max number of different atomic species (ntypx) = 10
     Max number of k-points (npk) =  40000
     Max angular momentum in pseudopotentials (lmaxx) =  4
     file Mo.pbe-spn-kjpaw_psl.1.0.0.UPF: wavefunction(s)  4S 4D renormalized
     file S.pbe-n-kjpaw_psl.1.0.0.UPF: wavefunction(s)  3S 3P renormalized
     file Pt.pbe-spfn-kjpaw_psl.1.0.0.UPF: wavefunction(s)  5P 4F renormalized
     file Pd.pbe-spn-kjpaw_psl.1.0.0.UPF: wavefunction(s)  4S 5S 4D renormalized
 
     R & G space division:  proc/nbgrp/npool/nimage =      36
     Subspace diagonalization in iterative solution of the eigenvalue problem:
     one sub-group per band group will be used
     scalapack distributed-memory algorithm (size of sub-group:  6*  6 procs)

 
     Parallelization info
     --------------------
     sticks:   dense  smooth     PW     G-vecs:    dense   smooth      PW
     Min         585     334     89               198743    85850   11735
     Max         586     335     90               198750    85861   11748
     Sum       21073   12049   3205              7154885  3090769  422587
 
     Using Slab Decomposition
 


     bravais-lattice index     =            0
     lattice parameter (alat)  =      23.8199  a.u.
     unit-cell volume          =   33861.0370 (a.u.)^3
     number of atoms/cell      =          195
     number of atomic types    =            4
     number of electrons       =      1746.00
     number of Kohn-Sham states=         1048
     kinetic-energy cutoff     =      77.0000  Ry
     charge density cutoff     =     539.0000  Ry
     scf convergence threshold =      1.0E-06
     mixing beta               =       0.2000
     number of iterations used =            8  plain     mixing
     energy convergence thresh.=      1.0E-04
     force convergence thresh. =      1.0E-03
     Exchange-correlation= SLA  PW   PBX  PBC
                           (   1   4   3   4   0   0   0)
     nstep                     =         1000


     Effective Screening Medium Method
     =================================
     Boundary Conditions: Vacuum-Slab-Vacuum
     total charge in unit cell        =   0.0000
     grid points for fit at edges     =        4 
 

     celldm(1)=  23.819920  celldm(2)=   0.000000  celldm(3)=   0.000000
     celldm(4)=   0.000000  celldm(5)=   0.000000  celldm(6)=   0.000000

     crystal axes: (cart. coord. in units of alat)
               a(1) = (   1.000000   0.000000   0.000000 )  
               a(2) = (  -0.499999   0.866026   0.000000 )  
               a(3) = (   0.000000   0.000000   2.893000 )  

     reciprocal axes: (cart. coord. in units 2 pi/alat)
               b(1) = (  1.000000  0.577349  0.000000 )  
               b(2) = (  0.000000  1.154700  0.000000 )  
               b(3) = (  0.000000  0.000000  0.345662 )  


     PseudoPot. # 1 for Mo read from file:
     ./pseudo/Mo.pbe-spn-kjpaw_psl.1.0.0.UPF
     MD5 check sum: 317bf72632116215fd98f72de1686f13
     Pseudo is Projector augmented-wave + core cor, Zval = 14.0
     Generated using 'atomic' code by A. Dal Corso  v.7.2
     Shape of augmentation charge: PSQ
     Using radial grid of 1229 points,  6 beta functions with: 
                l(1) =   0
                l(2) =   0
                l(3) =   1
                l(4) =   1
                l(5) =   2
                l(6) =   2
     Q(r) pseudized with 0 coefficients 


     PseudoPot. # 2 for S  read from file:
     ./pseudo/S.pbe-n-kjpaw_psl.1.0.0.UPF
     MD5 check sum: 8b7b5302570d38d5e87fed6a1065abda
     Pseudo is Projector augmented-wave + core cor, Zval =  6.0
     Generated using 'atomic' code by A. Dal Corso  v.7.2
     Shape of augmentation charge: PSQ
     Using radial grid of 1151 points,  6 beta functions with: 
                l(1) =   0
                l(2) =   0
                l(3) =   1
                l(4) =   1
                l(5) =   2
                l(6) =   2
     Q(r) pseudized with 0 coefficients 


     PseudoPot. # 3 for Pt read from file:
     ./pseudo/Pt.pbe-spfn-kjpaw_psl.1.0.0.UPF
     MD5 check sum: 620096ebf4e6ebacc94de60fd67efcb5
     Pseudo is Projector augmented-wave + core cor, Zval = 32.0
     Generated using 'atomic' code by A. Dal Corso  v.7.2
     Shape of augmentation charge: PSQ
     Using radial grid of 1277 points,  8 beta functions with: 
                l(1) =   0
                l(2) =   0
                l(3) =   1
                l(4) =   1
                l(5) =   2
                l(6) =   2
                l(7) =   3
                l(8) =   3
     Q(r) pseudized with 0 coefficients 


     PseudoPot. # 4 for Pd read from file:
     ./pseudo/Pd.pbe-spn-kjpaw_psl.1.0.0.UPF
     MD5 check sum: a60571a671f2502b8a6a4569d20a6edb
     Pseudo is Projector augmented-wave + core cor, Zval = 18.0
     Generated using 'atomic' code by A. Dal Corso  v.7.2
     Shape of augmentation charge: PSQ
     Using radial grid of 1235 points,  6 beta functions with: 
                l(1) =   0
                l(2) =   0
                l(3) =   1
                l(4) =   1
                l(5) =   2
                l(6) =   2
     Q(r) pseudized with 0 coefficients 


     atomic species   valence    mass     pseudopotential
     Mo               14.00    95.95000     Mo( 1.00)
     S                 6.00    32.06000     S ( 1.00)
     Pt               32.00   195.08400     Pt( 1.00)
     Pd               18.00   106.42000     Pd( 1.00)

     No symmetry found



   Cartesian axes

     site n.     atom                  positions (alat units)
         1        Mo     tau(   1) = (   0.0000010   0.1443372  -0.7272732  )
         2        Mo     tau(   2) = (   0.1249995   0.0721706  -0.2424038  )
         3        S      tau(   3) = (   0.0000015   0.1443386  -0.3667807  )
         4        S      tau(   4) = (   0.1250010   0.0721682  -0.6030489  )
         5        S      tau(   5) = (   0.1250010   0.0721683  -0.8514963  )
         6        S      tau(   6) = (   0.0000015   0.1443389  -0.1180260  )
         7        Mo     tau(   7) = (   0.0000165   0.1443639   0.2424458  )
         8        Mo     tau(   8) = (   0.1250235   0.0717246   0.7263406  )
         9        S      tau(   9) = (   0.0005369   0.1448386   0.6015218  )
        10        S      tau(  10) = (   0.1249954   0.0721618   0.3668135  )
        11        S      tau(  11) = (   0.1250195   0.0721779   0.1180823  )
        12        S      tau(  12) = (  -0.0003270   0.1431025   0.8512079  )
        13        Mo     tau(  13) = (  -0.1249989   0.3608437  -0.7272732  )
        14        Mo     tau(  14) = (   0.0000030   0.2886752  -0.2424042  )
        15        S      tau(  15) = (  -0.1249977   0.3608450  -0.3667802  )
        16        S      tau(  16) = (   0.0000012   0.2886747  -0.6030489  )
        17        S      tau(  17) = (   0.0000012   0.2886748  -0.8514963  )
        18        S      tau(  18) = (  -0.1249977   0.3608454  -0.1180274  )
        19        Mo     tau(  19) = (  -0.1249838   0.3608611   0.2424564  )
        20        Mo     tau(  20) = (  -0.0010112   0.2875499   0.7275042  )
        21        S      tau(  21) = (  -0.1249589   0.3614723   0.6028911  )
        22        S      tau(  22) = (   0.0000229   0.2887164   0.3668462  )
        23        S      tau(  23) = (   0.0000319   0.2887039   0.1180849  )
        24        S      tau(  24) = (  -0.1254179   0.3601432   0.8519775  )
        25        Mo     tau(  25) = (  -0.2499987   0.5773502  -0.7272732  )
        26        Mo     tau(  26) = (  -0.1249977   0.5051839  -0.2424055  )
        27        S      tau(  27) = (  -0.2499981   0.5773518  -0.3667809  )
        28        S      tau(  28) = (  -0.1249986   0.5051812  -0.6030489  )
        29        S      tau(  29) = (  -0.1249986   0.5051813  -0.8514963  )
        30        S      tau(  30) = (  -0.2499979   0.5773512  -0.1180266  )
        31        Mo     tau(  31) = (  -0.2499892   0.5773423   0.2424725  )
        32        Mo     tau(  32) = (  -0.1256606   0.5052028   0.7286154  )
        33        S      tau(  33) = (  -0.2498226   0.5768374   0.6031862  )
        34        S      tau(  34) = (  -0.1249521   0.5051863   0.3668519  )
        35        S      tau(  35) = (  -0.1249975   0.5051799   0.1180722  )
        36        S      tau(  36) = (  -0.2499767   0.5778459   0.8528940  )
        37        Mo     tau(  37) = (  -0.3749985   0.7938567  -0.7272732  )
        38        Mo     tau(  38) = (  -0.2500001   0.7216874  -0.2424031  )
        39        S      tau(  39) = (  -0.3749980   0.7938584  -0.3667800  )
        40        S      tau(  40) = (  -0.2499984   0.7216877  -0.6030489  )
        41        S      tau(  41) = (  -0.2499984   0.7216878  -0.8514963  )
        42        S      tau(  42) = (  -0.3749982   0.7938585  -0.1180264  )
        43        Mo     tau(  43) = (  -0.3749918   0.7938447   0.2424454  )
        44        Mo     tau(  44) = (  -0.2499337   0.7214685   0.7273252  )
        45        S      tau(  45) = (  -0.3749119   0.7930997   0.6024017  )
        46        S      tau(  46) = (  -0.2499835   0.7216794   0.3668152  )
        47        S      tau(  47) = (  -0.2499982   0.7216718   0.1180690  )
        48        S      tau(  48) = (  -0.3745581   0.7945239   0.8516564  )
        49        Mo     tau(  49) = (   0.2500010   0.1443372  -0.7272732  )
        50        Mo     tau(  50) = (   0.3750034   0.0721723  -0.2424032  )
        51        S      tau(  51) = (   0.2500017   0.1443391  -0.3667788  )
        52        S      tau(  52) = (   0.3750010   0.0721682  -0.6030489  )
        53        S      tau(  53) = (   0.3750010   0.0721683  -0.8514963  )
        54        S      tau(  54) = (   0.2500016   0.1443391  -0.1180271  )
        55        Mo     tau(  55) = (   0.2500049   0.1443558   0.2424800  )
        56        Mo     tau(  56) = (   0.3750695   0.0717200   0.7264262  )
        57        S      tau(  57) = (   0.2500704   0.1440362   0.6019475  )
        58        S      tau(  58) = (   0.3750099   0.0721483   0.3668106  )
        59        S      tau(  59) = (   0.3749948   0.0721851   0.1180824  )
        60        S      tau(  60) = (   0.2500131   0.1413211   0.8516135  )
        61        Mo     tau(  61) = (   0.1250012   0.3608437  -0.7272732  )
        62        Mo     tau(  62) = (   0.2500029   0.2886782  -0.2424031  )
        63        S      tau(  63) = (   0.1250024   0.3608455  -0.3667794  )
        64        S      tau(  64) = (   0.2500012   0.2886747  -0.6030489  )
        65        S      tau(  65) = (   0.2500012   0.2886748  -0.8514963  )
        66        S      tau(  66) = (   0.1250021   0.3608455  -0.1180270  )
        67        Mo     tau(  67) = (   0.1250220   0.3608739   0.2424909  )
        68        Mo     tau(  68) = (   0.2500516   0.2862417   0.7284634  )
        69        S      tau(  69) = (   0.1251493   0.3619302   0.6061672  )
        70        S      tau(  70) = (   0.2500021   0.2887137   0.3669053  )
        71        S      tau(  71) = (   0.2500084   0.2886924   0.1181099  )
        72        S      tau(  72) = (   0.1241634   0.3514816   0.8558063  )
        73        Mo     tau(  73) = (   0.0000014   0.5773502  -0.7272732  )
        74        Mo     tau(  74) = (   0.1250045   0.5051840  -0.2424036  )
        75        S      tau(  75) = (   0.0000030   0.5773520  -0.3667799  )
        76        S      tau(  76) = (   0.1250014   0.5051812  -0.6030489  )
        77        S      tau(  77) = (   0.1250014   0.5051813  -0.8514963  )
        78        S      tau(  78) = (   0.0000026   0.5773517  -0.1180274  )
        79        Mo     tau(  79) = (   0.0000298   0.5773239   0.2424318  )
        80        Mo     tau(  80) = (   0.1235562   0.5053489   0.7306566  )
        81        S      tau(  81) = (   0.0009343   0.5763644   0.6059345  )
        82        S      tau(  82) = (   0.1250078   0.5051967   0.3669171  )
        83        S      tau(  83) = (   0.1250403   0.5051743   0.1180834  )
        84        S      tau(  84) = (  -0.0065880   0.5806588   0.8588888  )
        85        Mo     tau(  85) = (  -0.1249984   0.7938567  -0.7272732  )
        86        Mo     tau(  86) = (   0.0000069   0.7216896  -0.2424039  )
        87        S      tau(  87) = (  -0.1249975   0.7938582  -0.3667782  )
        88        S      tau(  88) = (   0.0000016   0.7216877  -0.6030489  )
        89        S      tau(  89) = (   0.0000016   0.7216878  -0.8514963  )
        90        S      tau(  90) = (  -0.1249973   0.7938582  -0.1180279  )
        91        Mo     tau(  91) = (  -0.1249912   0.7938418   0.2424335  )
        92        Mo     tau(  92) = (  -0.0002856   0.7221962   0.7280430  )
        93        S      tau(  93) = (  -0.1248457   0.7930650   0.6025902  )
        94        S      tau(  94) = (  -0.0000060   0.7216208   0.3667980  )
        95        S      tau(  95) = (   0.0000209   0.7216773   0.1180639  )
        96        S      tau(  96) = (  -0.1254320   0.7945446   0.8518225  )
        97        Mo     tau(  97) = (   0.5000010   0.1443372  -0.7272732  )
        98        Mo     tau(  98) = (   0.6250001   0.0721662  -0.2424040  )
        99        S      tau(  99) = (   0.5000017   0.1443386  -0.3667801  )
       100        S      tau( 100) = (   0.6250010   0.0721682  -0.6030489  )
       101        S      tau( 101) = (   0.6250010   0.0721683  -0.8514963  )
       102        S      tau( 102) = (   0.5000020   0.1443388  -0.1180261  )
       103        Mo     tau( 103) = (   0.4999955   0.1443611   0.2424567  )
       104        Mo     tau( 104) = (   0.6246463   0.0728119   0.7256413  )
       105        S      tau( 105) = (   0.4995556   0.1446831   0.6015045  )
       106        S      tau( 106) = (   0.6250311   0.0722157   0.3667721  )
       107        S      tau( 107) = (   0.6249808   0.0721636   0.1180639  )
       108        S      tau( 108) = (   0.5004658   0.1432308   0.8511310  )
       109        Mo     tau( 109) = (   0.3750012   0.3608437  -0.7272732  )
       110        Mo     tau( 110) = (   0.4999991   0.2886761  -0.2424038  )
       111        S      tau( 111) = (   0.3750012   0.3608452  -0.3667804  )
       112        S      tau( 112) = (   0.5000012   0.2886747  -0.6030489  )
       113        S      tau( 113) = (   0.5000012   0.2886748  -0.8514963  )
       114        S      tau( 114) = (   0.3750014   0.3608455  -0.1180261  )
       115        Mo     tau( 115) = (   0.3749911   0.3608734   0.2424983  )
       116        Mo     tau( 116) = (   0.5011245   0.2875246   0.7272611  )
       117        S      tau( 117) = (   0.3748808   0.3618865   0.6059605  )
       118        S      tau( 118) = (   0.4999884   0.2887132   0.3668588  )
       119        S      tau( 119) = (   0.4999854   0.2887028   0.1180988  )
       120        S      tau( 120) = (   0.3760770   0.3514537   0.8556312  )
       121        Mo     tau( 121) = (   0.2500014   0.5773502  -0.7272732  )
       122        Mo     tau( 122) = (   0.3749983   0.5051825  -0.2424043  )
       123        S      tau( 123) = (   0.2500017   0.5773519  -0.3667810  )
       124        S      tau( 124) = (   0.3750014   0.5051812  -0.6030489  )
       125        S      tau( 125) = (   0.3750014   0.5051813  -0.8514963  )
       126        S      tau( 126) = (   0.2500018   0.5773519  -0.1180256  )
       127        Mo     tau( 127) = (   0.2500077   0.5773382   0.2424971  )
       128        Mo     tau( 128) = (   0.3766993   0.5053238   0.7304272  )
       129        S      tau( 129) = (   0.2500029   0.5764488   0.6074621  )
       130        S      tau( 130) = (   0.3750022   0.5051973   0.3669226  )
       131        S      tau( 131) = (   0.3749796   0.5051747   0.1180897  )
       132        S      tau( 132) = (   0.2502086   0.5906803   0.8517598  )
       133        Mo     tau( 133) = (   0.1250016   0.7938567  -0.7272732  )
       134        Mo     tau( 134) = (   0.2499995   0.7216883  -0.2424036  )
       135        S      tau( 135) = (   0.1250024   0.7938578  -0.3667813  )
       136        S      tau( 136) = (   0.2500016   0.7216877  -0.6030489  )
       137        S      tau( 137) = (   0.2500016   0.7216878  -0.8514963  )
       138        S      tau( 138) = (   0.1250024   0.7938579  -0.1180253  )
       139        Mo     tau( 139) = (   0.1250030   0.7938506   0.2424689  )
       140        Mo     tau( 140) = (   0.2500869   0.7270239   0.7252501  )
       141        S      tau( 141) = (   0.1234110   0.7947569   0.6009716  )
       142        S      tau( 142) = (   0.2500041   0.7216753   0.3668766  )
       143        S      tau( 143) = (   0.2500092   0.7216778   0.1181077  )
       144        S      tau( 144) = (   0.1247568   0.7963642   0.8506634  )
       145        Mo     tau( 145) = (   0.7500010   0.1443372  -0.7272732  )
       146        Mo     tau( 146) = (   0.8750038   0.0721696  -0.2424038  )
       147        S      tau( 147) = (   0.7500016   0.1443382  -0.3667789  )
       148        S      tau( 148) = (   0.8750010   0.0721682  -0.6030489  )
       149        S      tau( 149) = (   0.8750010   0.0721683  -0.8514963  )
       150        S      tau( 150) = (   0.7500016   0.1443384  -0.1180279  )
       151        Mo     tau( 151) = (   0.7500056   0.1443690   0.2423906  )
       152        Mo     tau( 152) = (   0.8754762   0.0728639   0.7256129  )
       153        S      tau( 153) = (   0.7500308   0.1452012   0.6014640  )
       154        S      tau( 154) = (   0.8749862   0.0722263   0.3667681  )
       155        S      tau( 155) = (   0.8750254   0.0721591   0.1180621  )
       156        S      tau( 156) = (   0.7500441   0.1442691   0.8503988  )
       157        Mo     tau( 157) = (   0.6250012   0.3608437  -0.7272732  )
       158        Mo     tau( 158) = (   0.7500028   0.2886769  -0.2424041  )
       159        S      tau( 159) = (   0.6250015   0.3608451  -0.3667792  )
       160        S      tau( 160) = (   0.7500012   0.2886747  -0.6030489  )
       161        S      tau( 161) = (   0.7500012   0.2886748  -0.8514963  )
       162        S      tau( 162) = (   0.6250016   0.3608454  -0.1180280  )
       163        Mo     tau( 163) = (   0.6249990   0.3608612   0.2424707  )
       164        Mo     tau( 164) = (   0.7500746   0.2887820   0.7269162  )
       165        S      tau( 165) = (   0.6251905   0.3614018   0.6027475  )
       166        S      tau( 166) = (   0.7500151   0.2886908   0.3668035  )
       167        S      tau( 167) = (   0.7499992   0.2887185   0.1180565  )
       168        S      tau( 168) = (   0.6254399   0.3601689   0.8517611  )
       169        Mo     tau( 169) = (   0.5000014   0.5773502  -0.7272732  )
       170        Mo     tau( 170) = (   0.6250029   0.5051841  -0.2424047  )
       171        S      tau( 171) = (   0.5000014   0.5773518  -0.3667794  )
       172        S      tau( 172) = (   0.6250014   0.5051812  -0.6030489  )
       173        S      tau( 173) = (   0.6250014   0.5051813  -0.8514963  )
       174        S      tau( 174) = (   0.5000016   0.5773516  -0.1180277  )
       175        Mo     tau( 175) = (   0.4999861   0.5773259   0.2424414  )
       176        Mo     tau( 176) = (   0.6258514   0.5052144   0.7284022  )
       177        S      tau( 177) = (   0.4992455   0.5763364   0.6056359  )
       178        S      tau( 178) = (   0.6249791   0.5051944   0.3668559  )
       179        S      tau( 179) = (   0.6250105   0.5051778   0.1180820  )
       180        S      tau( 180) = (   0.5069392   0.5807955   0.8586037  )
       181        Mo     tau( 181) = (   0.3750016   0.7938567  -0.7272732  )
       182        Mo     tau( 182) = (   0.5000025   0.7216901  -0.2424039  )
       183        S      tau( 183) = (   0.3750019   0.7938578  -0.3667793  )
       184        S      tau( 184) = (   0.5000016   0.7216877  -0.6030489  )
       185        S      tau( 185) = (   0.5000016   0.7216878  -0.8514963  )
       186        S      tau( 186) = (   0.3750020   0.7938579  -0.1180272  )
       187        Mo     tau( 187) = (   0.3750095   0.7938535   0.2424732  )
       188        Mo     tau( 188) = (   0.5004392   0.7222160   0.7277389  )
       189        S      tau( 189) = (   0.3766340   0.7948794   0.6008559  )
       190        S      tau( 190) = (   0.5000179   0.7216263   0.3668038  )
       191        S      tau( 191) = (   0.4999965   0.7216810   0.1180753  )
       192        S      tau( 192) = (   0.3755295   0.7963504   0.8505132  )
       193        Pt     tau( 193) = (   0.1371069   0.5032381   0.9573497  )
       194        Pt     tau( 194) = (   0.3635722   0.5033563   0.9571359  )
       195        Pd     tau( 195) = (   0.1370889   0.5032147   1.1477229  )

     --------------------------------------------
     DFT-D3 Dispersion Correction (3-body terms):
     --------------------------------------------
       Reference C6 values for interpolation: 

         atom   Coordination number   C6
         S          0.000           268.01
         S          0.995           261.99
         S          1.990           251.62
         Mo         0.000          1691.79
         Mo         1.942          1004.01
         Mo        11.056           674.22
         Pd         0.000          1217.01
         Pd         1.863           573.90
         Pd         5.710           531.75
         Pt         0.000           782.29
         Pt         1.919           692.72
         Pt         6.667           673.75

       Values used:

         atom   Coordination number  R0_AB[au]  C6      C8
         Mo        10.208            3.547    674.22  77634.20
         Mo        10.221            3.547    674.22  77634.20
         S          3.858            3.128    251.62  12327.25
         S          3.859            3.128    251.62  12327.25
         S          3.758            3.128    251.62  12327.25
         S          3.859            3.128    251.62  12327.25
         Mo        10.220            3.547    674.22  77634.20
         Mo        10.265            3.547    674.22  77634.20
         S          3.854            3.128    251.62  12327.25
         S          3.861            3.128    251.62  12327.25
         S          3.859            3.128    251.62  12327.25
         S          3.824            3.128    251.62  12327.25
         Mo        10.208            3.547    674.22  77634.20
         Mo        10.221            3.547    674.22  77634.20
         S          3.858            3.128    251.62  12327.25
         S          3.859            3.128    251.62  12327.25
         S          3.758            3.128    251.62  12327.25
         S          3.859            3.128    251.62  12327.25
         Mo        10.221            3.547    674.22  77634.20
         Mo        10.226            3.547    674.22  77634.20
         S          3.865            3.128    251.62  12327.25
         S          3.857            3.128    251.62  12327.25
         S          3.859            3.128    251.62  12327.25
         S          3.769            3.128    251.62  12327.25
         Mo        10.208            3.547    674.22  77634.20
         Mo        10.221            3.547    674.22  77634.20
         S          3.858            3.128    251.62  12327.25
         S          3.859            3.128    251.62  12327.25
         S          3.758            3.128    251.62  12327.25
         S          3.859            3.128    251.62  12327.25
         Mo        10.221            3.547    674.22  77634.20
         Mo        10.240            3.547    674.22  77634.20
         S          3.856            3.128    251.62  12327.25
         S          3.856            3.128    251.62  12327.25
         S          3.859            3.128    251.62  12327.25
         S          3.825            3.128    251.62  12327.25
         Mo        10.208            3.547    674.22  77634.20
         Mo        10.221            3.547    674.22  77634.20
         S          3.858            3.128    251.62  12327.25
         S          3.859            3.128    251.62  12327.25
         S          3.758            3.128    251.62  12327.25
         S          3.859            3.128    251.62  12327.25
         Mo        10.220            3.547    674.22  77634.20
         Mo        10.248            3.547    674.22  77634.20
         S          3.856            3.128    251.62  12327.25
         S          3.859            3.128    251.62  12327.25
         S          3.859            3.128    251.62  12327.25
         S          3.817            3.128    251.62  12327.25
         Mo        10.208            3.547    674.22  77634.20
         Mo        10.221            3.547    674.22  77634.20
         S          3.858            3.128    251.62  12327.25
         S          3.859            3.128    251.62  12327.25
         S          3.758            3.128    251.62  12327.25
         S          3.859            3.128    251.62  12327.25
         Mo        10.220            3.547    674.22  77634.20
         Mo        10.264            3.547    674.22  77634.20
         S          3.844            3.128    251.62  12327.25
         S          3.861            3.128    251.62  12327.25
         S          3.859            3.128    251.62  12327.25
         S          3.845            3.128    251.62  12327.25
         Mo        10.208            3.547    674.22  77634.20
         Mo        10.221            3.547    674.22  77634.20
         S          3.858            3.128    251.62  12327.25
         S          3.859            3.128    251.62  12327.25
         S          3.758            3.128    251.62  12327.25
         S          3.859            3.128    251.62  12327.25
         Mo        10.222            3.547    674.22  77634.20
         Mo        10.162            3.547    674.22  77634.20
         S          3.858            3.128    251.62  12327.25
         S          3.852            3.128    251.62  12327.25
         S          3.859            3.128    251.62  12327.25
         S          4.681            3.128    251.62  12327.25
         Mo        10.208            3.547    674.21  77634.20
         Mo        10.221            3.547    674.22  77634.20
         S          3.858            3.128    251.62  12327.25
         S          3.859            3.128    251.62  12327.25
         S          3.758            3.128    251.62  12327.25
         S          3.859            3.128    251.62  12327.25
         Mo        10.221            3.547    674.22  77634.20
         Mo        10.840            3.547    674.22  77634.20
         S          3.845            3.128    251.62  12327.25
         S          3.850            3.128    251.62  12327.25
         S          3.859            3.128    251.62  12327.25
         S          4.634            3.128    251.62  12327.25
         Mo        10.208            3.547    674.22  77634.20
         Mo        10.221            3.547    674.21  77634.20
         S          3.858            3.128    251.62  12327.25
         S          3.859            3.128    251.62  12327.25
         S          3.758            3.128    251.62  12327.25
         S          3.859            3.128    251.62  12327.25
         Mo        10.220            3.547    674.22  77634.20
         Mo        10.227            3.547    674.22  77634.20
         S          3.858            3.128    251.62  12327.25
         S          3.859            3.128    251.62  12327.25
         S          3.859            3.128    251.62  12327.25
         S          3.813            3.128    251.62  12327.25
         Mo        10.208            3.547    674.22  77634.20
         Mo        10.221            3.547    674.22  77634.20
         S          3.858            3.128    251.62  12327.25
         S          3.859            3.128    251.62  12327.25
         S          3.758            3.128    251.62  12327.25
         S          3.859            3.128    251.62  12327.25
         Mo        10.220            3.547    674.22  77634.20
         Mo        10.291            3.547    674.22  77634.20
         S          3.855            3.128    251.62  12327.25
         S          3.864            3.128    251.62  12327.25
         S          3.859            3.128    251.62  12327.25
         S          3.824            3.128    251.62  12327.25
         Mo        10.208            3.547    674.22  77634.20
         Mo        10.221            3.547    674.22  77634.20
         S          3.858            3.128    251.62  12327.25
         S          3.859            3.128    251.62  12327.25
         S          3.758            3.128    251.62  12327.25
         S          3.859            3.128    251.62  12327.25
         Mo        10.222            3.547    674.22  77634.20
         Mo        10.225            3.547    674.22  77634.20
         S          3.856            3.128    251.62  12327.25
         S          3.857            3.128    251.62  12327.25
         S          3.859            3.128    251.62  12327.25
         S          4.678            3.128    251.62  12327.25
         Mo        10.208            3.547    674.22  77634.20
         Mo        10.221            3.547    674.22  77634.20
         S          3.858            3.128    251.62  12327.25
         S          3.859            3.128    251.62  12327.25
         S          3.758            3.128    251.62  12327.25
         S          3.859            3.128    251.62  12327.25
         Mo        10.222            3.547    674.22  77634.20
         Mo        10.839            3.547    674.22  77634.20
         S          3.873            3.128    251.62  12327.25
         S          3.850            3.128    251.62  12327.25
         S          3.859            3.128    251.62  12327.25
         S          5.682            3.128    251.62  12327.25
         Mo        10.208            3.547    674.21  77634.20
         Mo        10.221            3.547    674.22  77634.20
         S          3.858            3.128    251.62  12327.25
         S          3.859            3.128    251.62  12327.25
         S          3.758            3.128    251.62  12327.25
         S          3.859            3.128    251.62  12327.25
         Mo        10.220            3.547    674.22  77634.20
         Mo        10.170            3.547    674.22  77634.20
         S          3.838            3.128    251.62  12327.25
         S          3.855            3.128    251.62  12327.25
         S          3.859            3.128    251.62  12327.25
         S          3.839            3.128    251.62  12327.25
         Mo        10.208            3.547    674.21  77634.20
         Mo        10.221            3.547    674.22  77634.20
         S          3.858            3.128    251.62  12327.25
         S          3.859            3.128    251.62  12327.25
         S          3.758            3.128    251.62  12327.25
         S          3.859            3.128    251.62  12327.25
         Mo        10.220            3.547    674.22  77634.20
         Mo        10.292            3.547    674.22  77634.20
         S          3.857            3.128    251.62  12327.25
         S          3.864            3.128    251.62  12327.25
         S          3.859            3.128    251.62  12327.25
         S          3.796            3.128    251.62  12327.25
         Mo        10.208            3.547    674.22  77634.20
         Mo        10.220            3.547    674.22  77634.20
         S          3.858            3.128    251.62  12327.25
         S          3.859            3.128    251.62  12327.25
         S          3.758            3.128    251.62  12327.25
         S          3.859            3.128    251.62  12327.25
         Mo        10.221            3.547    674.22  77634.20
         Mo        10.259            3.547    674.22  77634.20
         S          3.864            3.128    251.62  12327.25
         S          3.861            3.128    251.62  12327.25
         S          3.859            3.128    251.62  12327.25
         S          3.771            3.128    251.62  12327.25
         Mo        10.208            3.547    674.22  77634.20
         Mo        10.221            3.547    674.22  77634.20
         S          3.858            3.128    251.62  12327.25
         S          3.859            3.128    251.62  12327.25
         S          3.758            3.128    251.62  12327.25
         S          3.859            3.128    251.62  12327.25
         Mo        10.221            3.547    674.22  77634.20
         Mo        10.240            3.547    674.22  77634.20
         S          3.842            3.128    251.62  12327.25
         S          3.856            3.128    251.62  12327.25
         S          3.859            3.128    251.62  12327.25
         S          4.635            3.128    251.62  12327.25
         Mo        10.208            3.547    674.22  77634.20
         Mo        10.221            3.547    674.22  77634.20
         S          3.858            3.128    251.62  12327.25
         S          3.859            3.128    251.62  12327.25
         S          3.758            3.128    251.62  12327.25
         S          3.859            3.128    251.62  12327.25
         Mo        10.220            3.547    674.22  77634.20
         Mo        10.227            3.547    674.22  77634.20
         S          3.837            3.128    251.62  12327.25
         S          3.859            3.128    251.62  12327.25
         S          3.859            3.128    251.62  12327.25
         S          3.842            3.128    251.62  12327.25
         Pt         5.544            3.168    673.75  70061.90
         Pt         4.605            3.168    673.75  70061.91
         Pd         1.031            3.168    670.75  61456.47

         Molecular C6 ( Ry / a.u.^6 ) =  14191672.60


     number of k points=     4  Gaussian smearing, width (Ry)=  0.0100
                       cart. coord. in units 2pi/alat
        k(    1) = (   0.0000000   0.0000000   0.0000000), wk =   0.5000000
        k(    2) = (   0.0000000  -0.5773499   0.0000000), wk =   0.5000000
        k(    3) = (  -0.5000000  -0.2886744   0.0000000), wk =   0.5000000
        k(    4) = (  -0.5000000  -0.8660242   0.0000000), wk =   0.5000000

     Dense  grid:  7154885 G-vectors     FFT dimensions: ( 180, 180, 512)

     Smooth grid:  3090769 G-vectors     FFT dimensions: ( 135, 135, 400)

     Estimated max dynamical RAM per process >       4.33 GB

     Estimated total dynamical RAM >     155.86 GB

     Atomic positions and unit cell read from directory:
     ./outdir/pwscf.save/
     Atomic positions from file used, from input discarded
 

     The initial density is read from file :
     ./outdir/pwscf.save/charge-density


     negative rho (up, down):  8.802E-04 0.000E+00
     Cannot read wfcs: file not found
     Starting wfcs are 1196 randomized atomic wfcs
     Checking if some PAW data can be deallocated... 

     total cpu time spent up to now is      179.6 secs

     Self-consistent Calculation

     iteration #  1     ecut=    77.00 Ry     beta= 0.20
     Davidson diagonalization with overlap
     c_bands:  7 eigenvalues not converged
     c_bands: 12 eigenvalues not converged
     c_bands: 13 eigenvalues not converged
     c_bands: 14 eigenvalues not converged
     ethr =  1.00E-05,  avg # of iterations =120.0

     negative rho (up, down):  8.193E-04 0.000E+00

     total cpu time spent up to now is    11022.3 secs

     total energy              =  -35654.95074654 Ry
     estimated scf accuracy    <       0.91367700 Ry

     iteration #  2     ecut=    77.00 Ry     beta= 0.20
     Davidson diagonalization with overlap
     ethr =  5.23E-05,  avg # of iterations = 13.0

     negative rho (up, down):  7.774E-04 0.000E+00

     total cpu time spent up to now is    11486.5 secs

     total energy              =  -35654.90953672 Ry
     estimated scf accuracy    <       0.30405593 Ry

     iteration #  3     ecut=    77.00 Ry     beta= 0.20
     Davidson diagonalization with overlap
     ethr =  1.74E-05,  avg # of iterations = 14.0

     negative rho (up, down):  7.491E-04 0.000E+00

     total cpu time spent up to now is    11977.9 secs

     total energy              =  -35654.93521441 Ry
     estimated scf accuracy    <       0.12607385 Ry

     iteration #  4     ecut=    77.00 Ry     beta= 0.20
     Davidson diagonalization with overlap
     c_bands:  1 eigenvalues not converged
     c_bands:  1 eigenvalues not converged
     c_bands:  1 eigenvalues not converged
     c_bands:  2 eigenvalues not converged
     ethr =  7.22E-06,  avg # of iterations = 20.0

     negative rho (up, down):  7.392E-04 0.000E+00

     total cpu time spent up to now is    12477.2 secs

     total energy              =  -35654.94559563 Ry
     estimated scf accuracy    <       0.02953653 Ry

     iteration #  5     ecut=    77.00 Ry     beta= 0.20
     Davidson diagonalization with overlap
     c_bands:  4 eigenvalues not converged
     c_bands:  2 eigenvalues not converged
     c_bands:  1 eigenvalues not converged
     c_bands:  5 eigenvalues not converged
     ethr =  1.69E-06,  avg # of iterations = 50.0

     negative rho (up, down):  7.407E-04 0.000E+00

     total cpu time spent up to now is    13713.8 secs

     total energy              =  -35654.95191688 Ry
     estimated scf accuracy    <       0.02249764 Ry

     iteration #  6     ecut=    77.00 Ry     beta= 0.20
     Davidson diagonalization with overlap
     c_bands:  2 eigenvalues not converged
     c_bands:  2 eigenvalues not converged
     c_bands:  1 eigenvalues not converged
     ethr =  1.29E-06,  avg # of iterations = 16.8

     negative rho (up, down):  7.552E-04 0.000E+00

     total cpu time spent up to now is    14194.7 secs

     total energy              =  -35654.95053439 Ry
     estimated scf accuracy    <       0.00699409 Ry

     iteration #  7     ecut=    77.00 Ry     beta= 0.20
     Davidson diagonalization with overlap
     c_bands:  2 eigenvalues not converged
     ethr =  4.01E-07,  avg # of iterations = 17.5

     negative rho (up, down):  7.708E-04 0.000E+00

     total cpu time spent up to now is    14917.2 secs

     total energy              =  -35654.95448253 Ry
     estimated scf accuracy    <       0.00296294 Ry

     iteration #  8     ecut=    77.00 Ry     beta= 0.20
     Davidson diagonalization with overlap
     c_bands:  2 eigenvalues not converged
     ethr =  1.70E-07,  avg # of iterations = 13.8

     negative rho (up, down):  8.037E-04 0.000E+00

     total cpu time spent up to now is    15429.6 secs

     total energy              =  -35654.95472477 Ry
     estimated scf accuracy    <       0.00082990 Ry

     iteration #  9     ecut=    77.00 Ry     beta= 0.20
     Davidson diagonalization with overlap
     c_bands:  2 eigenvalues not converged
     ethr =  4.75E-08,  avg # of iterations = 16.5

     negative rho (up, down):  8.229E-04 0.000E+00

     total cpu time spent up to now is    16534.2 secs

     total energy              =  -35654.95564032 Ry
     estimated scf accuracy    <       0.00055685 Ry

     iteration # 10     ecut=    77.00 Ry     beta= 0.20
     Davidson diagonalization with overlap
     ethr =  3.19E-08,  avg # of iterations = 13.5

     negative rho (up, down):  8.383E-04 0.000E+00

     total cpu time spent up to now is    17004.5 secs

     total energy              =  -35654.95568992 Ry
     estimated scf accuracy    <       0.00011064 Ry

     iteration # 11     ecut=    77.00 Ry     beta= 0.20
     Davidson diagonalization with overlap
     ethr =  6.34E-09,  avg # of iterations = 17.0

     negative rho (up, down):  8.571E-04 0.000E+00

     total cpu time spent up to now is    18261.2 secs

     total energy              =  -35654.95583946 Ry
     estimated scf accuracy    <       0.00008555 Ry

     iteration # 12     ecut=    77.00 Ry     beta= 0.20
     Davidson diagonalization with overlap
     ethr =  4.90E-09,  avg # of iterations =  9.5

     negative rho (up, down):  8.669E-04 0.000E+00

     total cpu time spent up to now is    18715.7 secs

     total energy              =  -35654.95583932 Ry
     estimated scf accuracy    <       0.00001942 Ry

     iteration # 13     ecut=    77.00 Ry     beta= 0.20
     Davidson diagonalization with overlap
     ethr =  1.11E-09,  avg # of iterations = 17.2

     negative rho (up, down):  8.697E-04 0.000E+00

     total cpu time spent up to now is    19827.8 secs

     total energy              =  -35654.95586750 Ry
     estimated scf accuracy    <       0.00000793 Ry

     iteration # 14     ecut=    77.00 Ry     beta= 0.20
     Davidson diagonalization with overlap
     c_bands:  1 eigenvalues not converged
     ethr =  4.54E-10,  avg # of iterations = 14.8

     negative rho (up, down):  8.722E-04 0.000E+00

     total cpu time spent up to now is    20399.9 secs

     total energy              =  -35654.95586741 Ry
     estimated scf accuracy    <       0.00000347 Ry

     iteration # 15     ecut=    77.00 Ry     beta= 0.20
     Davidson diagonalization with overlap
     c_bands:  4 eigenvalues not converged
     ethr =  1.99E-10,  avg # of iterations = 18.0

     negative rho (up, down):  8.744E-04 0.000E+00

     total cpu time spent up to now is    21274.8 secs

     total energy              =  -35654.95586884 Ry
     estimated scf accuracy    <       0.00000226 Ry

     iteration # 16     ecut=    77.00 Ry     beta= 0.20
     Davidson diagonalization with overlap
     c_bands:  1 eigenvalues not converged
     ethr =  1.29E-10,  avg # of iterations = 12.0

     negative rho (up, down):  8.803E-04 0.000E+00

     total cpu time spent up to now is    21729.7 secs

     End of self-consistent calculation

          k = 0.0000 0.0000 0.0000 (386245 PWs)   bands (ev):

  -103.2133-103.1960 -87.4983 -71.6250 -71.6192 -71.6098 -71.6040 -71.5539
   -71.5374 -71.4990 -71.4827 -71.4821 -71.4758 -71.4671 -71.4662 -71.4586
   -71.4502 -66.6857 -66.6410 -66.6409 -66.6398 -66.6393 -66.6298 -66.6266
   -66.6199 -66.6198 -66.6197 -66.6197 -66.6197 -66.6197 -66.6196 -66.6196
   -66.6196 -66.6195 -66.6193 -66.6192 -66.6185 -66.6185 -66.6185 -66.6185
   -66.6185 -66.6185 -66.6163 -66.6097 -66.6083 -66.6003 -66.5991 -66.5986
   -66.5984 -66.5984 -66.5983 -66.5983 -66.5983 -66.5983 -66.5983 -66.5983
   -66.5983 -66.5983 -66.5982 -66.5982 -66.5982 -66.5982 -66.5980 -66.5977
   -66.5974 -66.5971 -66.5971 -66.5971 -66.5971 -66.5971 -66.5971 -66.5971
   -66.5970 -66.5970 -66.5888 -66.5809 -66.5675 -66.5661 -66.5637 -66.5544
   -66.5523 -57.5200 -57.5051 -57.4984 -57.4518 -57.1953 -57.1716 -53.4907
   -53.4030 -52.9367 -40.9722 -40.9710 -40.9683 -40.9683 -40.9683 -40.9683
   -40.9681 -40.9680 -40.9678 -40.9678 -40.9678 -40.9579 -40.9044 -40.8964
   -40.8931 -40.8930 -40.8930 -40.8930 -40.8930 -40.8930 -40.8930 -40.8930
   -40.8929 -40.8928 -40.8926 -40.8925 -40.8925 -40.8925 -40.8924 -40.8924
   -40.8924 -40.8924 -40.8800 -40.8781 -40.8662 -40.8556 -40.8448 -40.8041
   -40.8005 -40.8005 -40.8000 -40.7901 -40.7870 -40.7800 -40.7698 -40.7693
   -40.7668 -40.7667 -40.7667 -40.7667 -40.7667 -40.7667 -40.7666 -40.7666
   -40.7666 -40.7665 -40.7663 -40.7662 -40.7660 -40.7660 -40.7660 -40.7660
   -40.7660 -40.7660 -40.7624 -40.7590 -40.7590 -40.7589 -40.7588 -40.7588
   -40.7588 -40.7588 -40.7588 -40.7588 -40.7588 -40.7585 -40.7585 -40.7583
   -40.7583 -40.7583 -40.7582 -40.7582 -40.7582 -40.7564 -40.7529 -40.7502
   -40.7494 -40.7443 -40.7423 -40.7375 -40.7320 -40.7317 -40.7317 -40.7317
   -40.7317 -40.7317 -40.7316 -40.7316 -40.7316 -40.7315 -40.7314 -40.7312
   -40.7312 -40.7309 -40.7309 -40.7309 -40.7309 -40.7309 -40.7309 -40.7290
   -40.7259 -40.7255 -40.7194 -40.7172 -40.7170 -40.7170 -40.7169 -40.7169
   -40.7169 -40.7169 -40.7169 -40.7169 -40.7168 -40.7168 -40.7168 -40.7168
   -40.7168 -40.7168 -40.7166 -40.7165 -40.7163 -40.7163 -40.7162 -40.7162
   -40.7162 -40.7162 -40.7162 -40.7162 -40.7162 -40.7162 -40.7128 -40.7123
   -40.7055 -40.7032 -40.6957 -40.6948 -40.6916 -40.6838 -40.6533 -40.6533
   -40.6533 -40.6533 -40.6531 -40.6530 -40.6525 -40.6525 -40.6525 -40.6517
   -40.6344 -40.6329 -40.6063 -40.6062 -40.6062 -40.6062 -40.6062 -40.6062
   -40.6062 -40.6062 -40.6061 -40.6059 -40.6057 -40.6057 -40.6053 -40.6053
   -40.6053 -40.6053 -40.6053 -40.6053 -40.6025 -40.5975 -40.5849 -40.5816
   -40.5786 -40.5673 -40.5586 -40.5586 -40.5584 -40.5584 -40.5577 -40.5577
   -40.5371 -40.5185 -20.3660 -20.1237 -20.0280 -19.9172 -19.8119 -19.3615
   -19.3262 -19.2765 -19.2726 -19.2641 -19.2547 -19.2487 -19.2459 -19.2275
   -19.2216 -19.2026 -19.1702 -19.1583 -19.1554 -19.1425 -19.1374 -19.1176
   -19.0651 -19.0573 -19.0562 -19.0525 -19.0502 -19.0420 -18.9331 -18.8558
   -18.8036 -18.6526 -18.6031 -18.5809 -18.5577 -18.5332 -18.4989 -18.4878
   -18.4692 -18.4524 -18.4390 -18.4383 -18.4195 -18.3822 -18.3610 -18.3518
   -18.3077 -18.3038 -18.2965 -18.2699 -18.2637 -18.2628 -18.2082 -18.2025
   -18.2004 -18.1928 -18.1921 -18.1909 -18.1551 -18.1427 -18.1396 -18.1384
   -18.1362 -18.1359 -18.1341 -18.1206 -18.1116 -18.1083 -18.1026 -18.1008
   -18.0974 -18.0931 -18.0930 -18.0916 -18.0828 -18.0705 -18.0680 -18.0675
   -18.0640 -18.0600 -18.0518 -18.0477 -18.0438 -18.0354 -18.0275 -18.0220
   -18.0216 -18.0178 -18.0151 -18.0064 -18.0041 -18.0017 -17.9760 -17.9699
   -17.9660 -17.9556 -17.9399 -17.9388 -17.9358 -17.9332 -17.9326 -17.9153
   -17.9115 -17.9090 -17.9021 -17.8935 -17.8883 -17.8858 -17.8854 -17.8839
   -17.8763 -17.8738 -17.8733 -17.8581 -17.8576 -17.8572 -17.8491 -17.8454
   -17.8425 -17.8406 -17.8386 -17.8373 -17.8145 -17.8139 -17.8127 -17.8120
   -17.8118 -17.8110 -12.4264 -12.4165 -12.0026 -11.9611 -11.8861 -11.8199
   -11.8105 -11.8092 -11.7089 -11.7064 -11.6887 -11.6569 -11.5886 -11.5728
   -11.5722 -11.5331 -11.4203 -11.4177 -11.3355 -11.3072 -11.2700 -11.2611
   -11.2536 -11.2518 -11.2452 -11.2254 -11.2197 -11.1548 -11.1488 -11.1483
   -11.1472 -11.1428 -11.1422 -11.1206 -11.1022 -11.0955 -11.0910 -11.0787
   -11.0779 -11.0741 -11.0736 -11.0676 -11.0663 -11.0587 -11.0467 -11.0317
   -11.0054 -10.9896 -10.9882 -10.9841 -10.9695 -10.9616 -10.9562 -10.9350
   -10.9231 -10.9147 -10.9104 -10.9081 -10.9037 -10.8865 -10.8696 -10.8669
   -10.8625 -10.8615 -10.8526 -10.8510 -10.8485 -10.8469 -10.8455 -10.8426
   -10.8352 -10.8261 -10.8241 -10.8234 -10.8217 -10.8201 -10.8009 -10.7991
   -10.7966 -10.7959 -10.7928 -10.7878 -10.7869 -10.7760 -10.7732 -10.7550
   -10.7548 -10.7543 -10.7539 -10.7510 -10.7500 -10.7084 -10.6859 -10.6766
   -10.6544 -10.6238 -10.6144 -10.6058 -10.5993 -10.5965 -10.5838 -10.5215
   -10.4602 -10.3038 -10.1959 -10.1693 -10.1597 -10.0563  -9.9969  -9.9951
    -9.9568  -9.8728  -9.8668  -9.8391  -9.8253  -9.8237  -9.8112  -9.8002
    -9.7934  -9.7916  -9.7912  -9.7867  -9.7827  -9.7789  -9.7771  -9.7693
    -9.7680  -9.7660  -9.7584  -9.7568  -9.7521  -9.7372  -9.7250  -9.7069
    -9.6611  -9.6569  -9.6554  -9.6473  -9.6464  -9.6421  -9.6358  -9.6353
    -9.6344  -9.6339  -9.6333  -9.6319  -9.6305  -9.6206  -9.6001  -9.5822
    -9.5601  -9.5592  -9.5583  -9.5581  -9.5577  -9.5575  -9.5571  -9.5557
    -9.5406  -9.5384  -9.5256  -9.5188  -9.5123  -9.4974  -9.4755  -9.4723
    -9.4620  -9.3928  -9.3877  -9.3799  -9.3785  -9.3769  -9.3744  -9.3552
    -9.3500  -9.3477  -9.3314  -9.3302  -9.3216  -9.2924  -9.2907  -9.2784
    -9.2627  -9.2441  -9.2433  -9.2327  -9.2250  -9.2078  -9.2003  -9.1986
    -9.1973  -9.1954  -9.1952  -9.1677  -9.1573  -9.1430  -9.1349  -9.1279
    -9.1135  -9.1088  -9.0674  -9.0004  -8.9989  -8.9972  -8.9968  -8.9893
    -8.9741  -8.9738  -8.9654  -8.9648  -8.9572  -8.9447  -8.9342  -8.9340
    -8.9324  -8.9234  -8.9209  -8.9159  -8.9079  -8.8933  -8.8793  -8.8383
    -8.8382  -8.8378  -8.8376  -8.8374  -8.8370  -8.7859  -8.7742  -8.7701
    -8.7642  -8.7536  -8.7510  -8.7026  -8.6883  -8.6855  -8.6835  -8.6768
    -8.6723  -8.6289  -8.6265  -8.6104  -8.6100  -8.6082  -8.6068  -8.5952
    -8.5935  -8.4870  -8.4864  -8.4638  -8.3831  -8.3830  -8.3789  -8.3784
    -8.3748  -8.3737  -8.3705  -8.3701  -8.3420  -8.3091  -8.2977  -8.2951
    -8.2921  -8.2920  -8.2912  -8.2897  -8.2816  -8.2805  -8.2656  -8.2653
    -8.2639  -8.2625  -8.2599  -8.2572  -8.2375  -8.2374  -8.2368  -8.2362
    -8.2360  -8.2347  -8.1573  -8.0611  -8.0365  -7.9884  -7.9441  -7.8780
    -7.8766  -7.8763  -7.8131  -7.8071  -7.7997  -7.7481  -7.7349  -7.7267
    -7.7019  -7.6844  -7.6619  -7.6617  -7.6553  -7.6501  -7.6458  -7.6281
    -7.6261  -7.6164  -7.6099  -7.5959  -7.5911  -7.5737  -7.5622  -7.5521
    -7.5514  -7.5512  -7.5507  -7.5497  -7.5469  -7.5423  -7.5268  -7.5257
    -7.5248  -7.5239  -7.5231  -7.5214  -7.5202  -7.5071  -7.4994  -7.4991
    -7.4990  -7.4986  -7.4976  -7.4975  -7.4824  -7.4681  -7.4537  -7.4458
    -7.4437  -7.4393  -7.4274  -7.4242  -7.4197  -7.4136  -7.4060  -7.4011
    -7.3835  -7.3707  -7.3584  -7.3434  -7.3373  -7.3214  -7.3185  -7.3152
    -7.3081  -7.3074  -7.3042  -7.3006  -7.2925  -7.2776  -7.2674  -7.2664
    -7.2497  -7.2481  -7.2316  -7.2301  -7.2229  -7.1940  -7.1695  -7.1548
    -7.1220  -7.1145  -7.1042  -7.0648  -7.0147  -6.9888  -6.9189  -6.8927
    -6.8848  -6.8790  -6.8580  -6.8302  -6.8128  -6.8051  -6.8020  -6.7904
    -6.7730  -6.7643  -6.7609  -6.7199  -6.7020  -6.6990  -6.6802  -6.6784
    -6.6453  -6.6419  -6.6339  -6.6335  -6.6274  -6.6219  -6.5998  -6.5871
    -6.5828  -6.5718  -6.5655  -6.5538  -6.5377  -6.5330  -6.5313  -6.5312
    -6.5279  -6.5249  -6.5241  -6.5231  -6.5213  -6.5143  -6.5141  -6.5139
    -6.5136  -6.5135  -6.5131  -6.4989  -6.4850  -6.4823  -6.4586  -6.4537
    -6.4430  -6.4270  -6.4259  -6.4224  -6.4089  -6.3874  -6.3711  -6.3540
    -6.3533  -6.3520  -6.3477  -6.3446  -6.3408  -6.3278  -6.3242  -6.3224
    -6.3081  -6.3039  -6.3016  -6.2949  -6.2908  -6.2897  -6.2708  -6.2685
    -6.2680  -6.2663  -6.2648  -6.2645  -6.2450  -6.1752  -6.0149  -5.9103
    -5.7657  -5.7159  -5.5220  -5.4778  -5.3180  -5.2059  -5.1547  -5.1185
    -5.1091  -4.6260  -3.9193  -3.8725  -3.8687  -3.8669  -3.8619  -3.8496
    -3.8490  -3.8448  -3.8438  -3.8395  -3.8393  -3.8274  -3.7881  -3.7240
    -3.7211  -3.7201  -3.7097  -3.7021  -3.6983  -3.6971  -3.6922  -3.6906
    -3.6879  -3.6242  -3.5852  -3.5460  -3.5311  -3.5274  -3.5231  -3.5138
    -3.5106  -3.5005  -3.4912  -3.4895  -3.4859  -3.4844  -3.4797  -3.4763
    -3.4737  -3.4683  -3.4628  -3.4609  -3.4589  -3.4581  -3.4577  -3.4495
    -3.4436  -3.4427  -3.4378  -3.4356  -3.4280  -3.4262  -3.4252  -3.4198
    -3.4190  -3.4163  -3.4072  -3.4034  -3.3987  -3.3899  -3.3805  -3.3753
    -3.3643  -3.3620  -3.3617  -3.3609  -3.3586  -3.3518  -3.3362  -3.3272
    -3.3267  -3.3253  -3.3060  -3.3048  -3.2999  -3.2946  -3.2894  -3.2704
    -3.2410  -3.2250  -3.2197  -3.2093  -3.2027  -3.1824  -3.1152  -3.0846
    -3.0810  -3.0806  -3.0788  -3.0745  -3.0656  -3.0635  -3.0596  -3.0512
    -3.0252  -3.0085  -3.0043  -2.9969  -2.9932  -2.9920  -2.9912  -2.9888
    -2.9874  -2.9830  -2.9789  -2.9784  -2.9732  -2.9721  -2.9689  -2.9669
    -2.9624  -2.9538  -2.9521  -2.9509  -2.9491  -2.9485  -2.9477  -2.9474
    -2.9464  -2.9404  -2.9402  -2.9359  -2.9122  -2.9111  -2.8970  -2.8930
    -2.8899  -2.8865  -2.8691  -2.8601  -2.8315  -2.8228  -2.8227  -2.8227
    -2.8226  -2.8225  -2.8225  -2.8216  -2.8215  -2.8177  -2.8031  -2.7985
    -2.7875  -2.7723  -2.7715  -2.7551  -2.7491  -2.7352  -2.7316  -2.7161
    -2.6876  -2.6832  -2.6573  -2.6548  -2.6511  -2.6404  -2.6401  -2.6397
    -2.6359  -2.6332  -2.5931  -2.5820  -2.5742  -2.5526  -2.5498  -2.5325
    -2.4824  -2.4779  -2.4720  -2.4631  -2.4586  -2.4535  -2.4212  -2.3980

          k = 0.0000-0.5773 0.0000 (386352 PWs)   bands (ev):

  -103.2133-103.1960 -87.4983 -71.6250 -71.6192 -71.6098 -71.6040 -71.5539
   -71.5374 -71.4991 -71.4827 -71.4821 -71.4758 -71.4671 -71.4662 -71.4586
   -71.4502 -66.6857 -66.6388 -66.6348 -66.6347 -66.6347 -66.6344 -66.6336
   -66.6335 -66.6307 -66.6267 -66.6241 -66.6241 -66.6240 -66.6239 -66.6229
   -66.6229 -66.6161 -66.6097 -66.6091 -66.6091 -66.6090 -66.6090 -66.6090
   -66.6090 -66.6087 -66.6087 -66.6085 -66.6078 -66.6078 -66.6078 -66.6078
   -66.6046 -66.6045 -66.6045 -66.6042 -66.6034 -66.6033 -66.5996 -66.5990
   -66.5985 -66.5983 -66.5983 -66.5983 -66.5983 -66.5983 -66.5983 -66.5975
   -66.5971 -66.5971 -66.5970 -66.5970 -66.5938 -66.5938 -66.5938 -66.5936
   -66.5926 -66.5926 -66.5881 -66.5817 -66.5673 -66.5659 -66.5642 -66.5542
   -66.5523 -57.5200 -57.5051 -57.4984 -57.4519 -57.1954 -57.1716 -53.4907
   -53.4030 -52.9367 -40.9595 -40.9553 -40.9367 -40.9367 -40.9367 -40.9367
   -40.9367 -40.9367 -40.9366 -40.9362 -40.9362 -40.9362 -40.9362 -40.9360
   -40.9304 -40.9099 -40.9099 -40.9099 -40.9096 -40.9094 -40.9093 -40.9069
   -40.8978 -40.8978 -40.8977 -40.8976 -40.8973 -40.8973 -40.8971 -40.8855
   -40.8843 -40.8810 -40.8507 -40.8472 -40.8472 -40.8472 -40.8471 -40.8470
   -40.8470 -40.8469 -40.8469 -40.8465 -40.8465 -40.8465 -40.8465 -40.8425
   -40.8350 -40.8313 -40.8179 -40.8032 -40.7897 -40.7884 -40.7883 -40.7883
   -40.7882 -40.7882 -40.7878 -40.7878 -40.7789 -40.7789 -40.7787 -40.7786
   -40.7781 -40.7781 -40.7734 -40.7684 -40.7675 -40.7675 -40.7674 -40.7674
   -40.7669 -40.7669 -40.7655 -40.7503 -40.7464 -40.7411 -40.7384 -40.7380
   -40.7380 -40.7379 -40.7379 -40.7379 -40.7379 -40.7376 -40.7375 -40.7373
   -40.7373 -40.7373 -40.7373 -40.7318 -40.7297 -40.7292 -40.7291 -40.7291
   -40.7289 -40.7285 -40.7285 -40.7174 -40.7174 -40.7173 -40.7171 -40.7171
   -40.7169 -40.7168 -40.7168 -40.7168 -40.7168 -40.7168 -40.7167 -40.7167
   -40.7163 -40.7162 -40.7162 -40.7162 -40.7162 -40.7146 -40.7142 -40.7111
   -40.7082 -40.7082 -40.7081 -40.7081 -40.7075 -40.7075 -40.7068 -40.7016
   -40.6953 -40.6924 -40.6909 -40.6866 -40.6866 -40.6865 -40.6865 -40.6864
   -40.6864 -40.6862 -40.6857 -40.6857 -40.6857 -40.6856 -40.6856 -40.6843
   -40.6564 -40.6528 -40.6517 -40.6517 -40.6517 -40.6517 -40.6516 -40.6516
   -40.6515 -40.6514 -40.6509 -40.6509 -40.6509 -40.6509 -40.6468 -40.6406
   -40.6396 -40.6396 -40.6396 -40.6392 -40.6388 -40.6387 -40.6371 -40.6233
   -40.6206 -40.6204 -40.6203 -40.6202 -40.6197 -40.6194 -40.6194 -40.6112
   -40.6070 -40.6033 -40.6033 -40.6031 -40.6030 -40.6024 -40.6024 -40.5917
   -40.5798 -40.5781 -40.5727 -40.5726 -40.5726 -40.5721 -40.5717 -40.5717
   -40.5592 -40.5213 -20.3196 -19.9059 -19.8876 -19.8476 -19.7957 -19.7551
   -19.6877 -19.6639 -19.6130 -19.5024 -19.4512 -19.4376 -19.3666 -19.3439
   -19.2642 -19.2441 -19.1909 -18.8774 -18.8502 -18.8221 -18.7965 -18.7641
   -18.7404 -18.7355 -18.7341 -18.7321 -18.7256 -18.6816 -18.6727 -18.6659
   -18.6596 -18.6433 -18.6043 -18.6025 -18.5898 -18.5713 -18.5677 -18.5645
   -18.5635 -18.5391 -18.5134 -18.5087 -18.5061 -18.4943 -18.4842 -18.4535
   -18.4314 -18.4292 -18.4191 -18.4141 -18.3907 -18.3786 -18.3571 -18.3474
   -18.3357 -18.3293 -18.2832 -18.2629 -18.2553 -18.2500 -18.2258 -18.2097
   -18.1943 -18.1852 -18.1695 -18.1408 -18.1307 -18.1268 -18.1197 -18.1173
   -18.1147 -18.1126 -18.0949 -18.0912 -18.0895 -18.0890 -18.0843 -18.0811
   -18.0790 -18.0650 -18.0642 -18.0578 -18.0545 -18.0475 -18.0293 -18.0231
   -18.0196 -18.0166 -18.0162 -18.0137 -18.0100 -18.0055 -18.0037 -17.9934
   -17.9734 -17.9543 -17.9529 -17.9496 -17.9452 -17.9378 -17.9120 -17.9047
   -17.8986 -17.8933 -17.8690 -17.8661 -17.8593 -17.8565 -17.8511 -17.8492
   -17.8360 -17.8349 -17.8344 -17.8336 -17.8329 -17.8324 -17.8211 -17.8192
   -17.8025 -17.7990 -17.7780 -17.7753 -17.7589 -17.7561 -17.7434 -17.7420
   -17.7352 -17.7350 -12.3873 -12.3828 -11.8012 -11.7634 -11.7189 -11.6728
   -11.6011 -11.5369 -11.5303 -11.5169 -11.5168 -11.5064 -11.4978 -11.4793
   -11.4673 -11.4556 -11.4313 -11.4231 -11.4118 -11.4029 -11.3658 -11.3611
   -11.3605 -11.3351 -11.3270 -11.3206 -11.3136 -11.2968 -11.2800 -11.2798
   -11.2766 -11.2717 -11.2674 -11.2306 -11.2292 -11.2173 -11.2122 -11.2110
   -11.1890 -11.1879 -11.1838 -11.1762 -11.1689 -11.1629 -11.1608 -11.1558
   -11.1441 -11.1287 -11.0996 -11.0931 -11.0899 -11.0740 -11.0280 -11.0227
   -10.9802 -10.9763 -10.9635 -10.9443 -10.9187 -10.9141 -10.9002 -10.8969
   -10.8810 -10.8572 -10.8550 -10.8494 -10.8481 -10.8374 -10.8283 -10.8278
   -10.8271 -10.8260 -10.8250 -10.8188 -10.8148 -10.8125 -10.8074 -10.8074
   -10.8020 -10.7991 -10.7961 -10.7934 -10.7896 -10.7606 -10.7590 -10.7585
   -10.7575 -10.7229 -10.6609 -10.5663 -10.5534 -10.5519 -10.5449 -10.5078
   -10.4819 -10.4110 -10.3815 -10.3347 -10.2749 -10.2456 -10.2418 -10.1902
   -10.1616 -10.1423 -10.1376 -10.1326 -10.1150 -10.1110 -10.0799 -10.0742
   -10.0676 -10.0585 -10.0483 -10.0439 -10.0387 -10.0357 -10.0287 -10.0031
    -9.9713  -9.9648  -9.9464  -9.9399  -9.9324  -9.9233  -9.9185  -9.9164
    -9.9081  -9.8985  -9.8687  -9.8493  -9.8415  -9.8207  -9.8199  -9.8044
    -9.7927  -9.7889  -9.7649  -9.7468  -9.7436  -9.7361  -9.7190  -9.6902
    -9.6829  -9.6819  -9.6503  -9.6485  -9.6330  -9.6221  -9.5980  -9.5807
    -9.5748  -9.5719  -9.5693  -9.5582  -9.5529  -9.5343  -9.5086  -9.5071
    -9.5049  -9.4980  -9.4926  -9.4786  -9.4757  -9.4738  -9.4597  -9.4509
    -9.4452  -9.4435  -9.4051  -9.3939  -9.3664  -9.3636  -9.3525  -9.3298
    -9.3011  -9.2959  -9.2442  -9.2320  -9.2295  -9.2263  -9.2071  -9.2025
    -9.1774  -9.1763  -9.1633  -9.1568  -9.1506  -9.1264  -9.1097  -9.1031
    -9.0881  -9.0867  -9.0757  -9.0625  -9.0534  -9.0447  -9.0321  -9.0214
    -9.0082  -8.9837  -8.9796  -8.9717  -8.9708  -8.9625  -8.9415  -8.9405
    -8.9288  -8.9160  -8.9117  -8.9083  -8.9027  -8.9016  -8.9011  -8.8983
    -8.8977  -8.8845  -8.8838  -8.8743  -8.8720  -8.8696  -8.8626  -8.8557
    -8.8550  -8.8445  -8.8407  -8.8302  -8.8223  -8.8094  -8.8082  -8.8017
    -8.7988  -8.7988  -8.7917  -8.7794  -8.7747  -8.7500  -8.7495  -8.7476
    -8.7455  -8.7360  -8.7223  -8.7010  -8.6769  -8.6676  -8.6564  -8.6118
    -8.5832  -8.5309  -8.5194  -8.5108  -8.5094  -8.4590  -8.4551  -8.4225
    -8.3815  -8.3730  -8.3650  -8.3478  -8.2771  -8.2576  -8.1660  -8.1507
    -8.1430  -8.1423  -8.1338  -8.1323  -8.1234  -8.1226  -8.1218  -8.0789
    -8.0669  -8.0559  -8.0034  -7.9870  -7.9804  -7.9455  -7.8641  -7.8587
    -7.8574  -7.8521  -7.8477  -7.8378  -7.8370  -7.8304  -7.8239  -7.8210
    -7.8202  -7.8182  -7.8118  -7.8100  -7.8071  -7.8041  -7.8010  -7.7971
    -7.7966  -7.7923  -7.7850  -7.7843  -7.7818  -7.7808  -7.7801  -7.7755
    -7.7742  -7.7732  -7.7666  -7.7581  -7.7534  -7.7500  -7.7434  -7.7382
    -7.7352  -7.7316  -7.7126  -7.7115  -7.7111  -7.7104  -7.6833  -7.6822
    -7.6805  -7.6803  -7.6784  -7.6636  -7.6558  -7.6390  -7.6339  -7.6255
    -7.6238  -7.6216  -7.6151  -7.6113  -7.6083  -7.6015  -7.5999  -7.5799
    -7.5792  -7.5780  -7.5724  -7.5651  -7.5580  -7.5340  -7.5268  -7.4787
    -7.4769  -7.4737  -7.4667  -7.4562  -7.4314  -7.4235  -7.3614  -7.3311
    -7.2649  -7.2247  -7.1895  -7.1832  -7.1831  -7.1768  -7.1584  -7.1470
    -7.1412  -7.1291  -7.1228  -7.1099  -7.1032  -7.0709  -7.0648  -7.0567
    -7.0518  -7.0336  -7.0280  -7.0153  -7.0017  -6.9920  -6.9914  -6.9764
    -6.9451  -6.9347  -6.9299  -6.9142  -6.9133  -6.8891  -6.8883  -6.8795
    -6.8695  -6.8613  -6.8380  -6.8282  -6.8091  -6.7775  -6.7771  -6.7716
    -6.7187  -6.6970  -6.6844  -6.6660  -6.6579  -6.6330  -6.6311  -6.6261
    -6.6229  -6.6224  -6.6198  -6.6192  -6.6055  -6.6049  -6.6024  -6.6022
    -6.5950  -6.5948  -6.5941  -6.5940  -6.5821  -6.5797  -6.5217  -6.5067
    -6.4929  -6.4563  -6.4188  -6.4002  -6.3492  -6.3438  -6.3397  -6.3343
    -6.3139  -6.3124  -6.3028  -6.2941  -6.2924  -6.2889  -6.2880  -6.2868
    -6.2797  -6.2688  -6.2615  -6.2463  -6.2379  -6.2360  -6.2299  -6.2200
    -6.2156  -6.2107  -6.2089  -6.0757  -6.0298  -6.0030  -5.9964  -5.9466
    -5.9432  -5.9027  -5.9013  -5.8928  -5.8620  -5.8582  -5.8493  -5.7152
    -5.7048  -5.6873  -5.6131  -5.6061  -5.4777  -5.3637  -5.1738  -5.1281
    -5.1089  -4.5924  -4.1115  -4.1023  -4.0979  -4.0860  -3.9840  -3.9459
    -3.9377  -3.9289  -3.9183  -3.8933  -3.8590  -3.8567  -3.8471  -3.8441
    -3.8333  -3.8289  -3.8208  -3.8139  -3.8115  -3.7883  -3.7408  -3.7100
    -3.6906  -3.6558  -3.6542  -3.6239  -3.6206  -3.6151  -3.6121  -3.6020
    -3.5795  -3.5704  -3.5632  -3.5492  -3.5455  -3.5344  -3.5282  -3.5226
    -3.5100  -3.5034  -3.5008  -3.4918  -3.4894  -3.4884  -3.4805  -3.4678
    -3.4674  -3.4625  -3.4513  -3.4388  -3.4383  -3.4365  -3.4274  -3.4212
    -3.3858  -3.3700  -3.3660  -3.3630  -3.3569  -3.3544  -3.3525  -3.3510
    -3.3401  -3.3313  -3.3114  -3.3092  -3.3014  -3.2946  -3.2924  -3.2910
    -3.2903  -3.2859  -3.2738  -3.2651  -3.2580  -3.2562  -3.2513  -3.2415
    -3.2345  -3.2331  -3.2261  -3.2245  -3.2144  -3.2090  -3.2038  -3.2014
    -3.1907  -3.1904  -3.1814  -3.1763  -3.1758  -3.1758  -3.1479  -3.1445
    -3.1321  -3.1130  -3.1023  -3.0884  -3.0817  -3.0799  -3.0718  -3.0649
    -3.0492  -3.0428  -3.0373  -3.0351  -3.0347  -3.0339  -3.0300  -3.0256
    -3.0246  -3.0227  -3.0193  -3.0133  -3.0056  -3.0023  -2.9978  -2.9922
    -2.9849  -2.9822  -2.9812  -2.9779  -2.9766  -2.9643  -2.9613  -2.9602
    -2.9552  -2.9527  -2.9466  -2.9458  -2.9374  -2.9309  -2.9159  -2.9135
    -2.8951  -2.8935  -2.8912  -2.8830  -2.8684  -2.8666  -2.8138  -2.8067
    -2.7987  -2.7880  -2.7424  -2.7420  -2.7364  -2.7325  -2.6439  -2.6261
    -2.6081  -2.5938  -2.5919  -2.5721  -2.5611  -2.5526  -2.5521  -2.5477
    -2.5456  -2.5402  -2.5397  -2.5272  -2.4887  -2.4388  -2.4261  -2.4230
    -2.4151  -2.4114  -2.4030  -2.4006  -2.3904  -2.3850  -2.3590  -2.3575

          k =-0.5000-0.2887 0.0000 (386352 PWs)   bands (ev):

  -103.2133-103.1960 -87.4983 -71.6250 -71.6192 -71.6098 -71.6040 -71.5539
   -71.5374 -71.4990 -71.4827 -71.4821 -71.4758 -71.4671 -71.4662 -71.4586
   -71.4502 -66.6857 -66.6367 -66.6356 -66.6348 -66.6347 -66.6347 -66.6346
   -66.6336 -66.6336 -66.6241 -66.6241 -66.6240 -66.6240 -66.6231 -66.6229
   -66.6229 -66.6147 -66.6125 -66.6090 -66.6090 -66.6090 -66.6090 -66.6090
   -66.6090 -66.6088 -66.6087 -66.6078 -66.6078 -66.6078 -66.6078 -66.6078
   -66.6046 -66.6045 -66.6045 -66.6044 -66.6034 -66.6033 -66.6003 -66.5984
   -66.5984 -66.5983 -66.5983 -66.5982 -66.5982 -66.5981 -66.5981 -66.5980
   -66.5971 -66.5971 -66.5971 -66.5970 -66.5938 -66.5938 -66.5937 -66.5937
   -66.5926 -66.5926 -66.5888 -66.5812 -66.5682 -66.5656 -66.5623 -66.5565
   -66.5513 -57.5200 -57.5051 -57.4984 -57.4519 -57.1954 -57.1716 -53.4907
   -53.4030 -52.9367 -40.9524 -40.9471 -40.9368 -40.9367 -40.9367 -40.9367
   -40.9367 -40.9366 -40.9365 -40.9364 -40.9362 -40.9362 -40.9362 -40.9362
   -40.9300 -40.9236 -40.9147 -40.9099 -40.9099 -40.9098 -40.9096 -40.9094
   -40.9093 -40.9041 -40.8978 -40.8978 -40.8977 -40.8976 -40.8973 -40.8973
   -40.8800 -40.8584 -40.8527 -40.8472 -40.8472 -40.8471 -40.8471 -40.8470
   -40.8470 -40.8469 -40.8469 -40.8465 -40.8465 -40.8465 -40.8465 -40.8354
   -40.8246 -40.8229 -40.8168 -40.8015 -40.7938 -40.7884 -40.7883 -40.7883
   -40.7882 -40.7878 -40.7878 -40.7845 -40.7789 -40.7789 -40.7788 -40.7787
   -40.7786 -40.7781 -40.7781 -40.7675 -40.7675 -40.7674 -40.7674 -40.7669
   -40.7669 -40.7643 -40.7604 -40.7567 -40.7498 -40.7460 -40.7399 -40.7379
   -40.7379 -40.7379 -40.7379 -40.7379 -40.7379 -40.7377 -40.7377 -40.7373
   -40.7373 -40.7373 -40.7373 -40.7318 -40.7292 -40.7291 -40.7291 -40.7290
   -40.7285 -40.7285 -40.7285 -40.7186 -40.7174 -40.7174 -40.7173 -40.7172
   -40.7170 -40.7169 -40.7168 -40.7168 -40.7168 -40.7167 -40.7167 -40.7166
   -40.7166 -40.7166 -40.7162 -40.7162 -40.7162 -40.7162 -40.7120 -40.7082
   -40.7082 -40.7081 -40.7081 -40.7078 -40.7075 -40.7075 -40.7038 -40.7023
   -40.7015 -40.6905 -40.6887 -40.6865 -40.6865 -40.6864 -40.6864 -40.6864
   -40.6863 -40.6862 -40.6861 -40.6857 -40.6857 -40.6857 -40.6856 -40.6782
   -40.6745 -40.6665 -40.6517 -40.6517 -40.6517 -40.6517 -40.6516 -40.6515
   -40.6515 -40.6515 -40.6509 -40.6509 -40.6509 -40.6509 -40.6477 -40.6418
   -40.6396 -40.6395 -40.6395 -40.6393 -40.6387 -40.6387 -40.6301 -40.6281
   -40.6203 -40.6202 -40.6201 -40.6201 -40.6200 -40.6194 -40.6194 -40.6063
   -40.6046 -40.6033 -40.6033 -40.6031 -40.6030 -40.6024 -40.6024 -40.5912
   -40.5745 -40.5726 -40.5726 -40.5725 -40.5723 -40.5717 -40.5717 -40.5622
   -40.5518 -40.5387 -20.3178 -19.9092 -19.8879 -19.8536 -19.7961 -19.7601
   -19.6869 -19.6655 -19.6044 -19.4889 -19.4511 -19.4332 -19.3670 -19.3405
   -19.2663 -19.2428 -19.1993 -18.9031 -18.8666 -18.8082 -18.7809 -18.7623
   -18.7404 -18.7357 -18.7344 -18.7333 -18.7149 -18.6831 -18.6750 -18.6652
   -18.6597 -18.6413 -18.6206 -18.5999 -18.5933 -18.5721 -18.5708 -18.5637
   -18.5489 -18.5418 -18.5344 -18.5040 -18.4957 -18.4933 -18.4860 -18.4539
   -18.4305 -18.4265 -18.4226 -18.4024 -18.3953 -18.3786 -18.3554 -18.3432
   -18.3377 -18.3136 -18.2787 -18.2694 -18.2652 -18.2507 -18.2187 -18.2112
   -18.2024 -18.1827 -18.1550 -18.1396 -18.1360 -18.1279 -18.1194 -18.1165
   -18.1139 -18.1129 -18.1047 -18.0909 -18.0885 -18.0863 -18.0829 -18.0821
   -18.0746 -18.0708 -18.0657 -18.0579 -18.0562 -18.0444 -18.0272 -18.0261
   -18.0222 -18.0176 -18.0160 -18.0139 -18.0106 -18.0050 -18.0042 -17.9938
   -17.9684 -17.9655 -17.9540 -17.9510 -17.9472 -17.9360 -17.9102 -17.9081
   -17.9017 -17.8910 -17.8692 -17.8645 -17.8613 -17.8556 -17.8516 -17.8407
   -17.8353 -17.8349 -17.8347 -17.8340 -17.8324 -17.8319 -17.8197 -17.8193
   -17.8007 -17.7996 -17.7770 -17.7760 -17.7587 -17.7573 -17.7433 -17.7426
   -17.7351 -17.7350 -12.3909 -12.3416 -11.8429 -11.8018 -11.7386 -11.6930
   -11.6297 -11.5389 -11.5254 -11.5168 -11.5144 -11.5041 -11.4946 -11.4891
   -11.4762 -11.4456 -11.4298 -11.4075 -11.4040 -11.4020 -11.3866 -11.3608
   -11.3482 -11.3370 -11.3234 -11.3103 -11.3017 -11.2899 -11.2869 -11.2786
   -11.2758 -11.2696 -11.2669 -11.2318 -11.2233 -11.2154 -11.2150 -11.2036
   -11.1911 -11.1854 -11.1837 -11.1771 -11.1656 -11.1629 -11.1600 -11.1432
   -11.1319 -11.1141 -11.1035 -11.0871 -11.0831 -11.0596 -11.0507 -11.0162
   -10.9781 -10.9699 -10.9615 -10.9438 -10.9328 -10.9267 -10.9125 -10.9002
   -10.8822 -10.8555 -10.8524 -10.8487 -10.8460 -10.8330 -10.8281 -10.8271
   -10.8263 -10.8257 -10.8229 -10.8172 -10.8119 -10.8112 -10.8081 -10.8073
   -10.8009 -10.7996 -10.7977 -10.7963 -10.7630 -10.7596 -10.7590 -10.7585
   -10.7453 -10.7023 -10.5867 -10.5620 -10.5538 -10.5439 -10.5361 -10.5095
   -10.4796 -10.4682 -10.4113 -10.3998 -10.2842 -10.2817 -10.1970 -10.1848
   -10.1581 -10.1488 -10.1315 -10.1273 -10.1148 -10.1050 -10.0748 -10.0702
   -10.0533 -10.0532 -10.0505 -10.0472 -10.0383 -10.0353 -10.0110  -9.9955
    -9.9676  -9.9492  -9.9477  -9.9358  -9.9277  -9.9165  -9.9111  -9.9088
    -9.9028  -9.8846  -9.8764  -9.8642  -9.8419  -9.8194  -9.8109  -9.8010
    -9.7867  -9.7835  -9.7625  -9.7576  -9.7487  -9.7207  -9.7091  -9.7004
    -9.6830  -9.6750  -9.6561  -9.6455  -9.6377  -9.6280  -9.6251  -9.6011
    -9.5889  -9.5815  -9.5645  -9.5555  -9.5503  -9.5443  -9.5263  -9.5101
    -9.5052  -9.4947  -9.4920  -9.4881  -9.4855  -9.4767  -9.4712  -9.4706
    -9.4519  -9.4416  -9.4373  -9.4175  -9.3862  -9.3735  -9.3316  -9.3243
    -9.2944  -9.2683  -9.2449  -9.2414  -9.2272  -9.2223  -9.2138  -9.1936
    -9.1891  -9.1771  -9.1606  -9.1532  -9.1492  -9.1302  -9.1185  -9.1103
    -9.0848  -9.0748  -9.0619  -9.0600  -9.0516  -9.0491  -9.0333  -9.0143
    -8.9996  -8.9973  -8.9750  -8.9708  -8.9650  -8.9634  -8.9562  -8.9464
    -8.9238  -8.9115  -8.9093  -8.9062  -8.9044  -8.9013  -8.8939  -8.8890
    -8.8867  -8.8846  -8.8828  -8.8810  -8.8774  -8.8715  -8.8683  -8.8558
    -8.8553  -8.8525  -8.8386  -8.8274  -8.8130  -8.8085  -8.8076  -8.8069
    -8.8024  -8.8008  -8.7962  -8.7787  -8.7772  -8.7572  -8.7492  -8.7471
    -8.7456  -8.7387  -8.7202  -8.6875  -8.6832  -8.6653  -8.6607  -8.6271
    -8.5804  -8.5345  -8.5209  -8.5123  -8.4909  -8.4709  -8.4555  -8.4458
    -8.3787  -8.3694  -8.3241  -8.3156  -8.2761  -8.2505  -8.2130  -8.1477
    -8.1431  -8.1424  -8.1340  -8.1330  -8.1227  -8.1222  -8.0906  -8.0766
    -8.0721  -8.0271  -7.9842  -7.9800  -7.9544  -7.9127  -7.8884  -7.8775
    -7.8614  -7.8585  -7.8497  -7.8410  -7.8379  -7.8302  -7.8253  -7.8210
    -7.8187  -7.8166  -7.8151  -7.8111  -7.8056  -7.8003  -7.7969  -7.7968
    -7.7943  -7.7850  -7.7842  -7.7820  -7.7809  -7.7794  -7.7793  -7.7739
    -7.7735  -7.7712  -7.7604  -7.7554  -7.7499  -7.7468  -7.7441  -7.7404
    -7.7362  -7.7137  -7.7126  -7.7119  -7.7113  -7.6913  -7.6857  -7.6823
    -7.6816  -7.6798  -7.6792  -7.6663  -7.6622  -7.6470  -7.6400  -7.6339
    -7.6241  -7.6233  -7.6195  -7.6142  -7.6100  -7.6007  -7.5996  -7.5860
    -7.5795  -7.5790  -7.5755  -7.5736  -7.5663  -7.5588  -7.5459  -7.4876
    -7.4772  -7.4763  -7.4719  -7.4560  -7.4403  -7.4182  -7.3796  -7.3275
    -7.2836  -7.2273  -7.2025  -7.1875  -7.1850  -7.1817  -7.1718  -7.1462
    -7.1398  -7.1252  -7.1200  -7.1125  -7.1000  -7.0860  -7.0724  -7.0555
    -7.0411  -7.0367  -7.0254  -7.0179  -6.9986  -6.9941  -6.9906  -6.9798
    -6.9419  -6.9315  -6.9287  -6.9088  -6.9054  -6.8923  -6.8767  -6.8751
    -6.8647  -6.8523  -6.8376  -6.8100  -6.7918  -6.7854  -6.7682  -6.7505
    -6.7237  -6.7049  -6.6893  -6.6659  -6.6536  -6.6398  -6.6318  -6.6231
    -6.6209  -6.6200  -6.6187  -6.6069  -6.6034  -6.6027  -6.6019  -6.5963
    -6.5945  -6.5943  -6.5942  -6.5923  -6.5792  -6.5557  -6.5145  -6.5084
    -6.4927  -6.4358  -6.4214  -6.3915  -6.3462  -6.3428  -6.3406  -6.3304
    -6.3222  -6.3136  -6.2973  -6.2942  -6.2933  -6.2923  -6.2889  -6.2877
    -6.2811  -6.2685  -6.2624  -6.2530  -6.2483  -6.2385  -6.2222  -6.2195
    -6.2154  -6.2123  -6.2046  -6.1090  -6.0207  -6.0065  -5.9915  -5.9533
    -5.9515  -5.9087  -5.9019  -5.8935  -5.8793  -5.8588  -5.8541  -5.7243
    -5.7089  -5.6853  -5.6123  -5.6117  -5.4577  -5.3637  -5.1640  -5.1246
    -5.1198  -4.6233  -4.1110  -4.1075  -4.1071  -4.0859  -3.9749  -3.9477
    -3.9427  -3.9376  -3.9305  -3.8854  -3.8647  -3.8571  -3.8494  -3.8426
    -3.8296  -3.8260  -3.8150  -3.8135  -3.8125  -3.7756  -3.7486  -3.7065
    -3.7044  -3.6577  -3.6334  -3.6190  -3.6155  -3.6136  -3.6116  -3.5829
    -3.5725  -3.5645  -3.5591  -3.5471  -3.5373  -3.5371  -3.5307  -3.5235
    -3.5149  -3.5022  -3.4992  -3.4911  -3.4880  -3.4865  -3.4792  -3.4715
    -3.4638  -3.4586  -3.4499  -3.4432  -3.4325  -3.4302  -3.4216  -3.4068
    -3.3867  -3.3729  -3.3657  -3.3642  -3.3594  -3.3584  -3.3569  -3.3514
    -3.3251  -3.3225  -3.3160  -3.3062  -3.3000  -3.2978  -3.2947  -3.2936
    -3.2901  -3.2860  -3.2703  -3.2686  -3.2573  -3.2549  -3.2515  -3.2468
    -3.2372  -3.2288  -3.2256  -3.2238  -3.2194  -3.2127  -3.2092  -3.1973
    -3.1905  -3.1877  -3.1820  -3.1758  -3.1758  -3.1710  -3.1671  -3.1327
    -3.1208  -3.1156  -3.1090  -3.0890  -3.0829  -3.0792  -3.0740  -3.0606
    -3.0429  -3.0389  -3.0375  -3.0369  -3.0357  -3.0346  -3.0311  -3.0257
    -3.0244  -3.0214  -3.0165  -3.0101  -3.0064  -3.0031  -2.9957  -2.9928
    -2.9912  -2.9865  -2.9836  -2.9762  -2.9739  -2.9689  -2.9625  -2.9608
    -2.9577  -2.9544  -2.9458  -2.9448  -2.9368  -2.9246  -2.9120  -2.9080
    -2.9015  -2.8975  -2.8934  -2.8874  -2.8787  -2.8684  -2.8154  -2.8055
    -2.8053  -2.7998  -2.7660  -2.7404  -2.7360  -2.7183  -2.6403  -2.6249
    -2.6060  -2.5965  -2.5863  -2.5756  -2.5699  -2.5604  -2.5542  -2.5454
    -2.5425  -2.5401  -2.5362  -2.5289  -2.5016  -2.4340  -2.4303  -2.4138
    -2.4108  -2.4043  -2.3983  -2.3913  -2.3903  -2.3833  -2.3586  -2.3562

          k =-0.5000-0.8660 0.0000 (386352 PWs)   bands (ev):

  -103.2133-103.1960 -87.4983 -71.6250 -71.6192 -71.6098 -71.6040 -71.5539
   -71.5374 -71.4991 -71.4827 -71.4821 -71.4758 -71.4671 -71.4662 -71.4586
   -71.4502 -66.6857 -66.6368 -66.6355 -66.6348 -66.6347 -66.6347 -66.6346
   -66.6336 -66.6336 -66.6241 -66.6241 -66.6240 -66.6240 -66.6231 -66.6229
   -66.6229 -66.6147 -66.6124 -66.6090 -66.6090 -66.6090 -66.6090 -66.6090
   -66.6090 -66.6088 -66.6087 -66.6079 -66.6078 -66.6078 -66.6078 -66.6078
   -66.6046 -66.6045 -66.6045 -66.6044 -66.6034 -66.6033 -66.6004 -66.5983
   -66.5983 -66.5983 -66.5983 -66.5982 -66.5982 -66.5982 -66.5981 -66.5980
   -66.5971 -66.5971 -66.5971 -66.5970 -66.5938 -66.5938 -66.5937 -66.5937
   -66.5926 -66.5926 -66.5887 -66.5813 -66.5681 -66.5656 -66.5623 -66.5565
   -66.5513 -57.5200 -57.5051 -57.4984 -57.4519 -57.1953 -57.1716 -53.4907
   -53.4030 -52.9367 -40.9525 -40.9474 -40.9368 -40.9367 -40.9367 -40.9367
   -40.9366 -40.9366 -40.9365 -40.9363 -40.9362 -40.9362 -40.9362 -40.9362
   -40.9299 -40.9234 -40.9142 -40.9099 -40.9099 -40.9098 -40.9097 -40.9094
   -40.9093 -40.9042 -40.8978 -40.8978 -40.8977 -40.8976 -40.8973 -40.8973
   -40.8800 -40.8586 -40.8528 -40.8472 -40.8472 -40.8472 -40.8472 -40.8470
   -40.8470 -40.8469 -40.8469 -40.8465 -40.8465 -40.8465 -40.8465 -40.8357
   -40.8248 -40.8228 -40.8168 -40.8014 -40.7940 -40.7884 -40.7883 -40.7883
   -40.7882 -40.7878 -40.7878 -40.7842 -40.7789 -40.7789 -40.7789 -40.7787
   -40.7787 -40.7781 -40.7781 -40.7675 -40.7675 -40.7674 -40.7674 -40.7669
   -40.7669 -40.7649 -40.7599 -40.7568 -40.7498 -40.7461 -40.7397 -40.7379
   -40.7379 -40.7379 -40.7379 -40.7379 -40.7379 -40.7377 -40.7377 -40.7373
   -40.7373 -40.7373 -40.7373 -40.7320 -40.7292 -40.7291 -40.7291 -40.7290
   -40.7285 -40.7285 -40.7284 -40.7186 -40.7174 -40.7174 -40.7172 -40.7172
   -40.7170 -40.7169 -40.7168 -40.7168 -40.7168 -40.7168 -40.7167 -40.7167
   -40.7167 -40.7166 -40.7162 -40.7162 -40.7162 -40.7162 -40.7117 -40.7082
   -40.7082 -40.7081 -40.7081 -40.7080 -40.7075 -40.7075 -40.7038 -40.7026
   -40.7013 -40.6904 -40.6887 -40.6865 -40.6865 -40.6864 -40.6864 -40.6864
   -40.6863 -40.6862 -40.6861 -40.6857 -40.6857 -40.6857 -40.6856 -40.6792
   -40.6737 -40.6667 -40.6517 -40.6517 -40.6517 -40.6517 -40.6516 -40.6515
   -40.6515 -40.6515 -40.6509 -40.6509 -40.6509 -40.6509 -40.6469 -40.6413
   -40.6396 -40.6395 -40.6394 -40.6393 -40.6387 -40.6387 -40.6304 -40.6284
   -40.6204 -40.6203 -40.6202 -40.6201 -40.6200 -40.6194 -40.6194 -40.6062
   -40.6047 -40.6033 -40.6033 -40.6031 -40.6030 -40.6024 -40.6024 -40.5918
   -40.5735 -40.5726 -40.5726 -40.5725 -40.5723 -40.5717 -40.5717 -40.5626
   -40.5523 -40.5383 -20.3178 -19.9095 -19.8879 -19.8539 -19.7961 -19.7602
   -19.6868 -19.6656 -19.6034 -19.4883 -19.4511 -19.4331 -19.3671 -19.3405
   -19.2667 -19.2428 -19.2006 -18.9014 -18.8668 -18.8082 -18.7807 -18.7632
   -18.7404 -18.7356 -18.7347 -18.7329 -18.7160 -18.6834 -18.6750 -18.6648
   -18.6601 -18.6416 -18.6197 -18.5995 -18.5932 -18.5721 -18.5706 -18.5637
   -18.5489 -18.5416 -18.5347 -18.5036 -18.4958 -18.4933 -18.4858 -18.4540
   -18.4308 -18.4262 -18.4230 -18.4019 -18.3947 -18.3784 -18.3559 -18.3438
   -18.3374 -18.3146 -18.2791 -18.2688 -18.2652 -18.2514 -18.2186 -18.2109
   -18.2025 -18.1834 -18.1545 -18.1390 -18.1366 -18.1282 -18.1190 -18.1165
   -18.1140 -18.1132 -18.1040 -18.0904 -18.0886 -18.0861 -18.0824 -18.0816
   -18.0741 -18.0707 -18.0660 -18.0581 -18.0563 -18.0447 -18.0265 -18.0257
   -18.0222 -18.0175 -18.0159 -18.0138 -18.0105 -18.0047 -18.0044 -17.9931
   -17.9675 -17.9656 -17.9541 -17.9509 -17.9474 -17.9359 -17.9103 -17.9088
   -17.9026 -17.8907 -17.8691 -17.8649 -17.8617 -17.8555 -17.8529 -17.8408
   -17.8353 -17.8350 -17.8346 -17.8337 -17.8327 -17.8316 -17.8206 -17.8203
   -17.8014 -17.8009 -17.7770 -17.7763 -17.7572 -17.7562 -17.7425 -17.7418
   -17.7352 -17.7351 -12.3906 -12.3418 -11.8434 -11.8021 -11.7384 -11.6927
   -11.6277 -11.5396 -11.5255 -11.5168 -11.5144 -11.5034 -11.4948 -11.4892
   -11.4770 -11.4453 -11.4293 -11.4073 -11.4045 -11.4023 -11.3867 -11.3614
   -11.3484 -11.3374 -11.3226 -11.3108 -11.3030 -11.2898 -11.2872 -11.2787
   -11.2760 -11.2694 -11.2674 -11.2321 -11.2235 -11.2155 -11.2148 -11.2044
   -11.1913 -11.1858 -11.1837 -11.1773 -11.1653 -11.1632 -11.1600 -11.1424
   -11.1321 -11.1138 -11.1038 -11.0877 -11.0832 -11.0599 -11.0479 -11.0158
   -10.9794 -10.9696 -10.9611 -10.9430 -10.9315 -10.9257 -10.9111 -10.9009
   -10.8818 -10.8555 -10.8519 -10.8483 -10.8455 -10.8331 -10.8278 -10.8269
   -10.8260 -10.8253 -10.8224 -10.8170 -10.8125 -10.8118 -10.8083 -10.8074
   -10.8016 -10.8000 -10.7978 -10.7964 -10.7636 -10.7597 -10.7590 -10.7586
   -10.7461 -10.7008 -10.5885 -10.5623 -10.5534 -10.5444 -10.5361 -10.5100
   -10.4779 -10.4683 -10.4120 -10.3981 -10.2848 -10.2810 -10.1960 -10.1858
   -10.1578 -10.1492 -10.1315 -10.1279 -10.1150 -10.1049 -10.0737 -10.0703
   -10.0537 -10.0528 -10.0508 -10.0479 -10.0384 -10.0359 -10.0121  -9.9963
    -9.9666  -9.9490  -9.9484  -9.9361  -9.9273  -9.9167  -9.9104  -9.9080
    -9.9016  -9.8854  -9.8759  -9.8646  -9.8424  -9.8200  -9.8096  -9.8003
    -9.7865  -9.7836  -9.7625  -9.7583  -9.7488  -9.7214  -9.7094  -9.7002
    -9.6835  -9.6759  -9.6560  -9.6461  -9.6354  -9.6279  -9.6245  -9.6007
    -9.5894  -9.5819  -9.5643  -9.5562  -9.5513  -9.5454  -9.5260  -9.5103
    -9.5051  -9.4949  -9.4921  -9.4881  -9.4852  -9.4766  -9.4712  -9.4709
    -9.4516  -9.4420  -9.4370  -9.4178  -9.3854  -9.3740  -9.3303  -9.3248
    -9.2960  -9.2672  -9.2454  -9.2403  -9.2281  -9.2227  -9.2145  -9.1930
    -9.1897  -9.1764  -9.1599  -9.1536  -9.1489  -9.1309  -9.1181  -9.1112
    -9.0851  -9.0739  -9.0638  -9.0601  -9.0501  -9.0488  -9.0326  -9.0148
    -8.9992  -8.9968  -8.9749  -8.9710  -8.9649  -8.9632  -8.9567  -8.9457
    -8.9248  -8.9115  -8.9094  -8.9059  -8.9044  -8.9020  -8.8943  -8.8886
    -8.8863  -8.8845  -8.8829  -8.8810  -8.8764  -8.8723  -8.8680  -8.8557
    -8.8552  -8.8515  -8.8372  -8.8296  -8.8130  -8.8086  -8.8076  -8.8068
    -8.8021  -8.8007  -8.7968  -8.7787  -8.7773  -8.7574  -8.7492  -8.7471
    -8.7456  -8.7380  -8.7210  -8.6869  -8.6829  -8.6656  -8.6607  -8.6264
    -8.5790  -8.5336  -8.5212  -8.5115  -8.4921  -8.4712  -8.4553  -8.4474
    -8.3785  -8.3691  -8.3247  -8.3161  -8.2763  -8.2493  -8.2134  -8.1477
    -8.1430  -8.1424  -8.1340  -8.1329  -8.1228  -8.1223  -8.0903  -8.0767
    -8.0726  -8.0223  -7.9860  -7.9822  -7.9570  -7.9097  -7.8916  -7.8786
    -7.8615  -7.8589  -7.8496  -7.8413  -7.8380  -7.8319  -7.8262  -7.8219
    -7.8183  -7.8149  -7.8131  -7.8116  -7.8059  -7.7996  -7.7969  -7.7956
    -7.7942  -7.7850  -7.7842  -7.7826  -7.7810  -7.7793  -7.7791  -7.7740
    -7.7735  -7.7725  -7.7610  -7.7560  -7.7498  -7.7466  -7.7435  -7.7400
    -7.7362  -7.7137  -7.7127  -7.7120  -7.7113  -7.6903  -7.6852  -7.6822
    -7.6816  -7.6797  -7.6790  -7.6660  -7.6622  -7.6449  -7.6409  -7.6336
    -7.6241  -7.6232  -7.6193  -7.6140  -7.6099  -7.6006  -7.5995  -7.5877
    -7.5796  -7.5791  -7.5753  -7.5725  -7.5650  -7.5592  -7.5449  -7.4870
    -7.4776  -7.4763  -7.4715  -7.4549  -7.4401  -7.4175  -7.3803  -7.3290
    -7.2864  -7.2305  -7.2047  -7.1867  -7.1841  -7.1787  -7.1709  -7.1477
    -7.1417  -7.1244  -7.1183  -7.1103  -7.0996  -7.0859  -7.0715  -7.0560
    -7.0423  -7.0369  -7.0242  -7.0163  -6.9984  -6.9940  -6.9907  -6.9800
[...]
     atom  172 type  2   force =     0.00000251   -0.00000038    0.00161421
     atom  173 type  2   force =     0.00000238   -0.00000090   -0.00236238
     atom  174 type  2   force =    -0.00002108   -0.00000579    0.00003909
     atom  175 type  1   force =    -0.00001134   -0.00000065   -0.00003404
     atom  176 type  1   force =     0.00030187    0.00017934   -0.00007790
     atom  177 type  2   force =     0.00039707    0.00047084    0.00082749
     atom  178 type  2   force =    -0.00004493   -0.00002770   -0.00002361
     atom  179 type  2   force =    -0.00001683   -0.00002057    0.00001024
     atom  180 type  2   force =    -0.00043450   -0.00019155    0.00003410
     atom  181 type  1   force =     0.00000347   -0.00000139    0.00068526
     atom  182 type  1   force =    -0.00002198   -0.00001067    0.00000585
     atom  183 type  2   force =     0.00000339   -0.00000170    0.00000231
     atom  184 type  2   force =     0.00000256   -0.00000032    0.00161432
     atom  185 type  2   force =     0.00000230   -0.00000085   -0.00236251
     atom  186 type  2   force =    -0.00002316   -0.00000544    0.00003717
     atom  187 type  1   force =    -0.00001844   -0.00002499   -0.00002328
     atom  188 type  1   force =     0.00023348    0.00028850    0.00016329
     atom  189 type  2   force =     0.00003112    0.00018731   -0.00004410
     atom  190 type  2   force =    -0.00000134    0.00000368   -0.00001089
     atom  191 type  2   force =     0.00002423    0.00002047    0.00001898
     atom  192 type  2   force =     0.00017804    0.00016265   -0.00027001
     atom  193 type  3   force =    -0.00092431    0.00003276   -0.00068475
     atom  194 type  3   force =    -0.00055289    0.00005611    0.00082173
     atom  195 type  4   force =     0.00034955   -0.00088830    0.00011878

     Total force =     0.003882     Total SCF correction =     0.000860
     SCF correction compared to forces is large: reduce conv_thr to get better values
     Energy error            =      2.9E-05 Ry
     Gradient error          =      9.2E-04 Ry/Bohr

     bfgs converged in  50 scf cycles and  49 bfgs steps
     (criteria: energy <  1.0E-04 Ry, force <  1.0E-03 Ry/Bohr)

     End of BFGS Geometry Optimization

     Final energy             =  -35654.9559219938 Ry

     File ./outdir/pwscf.bfgs deleted, as requested
Begin final coordinates

ATOMIC_POSITIONS (angstrom)
Mo               0.0000119917        1.8193638619       -9.1672481230    0   0   0
Mo               1.5756136568        0.9097075315       -3.0554901653    0   0   0
S                0.0000188998        1.8193822938       -4.6232556019    0   0   0
S                1.5756321638        0.9096773839       -7.6014065489    0   0   0
S                1.5756326175        0.9096785128      -10.7330757790    0   0   0
S                0.0000189190        1.8193860094       -1.4877129945    0   0   0
Mo              -0.0054970510        1.8189113984        3.0591833055
Mo               1.5542266069        0.9106893179        9.1569407182
S               -0.0208686065        1.8231543789        7.5850441732
S                1.5698177253        0.9088801117        4.6267142662
S                1.5700866666        0.9090075708        1.4914088156
S               -0.0251056989        1.8083535466       10.7323038993
Mo              -1.5756053507        4.5484193819       -9.1672481230    0   0   0
Mo               0.0000378379        3.6387394919       -3.0554952701    0   0   0
S               -1.5755913433        4.5484363582       -4.6232494962    0   0   0
S                0.0000148214        3.6387329039       -7.6014065489    0   0   0
S                0.0000152751        3.6387340328      -10.7330757790    0   0   0
S               -1.5755906502        4.5484413613       -1.4877305502    0   0   0
Mo              -1.5807834485        4.5481023755        3.0591725156
Mo              -0.0352669306        3.6270809043        9.1676056527
S               -1.5948497791        4.5590503907        7.5956107028
S               -0.0052534692        3.6385843001        4.6271709549
S               -0.0050269473        3.6382996043        1.4913801722
S               -1.6044574948        4.5425034038       10.7381210161
Mo              -3.1512226931        7.2774749019       -9.1672481230    0   0   0
Mo              -1.5755910988        6.3678216792       -3.0555115988    0   0   0
S               -3.1512162438        7.2774954350       -4.6232578178    0   0   0
S               -1.5756025210        6.3677884239       -7.6014065489    0   0   0
S               -1.5756020673        6.3677895528      -10.7330757790    0   0   0
S               -3.1512127704        7.2774877076       -1.4877200710    0   0   0
Mo              -3.1565046172        7.2768219984        3.0590851902
Mo              -1.6066699939        6.3696350015        9.1797428629
S               -3.1713448820        7.2737208358        7.5993572423
S               -1.5803911326        6.3675741739        4.6269346071
S               -1.5807783451        6.3671812634        1.4910289672
S               -3.1739105008        7.2807678051       10.7482377615
Mo              -4.7268400355       10.0065304219       -9.1672481230    0   0   0
Mo              -3.1512405618        9.0968403586       -3.0554816746    0   0   0
S               -4.7268341792       10.0065523623       -4.6232463762    0   0   0
S               -3.1512198634        9.0968439439       -7.6014065489    0   0   0
S               -3.1512194097        9.0968450728      -10.7330757790    0   0   0
S               -4.7268370797       10.0065537885       -1.4877176751    0   0   0
Mo              -4.7325127532       10.0056687901        3.0589564199
Mo              -3.1724998816        9.0947703442        9.1688320278
S               -4.7481372742       10.0012196061        7.5953834685
S               -3.1568358733        9.0961797977        4.6263687285
S               -3.1566563678        9.0960926864        1.4910724209
S               -4.7409866713       10.0216205477       10.7347758329
Mo               3.1512517547        1.8193638619       -9.1672481230    0   0   0
Mo               4.7269020221        0.9097289540       -3.0554823951    0   0   0
S                3.1512612351        1.8193882564       -4.6232320683    0   0   0
S                4.7268719268        0.9096773839       -7.6014065489    0   0   0
S                4.7268723805        0.9096785128      -10.7330757790    0   0   0
S                3.1512592485        1.8193890201       -1.4877261251    0   0   0
Mo               3.1456947270        1.8187409197        3.0592423029
Mo               4.7044237587        0.9077975436        9.1580379095
S                3.1306646217        1.8261355366        7.5899857953
S                4.7211564537        0.9087039487        4.6266277290
S                4.7215083528        0.9091268400        1.4912853169
S                3.1289046636        1.7896755655       10.7399840675
Mo               1.5756344123        4.5484193819       -9.1672481230    0   0   0
Mo               3.1512756394        3.6387769522       -3.0554814834    0   0   0
S                1.5756504879        4.5484423799       -4.6232390542    0   0   0
S                3.1512545844        3.6387329039       -7.6014065489    0   0   0
S                3.1512550381        3.6387340328      -10.7330757790    0   0   0
S                1.5756466253        4.5484431864       -1.4877251801    0   0   0
Mo               1.5703980002        4.5481064459        3.0594623528
Mo               3.1293644479        3.6149310375        9.1876681495
S                1.5556315255        4.5656969017        7.6401790997
S                3.1457792086        3.6384744374        4.6273732973
S                3.1459660032        3.6381099734        1.4914999323
S                1.5322915920        4.4536959818       10.7880761857
Mo               0.0000170699        7.2774749019       -9.1672481230    0   0   0
Mo               1.5756764447        6.3678236689       -3.0554877708    0   0   0
S                0.0000381981        7.2774979204       -4.6232454413    0   0   0
S                1.5756372420        6.3677884239       -7.6014065489    0   0   0
S                1.5756376957        6.3677895528      -10.7330757790    0   0   0
S                0.0000328088        7.2774946042       -1.4877307940    0   0   0
Mo              -0.0048863641        7.2765980874        3.0586282421
Mo               1.5220791727        6.3651010642        9.2239277161
S               -0.0084556727        7.2708483486        7.6406720151
S                1.5702474886        6.3673662098        4.6277874954
S                1.5708666645        6.3668574793        1.4912998721
S               -0.1385766853        7.3438414081       10.8377184699
Mo              -1.5756002725       10.0065304219       -9.1672481230    0   0   0
Mo               0.0000873425        9.0968676911       -3.0554912329    0   0   0
S               -1.5755883952       10.0065504530       -4.6232240150    0   0   0
S                0.0000198996        9.0968439439       -7.6014065489    0   0   0
S                0.0000203533        9.0968450728      -10.7330757790    0   0   0
S               -1.5755859047       10.0065492576       -1.4877362381    0   0   0
Mo              -1.5809896736       10.0056980284        3.0587564247
Mo              -0.0238459003        9.1072616125        9.1814666003
S               -1.5944865798        9.9978797819        7.5975753927
S               -0.0054729879        9.0954197248        4.6264626965
S               -0.0050101415        9.0962288508        1.4908626974
S               -1.6069676713       10.0207643537       10.7392726033
Mo               6.3024915177        1.8193638619       -9.1672481230    0   0   0
Mo               7.8781001445        0.9096521684       -3.0554919963    0   0   0
S                6.3025008696        1.8193826232       -4.6232480596    0   0   0
S                7.8781116898        0.9096773839       -7.6014065489    0   0   0
S                7.8781121435        0.9096785128      -10.7330757790    0   0   0
S                6.3025042007        1.8193849068       -1.4877147524    0   0   0
Mo               6.2969476429        1.8187143506        3.0592122313
Mo               7.8549146583        0.9139228184        9.1537228857
S                6.2797276904        1.8176255948        7.5836826487
S                7.8727120579        0.9089605189        4.6262596524
S                7.8727183166        0.9088577350        1.4911963947
S                6.2851408541        1.8060531918       10.7294428474
Mo               4.7268741753        4.5484193819       -9.1672481230    0   0   0
Mo               6.3024679138        3.6387501714       -3.0554895197    0   0   0
S                4.7268748770        4.5484386753       -4.6232519432    0   0   0
S                6.3024943474        3.6387329039       -7.6014065489    0   0   0
S                6.3024948011        3.6387340328      -10.7330757790    0   0   0
S                4.7268770533        4.5484432419       -1.4877137856    0   0   0
Mo               4.7214017308        4.5479900115        3.0593407439
Mo               6.2954977655        3.6234203262        9.1630494493
S                4.7021588367        4.5619799090        7.6367669463
S                6.2966189195        3.6382878187        4.6273069253
S                6.2971831308        3.6381310766        1.4916203007
S                4.7291755801        4.4493493493       10.7848518028
Mo               3.1512568329        7.2774749019       -9.1672481230    0   0   0
Mo               4.7268384135        6.3678043337       -3.0554959052    0   0   0
S                3.1512606125        7.2774972547       -4.6232589675    0   0   0
S                4.7268770050        6.3677884239       -7.6014065489    0   0   0
S                4.7268774587        6.3677895528      -10.7330757790    0   0   0
S                3.1512629079        7.2774963749       -1.4877081835    0   0   0
Mo               3.1459953589        7.2763306111        3.0593249177
Mo               4.7372935159        6.3620158201        9.2193504512
S                3.1292418769        7.2592751724        7.6733499225
S                4.7212736789        6.3670779799        4.6276223620
S                4.7215811238        6.3668892244        1.4910836370
S                3.1309066597        7.3798413169       10.7286216851
Mo               1.5756394905       10.0065304219       -9.1672481230    0   0   0
Mo               3.1512330605        9.0968514907       -3.0554878870    0   0   0
S                1.5756499830       10.0065443759       -4.6232632674    0   0   0
S                3.1512596626        9.0968439439       -7.6014065489    0   0   0
S                3.1512601163        9.0968450728      -10.7330757790    0   0   0
S                1.5756503041       10.0065459699       -1.4877044377    0   0   0
Mo               1.5703013714       10.0055576427        3.0590966447
Mo               3.1303686625        9.1513402403        9.1669190912
S                1.5451552556       10.0080354478        7.5893914956
S                3.1456912873        9.0954816536        4.6274126102
S                3.1461652254        9.0958864255        1.4915563626
S                1.5480995666       10.0358604813       10.7380970153
Mo               9.4537312807        1.8193638619       -9.1672481230    0   0   0
Mo              11.0293863460        0.9096952246       -3.0554894007    0   0   0
S                9.4537395970        1.8193770750       -4.6232328036    0   0   0
S               11.0293514528        0.9096773839       -7.6014065489    0   0   0
S               11.0293519066        0.9096785128      -10.7330757790    0   0   0
S                9.4537393632        1.8193794783       -1.4877366147    0   0   0
Mo               9.4482690789        1.8188712386        3.0587549464
Mo              11.0123806055        0.9141478872        9.1544558064
S                9.4342240962        1.8230084559        7.5843108201
S               11.0235689875        0.9091832831        4.6264470679
S               11.0240602762        0.9089404326        1.4912797773
S                9.4339179967        1.8221312551       10.7228879233
Mo               7.8781139383        4.5484193819       -9.1672481230    0   0   0
Mo               9.4537539161        3.6387607911       -3.0554933032    0   0   0
S                7.8781175448        4.5484378232       -4.6232366318    0   0   0
S                9.4537341104        3.6387329039       -7.6014065489    0   0   0
S                9.4537345641        3.6387340328      -10.7330757790    0   0   0
S                7.8781194018        4.5484411585       -1.4877377057    0   0   0
Mo               7.8725435210        4.5479848129        3.0594453725
Mo               9.4344112399        3.6398240305        9.1589917242
S                7.8589745859        4.5539056103        7.5930163524
S                9.4483513344        3.6384144775        4.6265372084
S                9.4483578386        3.6384871959        1.4913799657
S                7.8637318652        4.5378874051       10.7342319150
Mo               6.3024965959        7.2774749019       -9.1672481230    0   0   0
Mo               7.8781361655        6.3678242352       -3.0555014130    0   0   0
S                6.3024973331        7.2774953556       -4.6232392528    0   0   0
S                7.8781167680        6.3677884239       -7.6014065489    0   0   0
S                7.8781172217        6.3677895528      -10.7330757790    0   0   0
S                6.3024989866        7.2774929744       -1.4877349119    0   0   0
Mo               6.2967730947        7.2765085005        3.0589427080
Mo               7.8667828343        6.3661443695        9.1758537056
S                6.2691359061        7.2655516335        7.6332314143
S                7.8723845093        6.3675121383        4.6270791257
S                7.8728548684        6.3670961002        1.4913157112
S                6.3984676849        7.3397879347       10.8300953445
Mo               4.7268792535       10.0065304219       -9.1672481230    0   0   0
Mo               6.3025111524        9.0968738021       -3.0554915260    0   0   0
S                4.7268840634       10.0065452125       -4.6232380477    0   0   0
S                6.3024994256        9.0968439439       -7.6014065489    0   0   0
S                6.3024998793        9.0968450728      -10.7330757790    0   0   0
S                4.7268847312       10.0065459141       -1.4877283294    0   0   0
Mo               4.7214056943       10.0056663929        3.0593395329
Mo               6.2844240090        9.1039811826        9.1751261254
S                4.7147417410       10.0087002868        7.5878800027
S                6.2968669515        9.0954773468        4.6268454362
S                6.2968525459        9.0959881251        1.4912111750
S                4.7156450068       10.0326849476       10.7354246154
Pt               1.6264985988        6.4350523442       12.1023829692
Pt               4.6379711409        6.4296709028       12.0966412573
Pd               3.1337583634        6.1804460541       14.1419380717
End final coordinates



     Writing all to output data dir ./outdir/pwscf.save/ :
     XML data file, charge density, pseudopotentials, collected wavefunctions
 
     init_run     :    175.61s CPU    178.98s WALL (       1 calls)
     electrons    :  37356.96s CPU  37770.90s WALL (       3 calls)
     update_pot   :      3.86s CPU      3.99s WALL (       2 calls)
     forces       :    395.41s CPU    402.47s WALL (       3 calls)
     force_dftd3  :      2.08s CPU      2.17s WALL (       3 calls)

     Called by init_run:
     wfcinit      :    151.19s CPU    153.11s WALL (       1 calls)
     potinit      :      1.64s CPU      1.79s WALL (       1 calls)
     hinit0       :     13.18s CPU     13.27s WALL (       1 calls)

     Called by electrons:
     c_bands      :  34457.63s CPU  34766.26s WALL (      40 calls)
     sum_band     :   2582.59s CPU   2638.99s WALL (      40 calls)
     v_of_rho     :     14.46s CPU     16.50s WALL (      41 calls)
     newd         :    258.62s CPU    306.06s WALL (      41 calls)
     PAW_pot      :     49.42s CPU     49.87s WALL (      43 calls)
     mix_rho      :      3.98s CPU      4.60s WALL (      40 calls)
     energy_dftd3 :      1.21s CPU      1.22s WALL (       3 calls)

     Called by c_bands:
     init_us_2    :     85.59s CPU     86.14s WALL (     344 calls)
     init_us_2:cp :     85.59s CPU     86.14s WALL (     344 calls)
     cegterg      :  34096.30s CPU  34402.16s WALL (     186 calls)

     Called by *egterg:
     cdiaghg      :   1849.62s CPU   1918.10s WALL (    2857 calls)
     h_psi        :  16631.29s CPU  16733.60s WALL (    2897 calls)
     s_psi        :   3707.94s CPU   3731.35s WALL (    2897 calls)
     g_psi        :     34.11s CPU     34.25s WALL (    2707 calls)

     Called by h_psi:
     h_psi:calbec :   3818.29s CPU   3831.52s WALL (    2897 calls)
     vloc_psi     :   9032.72s CPU   9080.04s WALL (    2897 calls)
     add_vuspsi   :   3711.25s CPU   3735.57s WALL (    2897 calls)

     General routines
     calbec       :   4891.42s CPU   4908.20s WALL (    3113 calls)
     fft          :     16.17s CPU     17.80s WALL (     564 calls)
     ffts         :      0.74s CPU      0.79s WALL (      81 calls)
     fftw         :   6464.92s CPU   6497.79s WALL ( 1685806 calls)
     interpolate  :      1.28s CPU      1.41s WALL (      41 calls)
 
     Parallel routines
 
     PWSCF        :     10h33m CPU     10h41m WALL

 
   This run was terminated on:  20:34:25  24Apr2024            

=------------------------------------------------------------------------------=
   JOB DONE.
=------------------------------------------------------------------------------=
