LAMMPS data file via write_data, version 23 Jun 2022, timestep = 200000

377 atoms
6 atom types

0 24.5748309 xlo xhi
0 20.701456794 ylo yhi
0 36.159325253 zlo zhi
-7.37244927 0 0 xy xz yz

Masses

1 12.011
2 1.008
3 24.305
4 14.007
5 15.999
6 28.085

Pair Coeffs # lj/cut

1 0.00455328 3.43085
2 0.00190804 2.57113
3 0.00481346 2.69141
4 0.00299215 3.26069
5 0.00260187 3.11815
6 0.0174325 3.82641

Atoms # full

1 1 6 0 0.00622726215005577 5.398713457937873 5.849242630389325 0 0 0
2 1 6 0 1.383460659904065 1.278112745199536 6.487412667809506 0 0 0
3 1 6 0 3.8973327464875296 2.5122089557864595 5.000000016785084 0 0 0
4 1 5 0 0.8583523821617 4.6869382085966365 7.13486368308305 0 0 0
5 1 5 0 -1.1437843959646778 6.508594344697536 6.462045129337589 0 0 0
6 1 5 0 2.9445678942802958 1.7813878693597793 6.2260003445846035 0 0 0
7 1 5 0 -0.9525669535514826 4.119327718055703 5.156645178845751 0 0 0
8 1 5 0 0.4420214330749323 1.8610455224938318 5.210083924698077 0 0 0
9 1 5 0 0.8706844549944119 1.79650115420535 7.983477377543164 0 0 0
10 1 6 0 0.10834722242266749 1.0673024202461587 9.292140020111905 0 0 0
11 1 6 0 -0.9329436340625098 3.8868206930714986 9.961188277172562 0 0 0
12 1 6 0 1.5338675800804444 5.101576008709293 8.590303390894961 0 0 0
13 1 5 0 1.259954856067959 0.5488713662393492 10.365216269693892 0 0 0
14 1 5 0 4.047497518567636 2.231790686212788 9.990572538130886 0 0 0
15 1 5 0 0.6164273958633254 4.503043110410002 9.863455768098994 0 0 0
16 1 5 0 1.5599280848399872 6.751195876148002 8.755280493158402 0 0 0
17 1 5 0 3.043398859942054 4.404325750214455 8.677730709227374 0 0 0
18 1 5 0 3.3949295187211717 4.544213525936748 11.394223269305137 0 0 0
20 1 6 0 -1.0744258284026418 8.178987813507172 6.487410570568642 0 0 0
21 1 6 0 1.4398496589450118 9.412694546885973 5.000000016785084 0 0 0
24 1 5 0 0.4867700301862633 8.682217787790147 6.226308168920482 0 0 0
26 1 5 0 -2.015461661840034 8.761531134294803 5.210083924698077 0 0 0
27 1 5 0 -1.587524017661718 8.696814674795993 7.9834703626340655 0 0 0
28 1 6 0 -2.3494379684310798 7.967387727977103 9.292509423778693 0 0 0
31 1 5 0 -1.1970887990933026 7.448138096965746 10.363990613205118 0 0 0
32 1 5 0 1.589731857332015 9.132284247373168 9.989830006386816 0 0 0
55 1 6 0 4.921638113885263 5.39980272719146 5.848810309496601 0 0 0
56 1 6 0 6.298672521861021 1.278617840043853 6.487609338379557 0 0 0
57 1 6 0 8.812298926487534 2.5122089557864595 5.000000016785084 0 0 0
58 1 5 0 5.774355988648144 4.6885688623482995 7.133407474736462 0 0 0
59 1 5 0 3.771775285861422 6.508715945054744 6.46115344037685 0 0 0
60 1 5 0 7.859681270144936 1.7823403640883277 6.226398494914965 0 0 0
61 1 5 0 3.9623992264485213 4.119327718055703 5.156645178845751 0 0 0
62 1 5 0 5.356987613074933 1.8610455224938318 5.210083924698077 0 0 0
63 1 5 0 5.784826024086079 1.7968178243899278 7.983462407582512 0 0 0
64 1 6 0 5.02282938392571 1.0671483807061546 9.292127472826044 0 0 0
65 1 6 0 3.9820358974431183 3.886956887955746 9.96117540445277 0 0 0
66 1 6 0 6.449058715625019 5.101381766940195 8.589863042632032 0 0 0
67 1 5 0 6.174761766588895 0.5484763824437197 10.3642271313516 0 0 0
68 1 5 0 8.9626976804476 2.2316833698607677 9.98952775058702 0 0 0
69 1 5 0 5.531505103818398 4.501617173364575 9.86251772288328 0 0 0
70 1 5 0 6.4755021871768585 6.7506422777904165 8.757268641338786 0 0 0
71 1 5 0 7.95898567483895 4.404746962755842 8.678016910286752 0 0 0
72 1 5 0 8.309151823504793 4.5431175080082475 11.393740072241782 0 0 0
74 1 6 0 3.8411552236964086 8.178972742846627 6.4873951305367585 0 0 0
75 1 6 0 6.354815838945012 9.412694546885973 5.000000016785084 0 0 0
78 1 5 0 5.401917705142391 8.682648212479808 6.226300141550276 0 0 0
80 1 5 0 2.899504518159966 8.761531134294803 5.210083924698077 0 0 0
81 1 5 0 3.3275650905574143 8.697175418382084 7.983258143554155 0 0 0
82 1 6 0 2.5649515410445143 7.967645730233127 9.29157409051237 0 0 0
85 1 5 0 3.7174151135925695 7.4480052350160415 10.363280588694451 0 0 0
86 1 5 0 6.505496645611771 9.132433918905788 9.989532595936609 0 0 0
109 1 6 0 9.836597840534667 5.399161644477464 5.8491329229965086 0 0 0
110 1 6 0 11.212946878593973 1.2782189022699757 6.487965037662073 0 0 0
113 1 5 0 8.687072211138057 6.508334644922056 6.462422054144027 0 0 0
115 1 5 0 8.87736540644852 4.119327718055703 5.156645178845751 0 0 0
116 1 5 0 10.271953793074932 1.8610455224938318 5.210083924698077 0 0 0
117 1 5 0 10.699135945514325 1.7960995873464598 7.98356401528647 0 0 0
118 1 6 0 9.93775370070127 1.0669458169514252 9.29288511916807 0 0 0
119 1 6 0 8.897303930091061 3.8868540017154793 9.961474839825193 0 0 0
121 1 5 0 11.090477255300387 0.548691201460871 10.364694852223746 0 0 0
123 1 5 0 10.446443841104735 4.502586808899349 9.863728879482633 0 0 0
128 1 6 0 8.755786070298845 8.17885532418369 6.487728374878292 0 0 0
134 1 5 0 7.814470698159965 8.761531134294803 5.210083924698077 0 0 0
135 1 5 0 8.242488183506396 8.696770104559516 7.983683558015757 0 0 0
136 1 6 0 7.480246945139117 7.967440661602126 9.292549958382299 0 0 0
139 1 5 0 8.632916985586467 7.448966031028765 10.36453972871841 0 0 0
234 1 5 0 -1.5214714431210632 4.544093126264035 11.393661498028006 1 0 0
272 1 2 0 2.4677933300574906 4.312276184342058 11.599068161060197 0 0 0
273 1 2 0 -1.3606886361414057 6.633528878536733 10.883714705992455 0 0 0
278 1 2 0 7.381685528510083 4.312617033828171 11.597420633723699 0 0 0
279 1 2 0 3.553286812008343 6.633809859409799 10.88411694232657 0 0 0
285 1 2 0 8.47007515182502 6.6339270710581655 10.882799658107603 0 0 0
361 2 2 0 7.564297855657853 10.03304769160698 13.866542038510898 0 0 0
19 1 6 0 -2.4513310735246727 12.299756332254281 5.848370214348947 0 0 0
22 1 5 0 -1.5981260764636918 11.588701327997821 7.133665073769563 0 0 0
23 1 5 0 -3.6008855636027155 13.40937540768987 6.46218101608189 0 0 0
25 1 5 0 -3.410050041093995 11.019813309155218 5.156645178845751 0 0 0
29 1 6 0 -3.389713670599058 10.787577162733161 9.96122761851844 0 0 0
30 1 6 0 -0.9231600129713403 12.001786270433447 8.590205326804876 0 0 0
33 1 5 0 -1.8403619589477838 11.40250360677199 9.862766318244399 0 0 0
34 1 5 0 -0.8978928992549643 13.65135581263069 8.756596294845032 0 0 0
35 1 5 0 0.586400579748567 11.304849928829432 8.677136719991443 0 0 0
36 1 5 0 0.9384555794071807 11.444424388003151 11.393470468312694 0 0 0
37 1 6 0 -4.908329469219866 19.200503030828337 5.84785754743551 0 0 0
38 1 6 0 -3.5316871821609244 15.07979829326961 6.487755096619653 0 0 0
39 1 6 0 -1.017633428597505 16.313180137985487 5.000000016785084 0 0 0
40 1 5 0 -4.054574816746099 18.489936332534736 7.133156818293807 0 0 0
41 1 5 0 -6.058293324373557 20.309326404369134 6.4612525169280435 0 0 0
42 1 5 0 -1.9707220075096668 15.582849406965886 6.226144547973714 0 0 0
43 1 5 0 -5.867533136009004 17.92029892095619 5.156645178845751 0 0 0
44 1 5 0 -4.472944749382572 15.662016725394315 5.210083924698077 0 0 0
45 1 5 0 -4.0452722651721595 15.59760443240018 7.983485260276071 0 0 0
46 1 6 0 -4.8072245698801 14.867903998635589 9.292520163098292 0 0 0
47 1 6 0 -5.846794116739649 17.68835483068658 9.960680997998587 0 0 0
48 1 6 0 -3.3801469248480704 18.902539986801354 8.589822037957195 0 0 0
49 1 5 0 -3.6544269049634535 14.349039952958472 10.364021854862136 0 0 0
50 1 5 0 -0.8672822908298065 16.032551500207877 9.990432131470925 0 0 0
51 1 5 0 -4.297539266784377 18.30251107702539 9.862365202849364 0 0 0
52 1 5 0 -3.3540839134557796 20.5520627644077 8.756564257682859 0 0 0
53 1 5 0 -1.8708970194278256 18.205256171245054 8.677131368411306 0 0 0
54 1 5 0 -1.517768571495608 18.345440785156317 11.393546511373703 0 0 0
73 1 6 0 2.4639727941416902 12.300059525790486 5.847965121428138 0 0 0
76 1 5 0 3.3182791884314295 11.589499555470342 7.132964378364811 0 0 0
77 1 5 0 1.3139411935516772 13.409442024977835 6.461726384885484 0 0 0
79 1 5 0 1.5049161389060064 11.019813309155218 5.156645178845751 0 0 0
83 1 6 0 1.5249820560144494 10.787541369914363 9.96049145081561 0 0 0
84 1 6 0 3.9923355924406705 12.001497112484948 8.590175314564917 0 0 0
87 1 5 0 3.0745394516278957 11.40097670872178 9.861733029365967 0 0 0
88 1 5 0 4.018716540707732 13.651045456390433 8.758623748211969 0 0 0
89 1 5 0 5.5019335929681725 11.304768530701322 8.677279657804169 0 0 0
90 1 5 0 5.854333026084232 11.444521664148626 11.393353456736177 0 0 0
91 1 6 0 0.006949184669994386 19.20102255458804 5.847067755453334 0 0 0
92 1 6 0 1.383418457546959 15.07951006688667 6.48728947298837 0 0 0
93 1 6 0 3.8973327514024945 16.313180137985487 5.000000016785084 0 0 0
94 1 5 0 0.8616771847586522 18.490488047059753 7.131896738127391 0 0 0
95 1 5 0 -1.1429601291039777 20.309428835177354 6.461336695837233 0 0 0
96 1 5 0 2.9444912724150325 15.583283102485721 6.226770610531143 0 0 0
97 1 5 0 -0.9525669560089924 17.92029892095619 5.156645178845751 0 0 0
98 1 5 0 0.44202143061744964 15.662016725394315 5.210083924698077 0 0 0
99 1 5 0 0.8700100773998185 15.597321629798916 7.983230264714385 0 0 0
100 1 6 0 0.10745910277883927 14.867991897021135 9.29174411165971 0 0 0
101 1 6 0 -0.9320147226568745 17.687734801354143 9.960690724857079 0 0 0
102 1 6 0 1.5352627448377814 18.90196417578063 8.589490131510697 0 0 0
103 1 5 0 1.2607642625284121 14.348474927396737 10.362681790268264 0 0 0
104 1 5 0 4.0481330949617185 16.032597726560898 9.989838684624871 0 0 0
105 1 5 0 0.6173298426335665 18.30121578687379 9.861413923320608 0 0 0
106 1 5 0 1.5610014102394096 20.55130355918124 8.758649927563452 0 0 0
107 1 5 0 3.0448107896490306 18.204915259654573 8.677331040205354 0 0 0
108 1 5 0 3.395129375990949 18.344501187435352 11.393800747589555 0 0 0
127 1 6 0 7.378656115380548 12.30061778197585 5.847348785729201 0 0 0
131 1 5 0 6.228958309803684 13.409291960117534 6.46111536460736 0 0 0
133 1 5 0 6.419882318906006 11.019813309155218 5.156645178845751 0 0 0
137 1 6 0 6.440888424809986 10.787537353831747 9.960792007127113 0 0 0
141 1 5 0 7.9894490038450545 11.40248586562352 9.86156199575752 0 0 0
145 1 6 0 4.92132815891557 19.20022207065673 5.84877946559216 0 0 0
146 1 6 0 6.298257735577674 15.079389025468794 6.487988324267534 0 0 0
149 1 5 0 3.771412433568217 20.309478208151805 6.461331525053722 0 0 0
151 1 5 0 3.9623992239910337 17.92029892095619 5.156645178845751 0 0 0
152 1 5 0 5.356987610617449 15.662016725394315 5.210083924698077 0 0 0
153 1 5 0 5.7845479795343095 15.596888865844639 7.98354535707464 0 0 0
154 1 6 0 5.0234669508810965 14.867734329495702 9.293293213312875 0 0 0
155 1 6 0 3.983103828667158 17.6874660757435 9.961165135204398 0 0 0
157 1 5 0 6.175907636889135 14.349963196528572 10.365111696925265 0 0 0
159 1 5 0 5.532010350054283 18.303248918348444 9.863399034117673 0 0 0
252 1 5 0 -3.977570616263834 11.444044185047671 11.393953846172677 1 0 0
270 1 5 0 -6.433798428816441 18.345314175046568 11.393252897652648 1 0 0
271 1 2 0 -6.274889732845962 20.43493495694009 10.882666808746626 0 -1 0
274 1 2 0 0.011473809150944198 11.212925875889576 11.599025203781798 0 0 0
275 1 2 0 -3.8174074661028077 13.53427356906948 10.88354244296695 0 0 0
276 1 2 0 -2.44429893897048 18.11358672552231 11.599686774796627 0 0 0
277 1 2 0 -1.360024973173087 20.434876992861067 10.883117570895227 0 -1 0
280 1 2 0 4.927255475424564 11.213529613175519 11.598532677612527 0 0 0
281 1 2 0 1.0972050943679665 13.535019132035917 10.883467593163676 0 0 0
282 1 2 0 2.4683334332335276 18.112750552279486 11.598243836922407 0 0 0
283 1 2 0 3.5556930811507472 20.435127459786816 10.882666483312695 0 -1 0
287 1 2 0 6.0143708224903225 13.53354918369335 10.882698628952845 0 0 0
310 2 1 0 2.580260592888346 15.99631801126926 14.589203483957256 0 0 0
311 2 1 0 3.7469542403526352 15.455113561590624 13.726810328727307 0 0 0
312 2 1 0 4.980920620282147 15.022049936482205 14.56188454449831 0 0 0
346 2 2 0 2.901455386381714 16.869907734430377 15.208010161683829 0 0 0
347 2 2 0 2.1968855718555194 15.214306040007218 15.289780642192458 0 0 0
348 2 2 0 1.7241335415590773 16.33113965871231 13.955057473451987 0 0 0
350 2 2 0 4.060321967087766 16.23849151366607 12.99126034037308 0 0 0
351 2 2 0 5.354503469474888 15.90175446132463 15.146517667691622 0 0 0
352 2 2 0 4.657906346099656 14.266963956589208 15.322688330851516 0 0 0
354 2 2 0 6.351979635458912 15.16565693293284 12.86418235156492 0 0 0
313 2 1 0 6.137929027226197 14.450199935422194 13.698728602537411 0 0 0
332 2 2 0 -5.000323359359851 14.435874858954861 15.625976545824347 1 0 0
349 2 2 0 3.387152903993552 14.588499341503649 13.115366864349582 0 0 0
331 2 2 0 -5.081010567558987 15.314636166958351 12.620185077490792 1 0 0
358 2 2 0 7.048683089498509 11.066035017939715 16.095369771889196 0 0 0
353 2 2 0 5.793720287702733 13.50732925738593 13.20416499715578 0 0 0
357 2 2 0 6.649473443182113 13.513909706271297 16.360133876924923 0 0 0
315 2 1 0 7.411152548052921 13.157621157015368 15.618440791374521 0 0 0
359 2 2 0 5.951135687543196 11.718377679553223 14.839817532231248 0 0 0
316 2 1 0 7.0151583275129985 11.71173978995481 15.18500238794098 0 0 0
330 2 2 0 -3.6011110544169367 14.980156922324092 13.590325538566788 1 0 0
360 2 2 0 7.875548821560678 11.63941289109017 13.128586008222632 0 0 0
317 2 1 0 7.908339082219082 11.071608010800269 14.09003351059283 0 0 0
301 2 1 0 -4.680438041368237 14.718083981491494 13.475996873819192 1 0 0
329 2 2 0 -4.7370001084395135 13.64038442691271 13.184674259579772 1 0 0
333 2 2 0 -5.381439066186271 16.0819521867063 15.042415722602975 1 0 0
111 1 6 0 13.727265106487527 2.5122089557864595 5.000000016785084 0 0 0
112 1 5 0 10.689448146603786 4.687882588354121 7.134380919931596 0 0 0
114 1 5 0 12.774341223177098 1.781539010695832 6.226291824905468 0 0 0
120 1 6 0 11.364109990891977 5.101763522504934 8.590550322927115 0 0 0
122 1 5 0 13.877622287206165 2.23194770676257 9.990513164518816 0 0 0
124 1 5 0 11.390476715246916 6.751297499599404 8.755596127908534 0 0 0
125 1 5 0 12.87433282124001 4.40483699339144 8.677875599643663 0 0 0
126 1 5 0 13.223679608181406 4.54351795698847 11.394091685520541 0 0 0
129 1 6 0 11.26978201894501 9.412694546885973 5.000000016785084 0 0 0
132 1 5 0 10.317019457112018 8.682288648876753 6.226396650789376 0 0 0
140 1 5 0 11.420055979456293 9.132914151300495 9.989794931841317 0 0 0
163 1 6 0 14.75128505442674 5.398713851265552 5.848779574070135 0 0 0
164 1 6 0 16.128332494435334 1.278514125745315 6.487515794205128 0 0 0
165 1 6 0 18.642231286487533 2.5122089557864595 5.000000016785084 0 0 0
166 1 5 0 15.603055377774744 4.687654002868203 7.135007235604304 0 0 0
167 1 5 0 13.601037214984673 6.5086019628336365 6.460984974080498 0 0 0
168 1 5 0 17.68940635373371 1.7818738567594752 6.226323862067645 0 0 0
169 1 5 0 13.79233158644852 4.119327718055703 5.156645178845751 0 0 0
170 1 5 0 15.18691997307493 1.8610455224938318 5.210083924698077 0 0 0
171 1 5 0 15.614736591126036 1.7963453343400613 7.983227661242967 0 0 0
172 1 6 0 14.85254415591544 1.0669816718745924 9.291961573841782 0 0 0
173 1 6 0 13.812312993170984 3.8871465132999785 9.961426386329354 0 0 0
174 1 6 0 16.278693464592887 5.101717503166481 8.590721862766115 0 0 0
175 1 5 0 16.005082384342284 0.546953376267385 10.36300064319834 0 0 0
176 1 5 0 18.792900407822195 2.232103899254081 9.989690576028638 0 0 0
177 1 5 0 15.361436507857478 4.502340751383896 9.863427057594745 0 0 0
178 1 5 0 16.303809067104325 6.751426179854835 8.755847435219042 0 0 0
179 1 5 0 17.78838627727549 4.404965176811908 8.67838034766487 0 0 0
180 1 5 0 18.13811633082211 4.543733852481376 11.39450914493059 0 0 0
182 1 6 0 13.670723421564714 8.178987337373666 6.487323101160856 0 0 0
183 1 6 0 16.184748198945016 9.412694546885973 5.000000016785084 0 0 0
186 1 5 0 15.232031638737983 8.68167603066585 6.2253123049436905 0 0 0
188 1 5 0 12.729436878159964 8.761531134294803 5.210083924698077 0 0 0
189 1 5 0 13.157729127318241 8.697271514544521 7.983508727678162 0 0 0
190 1 6 0 12.39502438552284 7.968238785567362 9.291999396495997 0 0 0
193 1 5 0 13.546866219764086 7.448040924327556 10.364124330389904 0 0 0
194 1 5 0 16.334793067967674 9.132472050989202 9.990420126574941 0 0 0
217 1 6 0 19.666170530682063 5.399263888972569 5.8494570551880765 0 0 0
218 1 6 0 21.043256545802716 1.27862386416778 6.4875659833485795 0 0 0
219 1 6 0 23.557197466487526 2.5122089557864595 5.000000016785084 0 0 0
220 1 5 0 20.518155431623555 4.687439908402039 7.135219816277465 0 0 0
221 1 5 0 18.516905684476 6.508840029586768 6.461160816879203 0 0 0
222 1 5 0 22.604487983831792 1.7824240393766893 6.226532067462449 0 0 0
223 1 5 0 18.70729776644852 4.119327718055703 5.156645178845751 0 0 0
224 1 5 0 20.101886153074933 1.8610455224938318 5.210083924698077 0 0 0
225 1 5 0 20.529553255397357 1.7965119189628829 7.98318596954095 0 0 0
226 1 6 0 19.76751955393451 1.0669838041246422 9.292432440575228 0 0 0
227 1 6 0 18.7266450786392 3.8870629208174448 9.961542168488812 0 0 0
228 1 6 0 21.193758125770234 5.101460846505148 8.59111068399056 0 0 0
229 1 5 0 20.920387918182183 0.5477953045151971 10.363384799869829 0 0 0
230 1 5 0 23.707257190995485 2.23189941026387 9.98953697121496 0 0 0
231 1 5 0 20.276016995716436 4.5018060741578205 9.86319223893655 0 0 0
232 1 5 0 21.220008205690306 6.751193454077558 8.757296013948004 0 0 0
233 1 5 0 22.703514690479157 4.404641571639305 8.67756705212128 0 0 0
236 1 6 0 18.585730503913265 8.178812451466671 6.4871709065608645 0 0 0
237 1 6 0 21.09971437894501 9.412694546885973 5.000000016785084 0 0 0
240 1 5 0 20.14671186846311 8.682523610411366 6.226553329145697 0 0 0
242 1 5 0 17.644403058159977 8.761531134294803 5.210083924698077 0 0 0
243 1 5 0 18.072390520435484 8.697153060808747 7.983494480904009 0 0 0
244 1 6 0 17.309869288732347 7.967465586156107 9.292083430767885 0 0 0
247 1 5 0 18.46286135284885 7.446844297319035 10.362434424324206 0 0 0
248 1 5 0 21.2502422097469 9.132248495957285 9.990365996065039 0 0 0
284 1 2 0 12.296402485319996 4.31178665699325 11.59797423299332 0 0 0
290 1 2 0 17.21061908628537 4.312817237616825 11.59758063873794 0 0 0
291 1 2 0 13.382597686822299 6.6340635557628085 10.884050300690127 0 0 0
296 1 2 0 22.125685570915174 4.313055884010747 11.596990337753185 0 0 0
297 1 2 0 18.297010598909345 6.633909992356311 10.885069740546985 0 0 0
363 2 2 0 14.127130050104073 8.900076418012716 17.675832901125634 0 0 0
366 2 2 0 13.633512789653196 8.434821231842323 20.137459808675278 0 0 0
319 2 1 0 13.462457061611397 9.563210362214383 18.260016968588737 0 0 0
323 2 1 0 13.186595942660583 9.310966723415957 19.627931305974634 0 0 0
322 2 1 0 12.335486557075345 10.189372663567292 20.34478295090859 0 0 0
365 2 2 0 12.117298083119788 9.98672223309511 21.408518766657664 0 0 0
130 1 5 0 8.23308601294046 11.58986586774831 7.13241913189932 0 0 0
138 1 6 0 8.907444969980325 12.002454347847102 8.589026243527027 0 0 0
142 1 5 0 8.932803231744519 13.652176459780918 8.75520676429421 0 0 0
143 1 5 0 10.416232352508208 11.304525267882532 8.676591328888653 0 0 0
144 1 5 0 10.766504836467357 11.444288814162608 11.393024334557722 0 0 0
147 1 6 0 8.812298931402493 16.313180137985487 5.000000016785084 0 0 0
148 1 5 0 5.775408219012719 18.48966168630745 7.1339469718692365 0 0 0
150 1 5 0 7.85932365720568 15.583025327945723 6.2265694200454345 0 0 0
156 1 6 0 6.449026561916269 18.902828295990126 8.590484946867058 0 0 0
158 1 5 0 8.962627059756043 16.033242742551685 9.989892815134779 0 0 0
160 1 5 0 6.474346464826913 20.552445720656934 8.756175436458413 0 0 0
161 1 5 0 7.959020040282481 18.205963995455757 8.67795308907768 0 0 0
162 1 5 0 8.310452620911477 18.344877767635893 11.394306869665122 0 0 0
181 1 6 0 12.293792527691673 12.300174418875693 5.848411146705133 0 0 0
184 1 5 0 13.146325663620749 11.589874562360164 7.134115618962216 0 0 0
185 1 5 0 11.143622588006076 13.409416582887435 6.461969230913884 0 0 0
187 1 5 0 11.334848498906004 11.019813309155218 5.156645178845751 0 0 0
191 1 6 0 11.354708137341358 10.788082361084763 9.960908548632403 0 0 0
192 1 6 0 13.821962774818106 12.002239487427037 8.590179183612719 0 0 0
195 1 5 0 12.903849938159524 11.403275833214778 9.862717973226538 0 0 0
196 1 5 0 13.848227887162237 13.651640685377632 8.756082723948463 0 0 0
197 1 5 0 15.331396259140146 11.30509635897111 8.678197996187619 0 0 0
198 1 5 0 15.68352693453304 11.444809559308258 11.393425160678158 0 0 0
199 1 6 0 9.836366151486423 19.200653406210492 5.848331523870925 0 0 0
200 1 6 0 11.213582860472767 15.079559108637813 6.487477754594964 0 0 0
201 1 6 0 13.727265111402499 16.313180137985487 5.000000016785084 0 0 0
202 1 5 0 10.689468607607992 18.490245777910893 7.133517290607254 0 0 0
203 1 5 0 8.685990257515506 20.309889132069166 6.461428287408099 0 0 0
204 1 5 0 12.7745421076748 15.583003632819002 6.2264061968512445 0 0 0
205 1 5 0 8.877365403991035 17.92029892095619 5.156645178845751 0 0 0
206 1 5 0 10.271953790617447 15.662016725394315 5.210083924698077 0 0 0
207 1 5 0 10.700281914113875 15.597810598208394 7.983722031537826 0 0 0
208 1 6 0 9.937850097932959 14.868508067144836 9.291912433318764 0 0 0
209 1 6 0 8.897863958539993 17.688524375617725 9.96107943760355 0 0 0
210 1 6 0 11.364530026359198 18.902976642629515 8.589977812330385 0 0 0
211 1 5 0 11.090079145497286 14.348665132381761 10.363078385747636 0 0 0
212 1 5 0 13.87799771444034 16.033127166318405 9.990439652610577 0 0 0
213 1 5 0 10.447191545079772 18.302492114490967 9.862148753128404 0 0 0
214 1 5 0 11.390159161739506 20.552320787365183 8.757229191514936 0 0 0
215 1 5 0 12.873689921546315 18.20541706296726 8.678013005079626 0 0 0
216 1 5 0 13.225294636578353 18.3447408274992 11.393808160251234 0 0 0
235 1 6 0 17.20948297956544 12.300421449359616 5.847931420937002 0 0 0
238 1 5 0 18.062455589652984 11.589754204090363 7.133667243329078 0 0 0
239 1 5 0 16.058916814966278 13.409225860365991 6.461236968418187 0 0 0
241 1 5 0 16.249814678906002 11.019813309155218 5.156645178845751 0 0 0
245 1 6 0 16.270477334345777 10.788021540204701 9.960847439372726 0 0 0
246 1 6 0 18.73727924445776 12.002039511354408 8.589751635750927 0 0 0
249 1 5 0 17.819615738922312 11.4024547306325 9.862370843704104 0 0 0
250 1 5 0 18.76264183139219 13.651349664298023 8.757848275322592 0 0 0
251 1 5 0 20.2467843472095 11.305095717225948 8.677707567259214 0 0 0
253 1 6 0 14.751647668344086 19.200783018031476 5.848285529209203 0 0 0
254 1 6 0 16.128131396136585 15.079393621192203 6.487527871419764 0 0 0
255 1 6 0 18.642231291402492 16.313180137985487 5.000000016785084 0 0 0
256 1 5 0 15.605018415267036 18.490106457106666 7.133206356569403 0 0 0
257 1 5 0 13.60190880805472 20.309668806464508 6.461924646465848 0 0 0
258 1 5 0 17.689429191124066 15.583049217426863 6.226317859619652 0 0 0
259 1 5 0 13.792331583991032 17.92029892095619 5.156645178845751 0 0 0
260 1 5 0 15.186919970617447 15.662016725394315 5.210083924698077 0 0 0
261 1 5 0 15.615116638428422 15.597693510768764 7.983679074259428 0 0 0
262 1 6 0 14.852777550456945 14.868426358494869 9.292012160737812 0 0 0
263 1 6 0 13.812995517322017 17.68811134015177 9.961239261821168 0 0 0
264 1 6 0 16.279631992129865 18.90266098681632 8.589902998686435 0 0 0
265 1 5 0 16.005061670217316 14.349011322843728 10.364014080607213 0 0 0
266 1 5 0 18.792772095257614 16.03290667510209 9.990240016975855 0 0 0
267 1 5 0 15.362091279651974 18.302628247270846 9.862638241914349 0 0 0
268 1 5 0 16.306343924049415 20.55192203590442 8.756928237450856 0 0 0
269 1 5 0 17.789217833031028 18.205509805493694 8.677257202863187 0 0 0
286 1 2 0 9.838995220960735 11.213522864500604 11.596257315911657 0 0 0
288 1 2 0 7.383586123814541 18.11258827355968 11.59936416129672 0 0 0
289 1 2 0 8.468066449381947 20.434595970585086 10.884219164739058 0 -1 0
292 1 2 0 14.756288799640851 11.212543644191333 11.59898817663274 0 0 0
293 1 2 0 10.926260155022183 13.53471744970606 10.884057387917878 0 0 0
294 1 2 0 12.298353527837323 18.113212877914066 11.598843069260498 0 0 0
295 1 2 0 13.384627936477102 20.43480296445157 10.882996509474284 0 -1 0
298 1 2 0 19.6701826175748 11.212179339954671 11.598366308557042 0 0 0
299 1 2 0 15.841519984591582 13.534769534571353 10.883272152010683 0 0 0
300 1 2 0 17.213608199149707 18.113817339750995 11.597794376509512 0 0 0
345 2 2 0 13.056673790705503 14.836086111045683 12.05570326658751 0 0 0
344 2 2 0 12.004407555847008 14.615782055052657 13.504121855367943 0 0 0
308 2 1 0 12.974869641887276 15.036979181698316 13.15127674747953 0 0 0
343 2 2 0 12.940342120739176 16.1466877855462 13.284565937226185 0 0 0
342 2 2 0 14.156066579542628 13.302218809734395 13.777886546814917 0 0 0
356 2 2 0 8.253342618139978 13.894671392663748 13.72996603125398 0 0 0
341 2 2 0 15.119793358177784 14.782548450270767 13.451452414972202 0 0 0
307 2 1 0 14.173465456432798 14.412080119873227 13.911550399822575 0 0 0
374 2 5 0 12.340329184976651 13.112517896307267 15.66353538038747 0 0 0
362 2 2 0 8.968644450348165 11.018616420284197 14.430498984319915 0 0 0
302 2 1 0 19.10328556081316 14.996977647318843 14.778759872063107 0 0 0
376 2 5 0 9.24308108991583 14.33243010237422 16.763413137420365 0 0 0
334 2 2 0 17.145796722236184 15.128654441511612 13.812119525633987 0 0 0
338 2 2 0 15.204557057226353 14.289664956183108 17.29989727287224 0 0 0
377 2 5 0 9.382120023455533 12.094292890990593 16.654824276817845 0 0 0
306 2 1 0 14.191608617479806 14.730251903917765 15.434009074435153 0 0 0
309 2 1 0 12.944077562546754 14.148492908641215 16.14937701107292 0 0 0
340 2 2 0 14.142649616613793 15.83785136660598 15.585567478032434 0 0 0
364 2 2 0 13.027857043781374 10.95061540884235 16.57663971474595 0 0 0
335 2 2 0 17.52855036925282 13.5116224515611 14.46327859386929 0 0 0
303 2 1 0 17.602726477730734 14.606656359372765 14.689058291341738 0 0 0
318 2 1 0 8.753495990576987 13.19097522894434 16.393854956703823 0 0 0
339 2 2 0 15.578293451861725 13.109033467716177 16.011294420927833 0 0 0
371 2 3 0 10.994596483144374 13.272331734621579 17.329983190893497 0 0 0
304 2 1 0 16.816730967951948 14.924320440264834 15.994804590567018 0 0 0
305 2 1 0 15.44960717945434 14.203866155879593 16.212890523171254 0 0 0
320 2 1 0 12.866495985280622 10.690586385667341 17.642573169721985 0 0 0
337 2 2 0 16.678030436120142 16.031170204053556 16.08856305480035 0 0 0
355 2 2 0 7.832511177012473 15.165978964243914 14.904056364855878 0 0 0
375 2 5 0 12.546609692946511 14.684011375368527 17.254955939176853 0 0 0
336 2 2 0 17.469033384250015 14.633294571022619 16.858164539898393 0 0 0
314 2 1 0 7.469035289683184 14.208473164311895 14.462158230748367 0 0 0
370 2 2 0 10.846947283624544 11.446226788513133 22.36893013336816 0 0 0
327 2 1 0 9.640346897737771 13.265644520870099 22.244954999620248 0 0 0
328 2 1 0 10.490501710958908 12.26310969473216 21.71465021579451 0 0 0
324 2 1 0 10.872693185203993 12.324830402482926 20.344508050093786 0 0 0
373 2 4 0 10.417394203682962 13.352568275327092 19.503086588331836 0 0 0
368 2 2 0 8.509283487518168 15.103251849152164 21.791447211676832 0 0 0
325 2 1 0 9.574598666414191 14.313624586044657 20.044262165457923 0 0 0
369 2 2 0 9.340033010177036 13.22653102370755 23.310828322528675 0 0 0
321 2 1 0 11.774651901671628 11.316376455931408 19.681429615452238 0 0 0
372 2 4 0 12.035569412867595 11.565913180492908 18.326774299583153 0 0 0
326 2 1 0 9.175024388023244 14.30769377772646 21.404540998135257 0 0 0
367 2 2 0 9.220338824777578 15.078909926549048 19.325966124523095 0 0 0

Velocities

1 0 0 0
2 0 0 0
3 0 0 0
4 0 0 0
5 0 0 0
6 0 0 0
7 0 0 0
8 0 0 0
9 0 0 0
10 0 0 0
11 0 0 0
12 0 0 0
13 0 0 0
14 0 0 0
15 0 0 0
16 0 0 0
17 0 0 0
18 0 0 0
20 0 0 0
21 0 0 0
24 0 0 0
26 0 0 0
27 0 0 0
28 0 0 0
31 0 0 0
32 0 0 0
55 0 0 0
56 0 0 0
57 0 0 0
58 0 0 0
59 0 0 0
60 0 0 0
61 0 0 0
62 0 0 0
63 0 0 0
64 0 0 0
65 0 0 0
66 0 0 0
67 0 0 0
68 0 0 0
69 0 0 0
70 0 0 0
71 0 0 0
72 0 0 0
74 0 0 0
75 0 0 0
78 0 0 0
80 0 0 0
81 0 0 0
82 0 0 0
85 0 0 0
86 0 0 0
109 0 0 0
110 0 0 0
113 0 0 0
115 0 0 0
116 0 0 0
117 0 0 0
118 0 0 0
119 0 0 0
121 0 0 0
123 0 0 0
128 0 0 0
134 0 0 0
135 0 0 0
136 0 0 0
139 0 0 0
234 0 0 0
272 0 0 0
273 0 0 0
278 0 0 0
279 0 0 0
285 0 0 0
361 -0.054485064936751856 -0.2997789813701721 -0.21276434928385393
19 0 0 0
22 0 0 0
23 0 0 0
25 0 0 0
29 0 0 0
30 0 0 0
33 0 0 0
34 0 0 0
35 0 0 0
36 0 0 0
37 0 0 0
38 0 0 0
39 0 0 0
40 0 0 0
41 0 0 0
42 0 0 0
43 0 0 0
44 0 0 0
45 0 0 0
46 0 0 0
47 0 0 0
48 0 0 0
49 0 0 0
50 0 0 0
51 0 0 0
52 0 0 0
53 0 0 0
54 0 0 0
73 0 0 0
76 0 0 0
77 0 0 0
79 0 0 0
83 0 0 0
84 0 0 0
87 0 0 0
88 0 0 0
89 0 0 0
90 0 0 0
91 0 0 0
92 0 0 0
93 0 0 0
94 0 0 0
95 0 0 0
96 0 0 0
97 0 0 0
98 0 0 0
99 0 0 0
100 0 0 0
101 0 0 0
102 0 0 0
103 0 0 0
104 0 0 0
105 0 0 0
106 0 0 0
107 0 0 0
108 0 0 0
127 0 0 0
131 0 0 0
133 0 0 0
137 0 0 0
141 0 0 0
145 0 0 0
146 0 0 0
149 0 0 0
151 0 0 0
152 0 0 0
153 0 0 0
154 0 0 0
155 0 0 0
157 0 0 0
159 0 0 0
252 0 0 0
270 0 0 0
271 0 0 0
274 0 0 0
275 0 0 0
276 0 0 0
277 0 0 0
280 0 0 0
281 0 0 0
282 0 0 0
283 0 0 0
287 0 0 0
310 -0.11951597593086001 -0.36187864815059856 -0.14883314548535012
311 -0.11534926433855404 -0.3411717787382675 -0.1561910122318886
312 -0.10869371830675503 -0.33482214562140067 -0.16273285582428196
346 -0.1279256231864416 -0.3637989744890666 -0.1417570869591286
347 -0.10925587380864037 -0.37239623734801536 -0.15495868603980054
348 -0.12463666866882399 -0.3657965329177909 -0.1439885657018629
350 -0.12570078573513432 -0.33112482989167796 -0.14990085444926965
351 -0.11724608452561983 -0.33585317370058027 -0.15571645999732017
352 -0.09860319764428607 -0.34520161426230705 -0.168750187919224
354 -0.113994874713777 -0.30439786817505116 -0.16444049288308157
313 -0.10418638294925665 -0.31421666284582833 -0.1703423967266937
332 -0.09982930092296984 -0.18129524639732136 -0.19973153966396207
349 -0.10700149225237264 -0.33974819249836036 -0.1631209082535348
331 -0.11619021440292819 -0.15544286277607436 -0.19173424805822484
358 -0.061168809754676236 -0.3253760480138395 -0.20244717332248635
353 -0.09473235436601925 -0.3136592308290973 -0.17798498409968208
357 -0.08793291039330015 -0.3321914635568077 -0.17979003840851288
315 -0.08556869750862511 -0.3170825774265102 -0.18462000330410705