
     Program PWSCF v.7.3 starts on 16Apr2024 at  8:14: 5 

     This program is part of the open-source Quantum ESPRESSO suite
     for quantum simulation of materials; please cite
         "P. Giannozzi et al., J. Phys.:Condens. Matter 21 395502 (2009);
         "P. Giannozzi et al., J. Phys.:Condens. Matter 29 465901 (2017);
         "P. Giannozzi et al., J. Chem. Phys. 152 154105 (2020);
          URL http://www.quantum-espresso.org", 
     in publications or presentations arising from this work. More details at
     http://www.quantum-espresso.org/quote

     Parallel version (MPI & OpenMP), running on      36 processor cores
     Number of MPI processes:                36
     Threads/MPI process:                     1

     MPI processes distributed on     1 nodes
     557220 MiB available memory on the printing compute node when the environment starts
 
     Waiting for input...
     Reading input from standard input
Warning: card &CELL ignored
Warning: card / ignored

     Current dimensions of program PWSCF are:
     Max number of different atomic species (ntypx) = 10
     Max number of k-points (npk) =  40000
     Max angular momentum in pseudopotentials (lmaxx) =  4
     file Mo.pbe-spn-kjpaw_psl.1.0.0.UPF: wavefunction(s)  4S 4D renormalized
     file S.pbe-n-kjpaw_psl.1.0.0.UPF: wavefunction(s)  3S 3P renormalized
     file Pd.pbe-spn-kjpaw_psl.1.0.0.UPF: wavefunction(s)  4S 5S 4D renormalized
     file Pt.pbe-spfn-kjpaw_psl.1.0.0.UPF: wavefunction(s)  5P 4F renormalized
 
     R & G space division:  proc/nbgrp/npool/nimage =      36
     Subspace diagonalization in iterative solution of the eigenvalue problem:
     one sub-group per band group will be used
     scalapack distributed-memory algorithm (size of sub-group:  6*  6 procs)

 
     Parallelization info
     --------------------
     sticks:   dense  smooth     PW     G-vecs:    dense   smooth      PW
     Min         586     335     89               165416    71459    9765
     Max         587     337     90               165425    71461    9778
     Sum       21109   12085   3205              5955087  2572543  351657
 
     Using Slab Decomposition
 


     bravais-lattice index     =            0
     lattice parameter (alat)  =      23.8395  a.u.
     unit-cell volume          =   28182.8498 (a.u.)^3
     number of atoms/cell      =          147
     number of atomic types    =            4
     number of electrons       =      1316.00
     number of Kohn-Sham states=          790
     kinetic-energy cutoff     =      77.0000  Ry
     charge density cutoff     =     539.0000  Ry
     scf convergence threshold =      1.0E-06
     mixing beta               =       0.2000
     number of iterations used =            8  plain     mixing
     energy convergence thresh.=      1.0E-04
     force convergence thresh. =      1.0E-03
     Exchange-correlation= SLA  PW   PBX  PBC
                           (   1   4   3   4   0   0   0)
     nstep                     =         1000


     Effective Screening Medium Method
     =================================
     Boundary Conditions: Vacuum-Slab-Vacuum
     total charge in unit cell        =   0.0000
     grid points for fit at edges     =        4 
 

     celldm(1)=  23.839504  celldm(2)=   0.000000  celldm(3)=   0.000000
     celldm(4)=   0.000000  celldm(5)=   0.000000  celldm(6)=   0.000000

     crystal axes: (cart. coord. in units of alat)
               a(1) = (   1.000000   0.000000   0.000000 )  
               a(2) = (  -0.500001   0.866026   0.000000 )  
               a(3) = (   0.000000   0.000000   2.401941 )  

     reciprocal axes: (cart. coord. in units 2 pi/alat)
               b(1) = (  1.000000  0.577351  0.000000 )  
               b(2) = (  0.000000  1.154700  0.000000 )  
               b(3) = (  0.000000  0.000000  0.416330 )  


     PseudoPot. # 1 for Mo read from file:
     ./pseudo/Mo.pbe-spn-kjpaw_psl.1.0.0.UPF
     MD5 check sum: 317bf72632116215fd98f72de1686f13
     Pseudo is Projector augmented-wave + core cor, Zval = 14.0
     Generated using 'atomic' code by A. Dal Corso  v.7.2
     Shape of augmentation charge: PSQ
     Using radial grid of 1229 points,  6 beta functions with: 
                l(1) =   0
                l(2) =   0
                l(3) =   1
                l(4) =   1
                l(5) =   2
                l(6) =   2
     Q(r) pseudized with 0 coefficients 


     PseudoPot. # 2 for S  read from file:
     ./pseudo/S.pbe-n-kjpaw_psl.1.0.0.UPF
     MD5 check sum: 8b7b5302570d38d5e87fed6a1065abda
     Pseudo is Projector augmented-wave + core cor, Zval =  6.0
     Generated using 'atomic' code by A. Dal Corso  v.7.2
     Shape of augmentation charge: PSQ
     Using radial grid of 1151 points,  6 beta functions with: 
                l(1) =   0
                l(2) =   0
                l(3) =   1
                l(4) =   1
                l(5) =   2
                l(6) =   2
     Q(r) pseudized with 0 coefficients 


     PseudoPot. # 3 for Pd read from file:
     ./pseudo/Pd.pbe-spn-kjpaw_psl.1.0.0.UPF
     MD5 check sum: a60571a671f2502b8a6a4569d20a6edb
     Pseudo is Projector augmented-wave + core cor, Zval = 18.0
     Generated using 'atomic' code by A. Dal Corso  v.7.2
     Shape of augmentation charge: PSQ
     Using radial grid of 1235 points,  6 beta functions with: 
                l(1) =   0
                l(2) =   0
                l(3) =   1
                l(4) =   1
                l(5) =   2
                l(6) =   2
     Q(r) pseudized with 0 coefficients 


     PseudoPot. # 4 for Pt read from file:
     ./pseudo/Pt.pbe-spfn-kjpaw_psl.1.0.0.UPF
     MD5 check sum: 620096ebf4e6ebacc94de60fd67efcb5
     Pseudo is Projector augmented-wave + core cor, Zval = 32.0
     Generated using 'atomic' code by A. Dal Corso  v.7.2
     Shape of augmentation charge: PSQ
     Using radial grid of 1277 points,  8 beta functions with: 
                l(1) =   0
                l(2) =   0
                l(3) =   1
                l(4) =   1
                l(5) =   2
                l(6) =   2
                l(7) =   3
                l(8) =   3
     Q(r) pseudized with 0 coefficients 


     atomic species   valence    mass     pseudopotential
     Mo               14.00    95.95000     Mo( 1.00)
     S                 6.00    32.06000     S ( 1.00)
     Pd               18.00   106.42000     Pd( 1.00)
     Pt               32.00   195.08400     Pt( 1.00)

     No symmetry found



   Cartesian axes

     site n.     atom                  positions (alat units)
         1        Mo     tau(   1) = (   0.1248625   0.2131281   0.4810783  )
         2        Mo     tau(   2) = (   0.1250004   0.0721694  -0.4825273  )
         3        Mo     tau(   3) = (  -0.0000005   0.1443526  -0.0000490  )
         4        S      tau(   4) = (   0.0000004   0.0000006  -0.6064556  )
         5        S      tau(   5) = (   0.1249809   0.0722325  -0.1242083  )
         6        S      tau(   6) = (  -0.0008091   0.1437924   0.3564499  )
         7        S      tau(   7) = (   0.0000004   0.0000005  -0.3584711  )
         8        S      tau(   8) = (   0.1250266   0.0721270   0.1240857  )
         9        S      tau(   9) = (  -0.0005942   0.1424836   0.6054838  )
        10        Mo     tau(  10) = (  -0.0011099   0.4328730   0.4866737  )
        11        Mo     tau(  11) = (   0.0000001   0.2886759  -0.4825273  )
        12        Mo     tau(  12) = (  -0.1249710   0.3608625  -0.0000153  )
        13        S      tau(  13) = (  -0.1249999   0.2165071  -0.6064556  )
        14        S      tau(  14) = (   0.0000009   0.2886909  -0.1241159  )
        15        S      tau(  15) = (  -0.1236884   0.3618446   0.3606188  )
        16        S      tau(  16) = (  -0.1249998   0.2165070  -0.3584711  )
        17        S      tau(  17) = (   0.0000530   0.2887092   0.1242638  )
        18        S      tau(  18) = (  -0.1316249   0.3573130   0.6109420  )
        19        Mo     tau(  19) = (  -0.1257401   0.6504248   0.4820927  )
        20        Mo     tau(  20) = (  -0.1250002   0.5051824  -0.4825273  )
        21        Mo     tau(  21) = (  -0.2499958   0.5773353  -0.0001714  )
        22        S      tau(  22) = (  -0.2500002   0.4330136  -0.6064556  )
        23        S      tau(  23) = (  -0.1249719   0.5051311  -0.1241932  )
        24        S      tau(  24) = (  -0.2500164   0.5770675   0.3576049  )
        25        S      tau(  25) = (  -0.2500001   0.4330135  -0.3584711  )
        26        S      tau(  26) = (  -0.1250100   0.5052346   0.1241515  )
        27        S      tau(  27) = (  -0.2503695   0.5776584   0.6061514  )
        28        Mo     tau(  28) = (   0.2502170  -0.0003953   0.4806411  )
        29        Mo     tau(  29) = (  -0.2500004   0.7216889  -0.4825273  )
        30        Mo     tau(  30) = (  -0.3749978   0.7938641  -0.0002041  )
        31        S      tau(  31) = (  -0.3750004   0.6495201  -0.6064556  )
        32        S      tau(  32) = (  -0.2499890   0.7216755  -0.1242803  )
        33        S      tau(  33) = (  -0.3749740   0.7932749   0.3566586  )
        34        S      tau(  34) = (  -0.3750004   0.6495200  -0.3584711  )
        35        S      tau(  35) = (  -0.2500089   0.7216778   0.1239952  )
        36        S      tau(  36) = (  -0.3749998   0.7939174   0.6051309  )
        37        Mo     tau(  37) = (   0.3753608   0.2157704   0.4822604  )
        38        Mo     tau(  38) = (   0.3750004   0.0721694  -0.4825273  )
        39        Mo     tau(  39) = (   0.2499960   0.1443611  -0.0001003  )
        40        S      tau(  40) = (   0.2500004   0.0000006  -0.6064556  )
        41        S      tau(  41) = (   0.3750017   0.0721909  -0.1242276  )
        42        S      tau(  42) = (   0.2507085   0.1439928   0.3565793  )
        43        S      tau(  43) = (   0.2500004   0.0000005  -0.3584711  )
        44        S      tau(  44) = (   0.3750105   0.0721153   0.1240138  )
        45        S      tau(  45) = (   0.2503040   0.1425185   0.6055897  )
        46        Mo     tau(  46) = (   0.2508295   0.4328457   0.4866827  )
        47        Mo     tau(  47) = (   0.2500001   0.2886759  -0.4825273  )
        48        Mo     tau(  48) = (   0.1249947   0.3608692  -0.0000343  )
        49        S      tau(  49) = (   0.1250001   0.2165071  -0.6064556  )
        50        S      tau(  50) = (   0.2499709   0.2887106  -0.1241515  )
        51        S      tau(  51) = (   0.1248475   0.3620695   0.3632119  )
        52        S      tau(  52) = (   0.1250002   0.2165070  -0.3584711  )
        53        S      tau(  53) = (   0.2499461   0.2887051   0.1242364  )
        54        S      tau(  54) = (   0.1248217   0.3502704   0.6102012  )
        55        Mo     tau(  55) = (   0.1249300   0.6515066   0.4828014  )
        56        Mo     tau(  56) = (   0.1249998   0.5051824  -0.4825273  )
        57        Mo     tau(  57) = (   0.0000129   0.5773133  -0.0000993  )
        58        S      tau(  58) = (  -0.0000002   0.4330136  -0.6064556  )
        59        S      tau(  59) = (   0.1250046   0.5051576  -0.1241791  )
        60        S      tau(  60) = (   0.0000991   0.5758547   0.3610070  )
        61        S      tau(  61) = (  -0.0000001   0.4330135  -0.3584711  )
        62        S      tau(  62) = (   0.1249978   0.5051967   0.1242137  )
        63        S      tau(  63) = (  -0.0004561   0.5855879   0.6099183  )
        64        Mo     tau(  64) = (   0.4999896   0.0002543   0.4809432  )
        65        Mo     tau(  65) = (  -0.0000004   0.7216889  -0.4825273  )
        66        Mo     tau(  66) = (  -0.1249822   0.7938260  -0.0001787  )
        67        S      tau(  67) = (  -0.1250004   0.6495201  -0.6064556  )
        68        S      tau(  68) = (   0.0000560   0.7216541  -0.1241922  )
        69        S      tau(  69) = (  -0.1247643   0.7934174   0.3566857  )
        70        S      tau(  70) = (  -0.1250004   0.6495200  -0.3584711  )
        71        S      tau(  71) = (  -0.0000442   0.7215876   0.1241439  )
        72        S      tau(  72) = (  -0.1253483   0.7949346   0.6057201  )
        73        Mo     tau(  73) = (   0.6249017   0.2165129   0.4812697  )
        74        Mo     tau(  74) = (   0.6250004   0.0721694  -0.4825273  )
        75        Mo     tau(  75) = (   0.4999952   0.1443533  -0.0001098  )
        76        S      tau(  76) = (   0.5000004   0.0000006  -0.6064556  )
        77        S      tau(  77) = (   0.6250318   0.0721540  -0.1241362  )
        78        S      tau(  78) = (   0.4996954   0.1447446   0.3570727  )
        79        S      tau(  79) = (   0.5000004   0.0000005  -0.3584711  )
        80        S      tau(  80) = (   0.6249569   0.0721720   0.1241430  )
        81        S      tau(  81) = (   0.5006050   0.1436236   0.6059489  )
        82        Mo     tau(  82) = (   0.5006857   0.4329470   0.4824369  )
        83        Mo     tau(  83) = (   0.5000001   0.2886759  -0.4825273  )
        84        Mo     tau(  84) = (   0.3749597   0.3608609  -0.0000517  )
        85        S      tau(  85) = (   0.3750001   0.2165071  -0.6064556  )
        86        S      tau(  86) = (   0.4999928   0.2887170  -0.1241435  )
        87        S      tau(  87) = (   0.3733222   0.3618437   0.3607838  )
        88        S      tau(  88) = (   0.3750002   0.2165070  -0.3584711  )
        89        S      tau(  89) = (   0.4999211   0.2887076   0.1241935  )
        90        S      tau(  90) = (   0.3816191   0.3573238   0.6109900  )
        91        Mo     tau(  91) = (   0.3756235   0.6503811   0.4821918  )
        92        Mo     tau(  92) = (   0.3749998   0.5051824  -0.4825273  )
        93        Mo     tau(  93) = (   0.2499864   0.5773188  -0.0000834  )
        94        S      tau(  94) = (   0.2499998   0.4330136  -0.6064556  )
        95        S      tau(  95) = (   0.3749642   0.5051523  -0.1241979  )
        96        S      tau(  96) = (   0.2498138   0.5757592   0.3610614  )
        97        S      tau(  97) = (   0.2499999   0.4330135  -0.3584711  )
        98        S      tau(  98) = (   0.3750061   0.5052047   0.1241511  )
        99        S      tau(  99) = (   0.2502814   0.5855194   0.6099661  )
       100        Mo     tau( 100) = (   0.7499287   0.0002139   0.4807633  )
       101        Mo     tau( 101) = (   0.2499996   0.7216889  -0.4825273  )
       102        Mo     tau( 102) = (   0.1249938   0.7938245  -0.0000338  )
       103        S      tau( 103) = (   0.1249996   0.6495201  -0.6064556  )
       104        S      tau( 104) = (   0.2499613   0.7216724  -0.1241590  )
       105        S      tau( 105) = (   0.1248898   0.7937393   0.3567607  )
       106        S      tau( 106) = (   0.1249996   0.6495200  -0.3584711  )
       107        S      tau( 107) = (   0.2500082   0.7215902   0.1241792  )
       108        S      tau( 108) = (   0.1250505   0.7963098   0.6059971  )
       109        Mo     tau( 109) = (  -0.1255078   0.2157673   0.4820262  )
       110        Mo     tau( 110) = (   0.8750004   0.0721694  -0.4825273  )
       111        Mo     tau( 111) = (   0.7499955   0.1443569  -0.0000274  )
       112        S      tau( 112) = (   0.7500004   0.0000006  -0.6064556  )
       113        S      tau( 113) = (   0.8749777   0.0721989  -0.1241465  )
       114        S      tau( 114) = (   0.7500467   0.1447298   0.3568874  )
       115        S      tau( 115) = (   0.7500004   0.0000005  -0.3584711  )
       116        S      tau( 116) = (   0.8749903   0.0721117   0.1240970  )
       117        S      tau( 117) = (   0.7493677   0.1435906   0.6057073  )
       118        Mo     tau( 118) = (  -0.2508787   0.4328922   0.4823938  )
       119        Mo     tau( 119) = (   0.7500001   0.2886759  -0.4825273  )
       120        Mo     tau( 120) = (   0.6249968   0.3608571  -0.0000279  )
       121        S      tau( 121) = (   0.6250001   0.2165071  -0.6064556  )
       122        S      tau( 122) = (   0.7500208   0.2886896  -0.1240956  )
       123        S      tau( 123) = (   0.6248005   0.3612471   0.3574315  )
       124        S      tau( 124) = (   0.6250002   0.2165070  -0.3584711  )
       125        S      tau( 125) = (   0.7500493   0.2887427   0.1242427  )
       126        S      tau( 126) = (   0.6249033   0.3601959   0.6065890  )
       127        Mo     tau( 127) = (  -0.3750379   0.6494479   0.4815491  )
       128        Mo     tau( 128) = (   0.6249998   0.5051824  -0.4825273  )
       129        Mo     tau( 129) = (   0.4999893   0.5773309  -0.0001634  )
       130        S      tau( 130) = (   0.4999998   0.4330136  -0.6064556  )
       131        S      tau( 131) = (   0.6249961   0.5051217  -0.1242214  )
       132        S      tau( 132) = (   0.4998255   0.5770883   0.3576879  )
       133        S      tau( 133) = (   0.4999999   0.4330135  -0.3584711  )
       134        S      tau( 134) = (   0.6249981   0.5052504   0.1240736  )
       135        S      tau( 135) = (   0.5003122   0.5776902   0.6062470  )
       136        Mo     tau( 136) = (  -0.0002805  -0.0004824   0.4806096  )
       137        Mo     tau( 137) = (   0.4999996   0.7216889  -0.4825273  )
       138        Mo     tau( 138) = (   0.3749756   0.7938309  -0.0001159  )
       139        S      tau( 139) = (   0.3749996   0.6495201  -0.6064556  )
       140        S      tau( 140) = (   0.4999628   0.7216864  -0.1242513  )
       141        S      tau( 141) = (   0.3747357   0.7932164   0.3566619  )
       142        S      tau( 142) = (   0.3749996   0.6495200  -0.3584711  )
       143        S      tau( 143) = (   0.5000348   0.7216656   0.1240143  )
       144        S      tau( 144) = (   0.3751928   0.7949639   0.6056664  )
       145        Pd     tau( 145) = (   0.2448410   0.4348549   0.7173028  )
       146        Pd     tau( 146) = (   0.0055759   0.4353384   0.7172832  )
       147        Pt     tau( 147) = (   0.0055488   0.4353436   0.9075472  )

     --------------------------------------------
     DFT-D3 Dispersion Correction (3-body terms):
     --------------------------------------------
       Reference C6 values for interpolation: 

         atom   Coordination number   C6
         S          0.000           268.01
         S          0.995           261.99
         S          1.990           251.62
         Mo         0.000          1691.79
         Mo         1.942          1004.01
         Mo        11.056           674.22
         Pd         0.000          1217.01
         Pd         1.863           573.90
         Pd         5.710           531.75
         Pt         0.000           782.29
         Pt         1.919           692.72
         Pt         6.667           673.75

       Values used:

         atom   Coordination number  R0_AB[au]  C6      C8
         Mo        10.164            3.547    674.22  77634.20
         Mo        10.189            3.547    674.22  77634.20
         Mo        10.201            3.547    674.22  77634.20
         S          3.753            3.128    251.62  12327.25
         S          3.858            3.128    251.62  12327.25
         S          3.843            3.128    251.62  12327.25
         S          3.859            3.128    251.62  12327.25
         S          3.863            3.128    251.62  12327.25
         S          3.814            3.128    251.62  12327.25
         Mo        10.770            3.547    674.22  77634.20
         Mo        10.189            3.547    674.22  77634.20
         Mo        10.202            3.547    674.22  77634.20
         S          3.753            3.128    251.62  12327.25
         S          3.859            3.128    251.62  12327.25
         S          3.853            3.128    251.62  12327.25
         S          3.858            3.128    251.62  12327.25
         S          3.851            3.128    251.62  12327.25
         S          4.643            3.128    251.62  12327.25
         Mo        10.197            3.547    674.22  77634.20
         Mo        10.189            3.547    674.22  77634.20
         Mo        10.201            3.547    674.22  77634.20
         S          3.753            3.128    251.62  12327.25
         S          3.859            3.128    251.62  12327.25
         S          3.862            3.128    251.62  12327.25
         S          3.859            3.128    251.62  12327.25
         S          3.855            3.128    251.62  12327.25
         S          3.759            3.128    251.62  12327.25
         Mo        10.248            3.547    674.22  77634.20
         Mo        10.189            3.547    674.22  77634.20
         Mo        10.200            3.547    674.22  77634.20
         S          3.753            3.128    251.62  12327.25
         S          3.858            3.128    251.62  12327.25
         S          3.860            3.128    251.62  12327.25
         S          3.859            3.128    251.62  12327.25
         S          3.864            3.128    251.62  12327.25
         S          3.776            3.128    251.62  12327.25
         Mo        10.201            3.547    674.22  77634.20
         Mo        10.189            3.547    674.22  77634.20
         Mo        10.201            3.547    674.22  77634.20
         S          3.753            3.128    251.62  12327.25
         S          3.858            3.128    251.62  12327.25
         S          3.845            3.128    251.62  12327.25
         S          3.859            3.128    251.62  12327.25
         S          3.864            3.128    251.62  12327.25
         S          3.811            3.128    251.62  12327.25
         Mo        10.767            3.547    674.22  77634.20
         Mo        10.189            3.547    674.22  77634.20
         Mo        10.203            3.547    674.22  77634.20
         S          3.753            3.128    251.62  12327.25
         S          3.859            3.128    251.62  12327.25
         S          3.876            3.128    251.62  12327.25
         S          3.859            3.128    251.62  12327.25
         S          3.852            3.128    251.62  12327.25
         S          5.608            3.128    251.62  12327.25
         Mo        10.160            3.547    674.22  77634.20
         Mo        10.189            3.547    674.22  77634.20
         Mo        10.203            3.547    674.22  77634.20
         S          3.753            3.128    251.62  12327.25
         S          3.859            3.128    251.62  12327.25
         S          3.866            3.128    251.62  12327.25
         S          3.859            3.128    251.62  12327.25
         S          3.849            3.128    251.62  12327.25
         S          4.665            3.128    251.62  12327.25
         Mo        10.242            3.547    674.22  77634.20
         Mo        10.189            3.547    674.22  77634.20
         Mo        10.200            3.547    674.22  77634.20
         S          3.753            3.128    251.62  12327.25
         S          3.858            3.128    251.62  12327.25
         S          3.855            3.128    251.62  12327.25
         S          3.859            3.128    251.62  12327.25
         S          3.859            3.128    251.62  12327.25
         S          3.803            3.128    251.62  12327.25
         Mo        10.229            3.547    674.22  77634.20
         Mo        10.189            3.547    674.22  77634.20
         Mo        10.200            3.547    674.22  77634.20
         S          3.753            3.128    251.62  12327.25
         S          3.858            3.128    251.62  12327.25
         S          3.852            3.128    251.62  12327.25
         S          3.859            3.128    251.62  12327.25
         S          3.861            3.128    251.62  12327.25
         S          3.807            3.128    251.62  12327.25
         Mo        10.207            3.547    674.22  77634.20
         Mo        10.189            3.547    674.22  77634.20
         Mo        10.202            3.547    674.22  77634.20
         S          3.753            3.128    251.62  12327.25
         S          3.858            3.128    251.62  12327.25
         S          3.856            3.128    251.62  12327.25
         S          3.859            3.128    251.62  12327.25
         S          3.856            3.128    251.62  12327.25
         S          4.641            3.128    251.62  12327.25
         Mo        10.197            3.547    674.22  77634.20
         Mo        10.189            3.547    674.22  77634.20
         Mo        10.203            3.547    674.22  77634.20
         S          3.753            3.128    251.62  12327.25
         S          3.859            3.128    251.62  12327.25
         S          3.867            3.128    251.62  12327.25
         S          3.859            3.128    251.62  12327.25
         S          3.855            3.128    251.62  12327.25
         S          4.658            3.128    251.62  12327.25
         Mo        10.241            3.547    674.22  77634.20
         Mo        10.189            3.547    674.22  77634.20
         Mo        10.201            3.547    674.22  77634.20
         S          3.753            3.128    251.62  12327.25
         S          3.859            3.128    251.62  12327.25
         S          3.844            3.128    251.62  12327.25
         S          3.859            3.128    251.62  12327.25
         S          3.858            3.128    251.62  12327.25
         S          3.832            3.128    251.62  12327.25
         Mo        10.201            3.547    674.22  77634.20
         Mo        10.189            3.547    674.22  77634.20
         Mo        10.200            3.547    674.22  77634.20
         S          3.753            3.128    251.62  12327.25
         S          3.859            3.128    251.62  12327.25
         S          3.851            3.128    251.62  12327.25
         S          3.859            3.128    251.62  12327.25
         S          3.863            3.128    251.62  12327.25
         S          3.810            3.128    251.62  12327.25
         Mo        10.207            3.547    674.22  77634.20
         Mo        10.189            3.547    674.22  77634.20
         Mo        10.201            3.547    674.22  77634.20
         S          3.753            3.128    251.62  12327.25
         S          3.859            3.128    251.62  12327.25
         S          3.847            3.128    251.62  12327.25
         S          3.858            3.128    251.62  12327.25
         S          3.856            3.128    251.62  12327.25
         S          3.821            3.128    251.62  12327.25
         Mo        10.224            3.547    674.22  77634.20
         Mo        10.189            3.547    674.22  77634.20
         Mo        10.201            3.547    674.22  77634.20
         S          3.753            3.128    251.62  12327.25
         S          3.859            3.128    251.62  12327.25
         S          3.863            3.128    251.62  12327.25
         S          3.859            3.128    251.62  12327.25
         S          3.861            3.128    251.62  12327.25
         S          3.757            3.128    251.62  12327.25
         Mo        10.248            3.547    674.22  77634.20
         Mo        10.189            3.547    674.22  77634.20
         Mo        10.200            3.547    674.22  77634.20
         S          3.753            3.128    251.62  12327.25
         S          3.858            3.128    251.62  12327.25
         S          3.854            3.128    251.62  12327.25
         S          3.859            3.128    251.62  12327.25
         S          3.864            3.128    251.62  12327.25
         S          3.804            3.128    251.62  12327.25
         Pd         4.057            3.168    531.76  48721.62
         Pd         5.007            3.168    531.75  48720.73
         Pt         1.023            3.168    716.10  74466.39

         Molecular C6 ( Ry / a.u.^6 ) =   8065468.70


     number of k points=     4  Gaussian smearing, width (Ry)=  0.0100
                       cart. coord. in units 2pi/alat
        k(    1) = (   0.0000000   0.0000000   0.0000000), wk =   0.5000000
        k(    2) = (   0.0000000  -0.5773499   0.0000000), wk =   0.5000000
        k(    3) = (  -0.5000000  -0.2886755   0.0000000), wk =   0.5000000
        k(    4) = (  -0.5000000  -0.8660254   0.0000000), wk =   0.5000000

     Dense  grid:  5955087 G-vectors     FFT dimensions: ( 180, 180, 432)

     Smooth grid:  2572543 G-vectors     FFT dimensions: ( 135, 135, 320)

     Estimated max dynamical RAM per process >       3.08 GB

     Estimated total dynamical RAM >     110.88 GB

     Atomic positions and unit cell read from directory:
     ./outdir/pwscf.save/
     Atomic positions from file used, from input discarded
 

     The initial density is read from file :
     ./outdir/pwscf.save/charge-density


     negative rho (up, down):  9.051E-04 0.000E+00
     Cannot read wfcs: file not found
     Starting wfcs are  901 randomized atomic wfcs
     Checking if some PAW data can be deallocated... 

     total cpu time spent up to now is       99.9 secs

     Self-consistent Calculation

     iteration #  1     ecut=    77.00 Ry     beta= 0.20
     Davidson diagonalization with overlap
     c_bands:  6 eigenvalues not converged
     c_bands:  2 eigenvalues not converged
     c_bands:  7 eigenvalues not converged
     ethr =  1.00E-05,  avg # of iterations =113.8

     negative rho (up, down):  8.505E-04 0.000E+00

     total cpu time spent up to now is     5549.1 secs

     total energy              =  -26543.74890805 Ry
     estimated scf accuracy    <       1.33787255 Ry

     iteration #  2     ecut=    77.00 Ry     beta= 0.20
     Davidson diagonalization with overlap
     ethr =  1.02E-04,  avg # of iterations = 10.2

     negative rho (up, down):  8.225E-04 0.000E+00

     total cpu time spent up to now is     5793.3 secs

     total energy              =  -26543.74300277 Ry
     estimated scf accuracy    <       0.72843616 Ry

     iteration #  3     ecut=    77.00 Ry     beta= 0.20
     Davidson diagonalization with overlap
     ethr =  5.54E-05,  avg # of iterations =  4.5

     negative rho (up, down):  7.902E-04 0.000E+00

     total cpu time spent up to now is     6020.9 secs

     total energy              =  -26543.70324393 Ry
     estimated scf accuracy    <       0.34008257 Ry

     iteration #  4     ecut=    77.00 Ry     beta= 0.20
     Davidson diagonalization with overlap
     ethr =  2.58E-05,  avg # of iterations = 14.5

     negative rho (up, down):  7.678E-04 0.000E+00

     total cpu time spent up to now is     6281.9 secs

     total energy              =  -26543.68099315 Ry
     estimated scf accuracy    <       0.66553282 Ry

     iteration #  5     ecut=    77.00 Ry     beta= 0.20
     Davidson diagonalization with overlap
     ethr =  2.58E-05,  avg # of iterations =  7.0

     negative rho (up, down):  7.622E-04 0.000E+00

     total cpu time spent up to now is     6516.5 secs

     total energy              =  -26543.72967463 Ry
     estimated scf accuracy    <       0.08498263 Ry

     iteration #  6     ecut=    77.00 Ry     beta= 0.20
     Davidson diagonalization with overlap
     c_bands:  1 eigenvalues not converged
     ethr =  6.46E-06,  avg # of iterations = 15.0

     negative rho (up, down):  7.643E-04 0.000E+00

     total cpu time spent up to now is     6780.5 secs

     total energy              =  -26543.72512428 Ry
     estimated scf accuracy    <       0.04522440 Ry

     iteration #  7     ecut=    77.00 Ry     beta= 0.20
     Davidson diagonalization with overlap
     c_bands:  1 eigenvalues not converged
     ethr =  3.44E-06,  avg # of iterations = 13.8

     negative rho (up, down):  7.610E-04 0.000E+00

     total cpu time spent up to now is     7042.4 secs

     total energy              =  -26543.72768126 Ry
     estimated scf accuracy    <       0.02629446 Ry

     iteration #  8     ecut=    77.00 Ry     beta= 0.20
     Davidson diagonalization with overlap
     c_bands:  1 eigenvalues not converged
     ethr =  2.00E-06,  avg # of iterations = 12.2

     negative rho (up, down):  7.651E-04 0.000E+00

     total cpu time spent up to now is     7302.7 secs

     total energy              =  -26543.73038155 Ry
     estimated scf accuracy    <       0.00423778 Ry

     iteration #  9     ecut=    77.00 Ry     beta= 0.20
     Davidson diagonalization with overlap
     c_bands:  1 eigenvalues not converged
     c_bands:  4 eigenvalues not converged
     ethr =  3.22E-07,  avg # of iterations = 19.2

     negative rho (up, down):  7.680E-04 0.000E+00

     total cpu time spent up to now is     7830.5 secs

     total energy              =  -26543.73761193 Ry
     estimated scf accuracy    <       0.00502258 Ry

     iteration # 10     ecut=    77.00 Ry     beta= 0.20
     Davidson diagonalization with overlap
     ethr =  3.22E-07,  avg # of iterations =  3.8

     negative rho (up, down):  8.138E-04 0.000E+00

     total cpu time spent up to now is     8046.4 secs

     total energy              =  -26543.73644697 Ry
     estimated scf accuracy    <       0.00453444 Ry

     iteration # 11     ecut=    77.00 Ry     beta= 0.20
     Davidson diagonalization with overlap
     ethr =  3.22E-07,  avg # of iterations =  5.0

     negative rho (up, down):  8.590E-04 0.000E+00

     total cpu time spent up to now is     8273.7 secs

     total energy              =  -26543.73629274 Ry
     estimated scf accuracy    <       0.00083800 Ry

     iteration # 12     ecut=    77.00 Ry     beta= 0.20
     Davidson diagonalization with overlap
     c_bands:  1 eigenvalues not converged
     ethr =  6.37E-08,  avg # of iterations = 16.0

     negative rho (up, down):  8.598E-04 0.000E+00

     total cpu time spent up to now is     8725.2 secs

     total energy              =  -26543.73704106 Ry
     estimated scf accuracy    <       0.00041430 Ry

     iteration # 13     ecut=    77.00 Ry     beta= 0.20
     Davidson diagonalization with overlap
     c_bands:  1 eigenvalues not converged
     ethr =  3.15E-08,  avg # of iterations = 11.8

     negative rho (up, down):  8.688E-04 0.000E+00

     total cpu time spent up to now is     8990.9 secs

     total energy              =  -26543.73706274 Ry
     estimated scf accuracy    <       0.00016427 Ry

     iteration # 14     ecut=    77.00 Ry     beta= 0.20
     Davidson diagonalization with overlap
     c_bands:  2 eigenvalues not converged
     ethr =  1.25E-08,  avg # of iterations = 16.2

     negative rho (up, down):  8.822E-04 0.000E+00

     total cpu time spent up to now is     9424.9 secs

     total energy              =  -26543.73715696 Ry
     estimated scf accuracy    <       0.00006769 Ry

     iteration # 15     ecut=    77.00 Ry     beta= 0.20
     Davidson diagonalization with overlap
     ethr =  5.14E-09,  avg # of iterations = 13.2

     negative rho (up, down):  8.901E-04 0.000E+00

     total cpu time spent up to now is     9832.6 secs

     total energy              =  -26543.73719378 Ry
     estimated scf accuracy    <       0.00003339 Ry

     iteration # 16     ecut=    77.00 Ry     beta= 0.20
     Davidson diagonalization with overlap
     ethr =  2.54E-09,  avg # of iterations = 12.2

     negative rho (up, down):  8.984E-04 0.000E+00

     total cpu time spent up to now is    10124.9 secs

     total energy              =  -26543.73719555 Ry
     estimated scf accuracy    <       0.00000818 Ry

     iteration # 17     ecut=    77.00 Ry     beta= 0.20
     Davidson diagonalization with overlap
     c_bands:  1 eigenvalues not converged
     ethr =  6.22E-10,  avg # of iterations = 17.5

     negative rho (up, down):  9.001E-04 0.000E+00

     total cpu time spent up to now is    10680.7 secs

     total energy              =  -26543.73720711 Ry
     estimated scf accuracy    <       0.00000316 Ry

     iteration # 18     ecut=    77.00 Ry     beta= 0.20
     Davidson diagonalization with overlap
     ethr =  2.40E-10,  avg # of iterations = 12.5

     negative rho (up, down):  9.022E-04 0.000E+00

     total cpu time spent up to now is    11009.5 secs

     total energy              =  -26543.73720700 Ry
     estimated scf accuracy    <       0.00000157 Ry

     iteration # 19     ecut=    77.00 Ry     beta= 0.20
     Davidson diagonalization with overlap
     ethr =  1.19E-10,  avg # of iterations = 10.0

     negative rho (up, down):  9.052E-04 0.000E+00

     total cpu time spent up to now is    11353.5 secs

     End of self-consistent calculation

          k = 0.0000 0.0000 0.0000 (321495 PWs)   bands (ev):

  -101.1758 -89.3533 -89.3488 -69.6117 -69.6107 -69.5407 -69.5381 -69.5135
   -69.5041 -69.5020 -66.8873 -66.8662 -66.8662 -66.8662 -66.8662 -66.8662
   -66.8661 -66.8450 -66.8450 -66.8450 -66.8450 -66.8450 -66.8450 -66.8450
   -66.8449 -66.8449 -66.8216 -66.8010 -66.8008 -66.8008 -66.8002 -66.8001
   -66.8001 -66.7799 -66.7798 -66.7797 -66.7796 -66.7795 -66.7793 -66.7789
   -66.7788 -66.7782 -66.7745 -66.7473 -66.7358 -66.7352 -66.7340 -66.7278
   -66.7239 -66.7198 -66.7166 -66.7149 -66.7128 -66.6957 -66.6925 -66.6892
   -66.6846 -66.6748 -55.6948 -55.4347 -55.2136 -55.1974 -55.1814 -55.1624
   -55.0832 -54.8889 -54.8799 -41.2137 -41.2137 -41.2137 -41.1470 -41.1468
   -41.1466 -41.1389 -41.1389 -41.1389 -41.1389 -41.1389 -41.1389 -41.0788
   -41.0764 -41.0724 -41.0723 -41.0722 -41.0719 -41.0719 -41.0718 -41.0700
   -41.0473 -41.0133 -41.0133 -41.0133 -41.0133 -41.0133 -41.0133 -41.0076
   -41.0059 -41.0059 -41.0059 -41.0059 -41.0059 -41.0059 -41.0039 -40.9957
   -40.9933 -40.9881 -40.9826 -40.9821 -40.9785 -40.9785 -40.9784 -40.9784
   -40.9784 -40.9784 -40.9642 -40.9642 -40.9642 -40.9642 -40.9642 -40.9642
   -40.9642 -40.9641 -40.9641 -40.9469 -40.9468 -40.9468 -40.9465 -40.9464
   -40.9464 -40.9454 -40.9412 -40.9411 -40.9410 -40.9405 -40.9405 -40.9404
   -40.9159 -40.9121 -40.9120 -40.9120 -40.9117 -40.9116 -40.9116 -40.9101
   -40.9007 -40.9007 -40.9006 -40.8996 -40.8996 -40.8995 -40.8994 -40.8994
   -40.8994 -40.8990 -40.8988 -40.8987 -40.8981 -40.8862 -40.8801 -40.8785
   -40.8770 -40.8702 -40.8693 -40.8679 -40.8657 -40.8599 -40.8539 -40.8539
   -40.8538 -40.8538 -40.8538 -40.8538 -40.8538 -40.8533 -40.8443 -40.8426
   -40.8418 -40.8377 -40.8352 -40.8342 -40.8341 -40.8340 -40.8295 -40.8277
   -40.8265 -40.8247 -40.8221 -40.8181 -40.8177 -40.8118 -40.8066 -40.8065
   -40.7877 -40.7876 -40.7875 -40.7871 -40.7871 -40.7870 -40.7637 -40.7564
   -40.7533 -40.7401 -40.7401 -40.7169 -40.7165 -40.7098 -40.7081 -40.7005
   -40.6929 -40.6600 -40.6524 -20.3307 -20.2610 -20.1236 -19.7320 -19.4596
   -19.4548 -19.4539 -19.4531 -19.4520 -19.4455 -19.3945 -19.3695 -19.3507
   -19.3445 -19.3357 -19.2994 -19.2718 -19.2598 -19.2379 -19.2267 -19.2073
   -19.0737 -18.9349 -18.8538 -18.7159 -18.7021 -18.6841 -18.6646 -18.6598
   -18.6542 -18.6288 -18.5753 -18.5589 -18.5325 -18.5299 -18.4992 -18.4681
   -18.4256 -18.4088 -18.4044 -18.3970 -18.3606 -18.3498 -18.3477 -18.3474
   -18.3473 -18.3468 -18.3467 -18.3448 -18.3351 -18.3070 -18.3067 -18.3066
   -18.2720 -18.2709 -18.2674 -18.2651 -18.2604 -18.2586 -18.2415 -18.2349
   -18.2328 -18.2212 -18.1969 -18.1808 -18.1756 -18.1666 -18.1651 -18.1612
   -18.1511 -18.1457 -18.1452 -18.1346 -18.1217 -18.1204 -18.1169 -18.1160
   -18.1128 -18.0940 -18.0851 -18.0817 -18.0727 -18.0608 -18.0508 -18.0488
   -18.0438 -18.0429 -18.0250 -18.0192 -18.0126 -18.0011 -17.9785 -17.9713
   -17.9656 -17.9615 -17.9584 -12.1753 -12.1606 -12.0504 -11.9711 -11.9605
   -11.9601 -11.9359 -11.8812 -11.8757 -11.8629 -11.8375 -11.6043 -11.4936
   -11.4324 -11.4226 -11.4123 -11.4101 -11.4074 -11.3904 -11.3616 -11.3586
   -11.3387 -11.3354 -11.3347 -11.3303 -11.3260 -11.3088 -11.2652 -11.2572
   -11.2275 -11.2055 -11.1966 -11.1831 -11.1818 -11.1689 -11.1556 -11.1337
   -11.1271 -11.1207 -11.1154 -11.1136 -11.1059 -11.0769 -11.0742 -11.0601
   -11.0432 -11.0427 -11.0391 -11.0373 -11.0372 -11.0347 -11.0237 -11.0225
   -11.0143 -11.0086 -11.0081 -11.0006 -10.9915 -10.9907 -10.9869 -10.9815
   -10.9776 -10.9749 -10.9644 -10.9309 -10.9282 -10.9183 -10.8924 -10.8755
   -10.8489 -10.8300 -10.8231 -10.8059 -10.8014 -10.7972 -10.6480 -10.4367
   -10.3932 -10.2596 -10.2544 -10.2520 -10.1896 -10.1032 -10.0879 -10.0828
   -10.0301  -9.9938  -9.9877  -9.9807  -9.9799  -9.9758  -9.9457  -9.9380
    -9.9276  -9.9158  -9.9006  -9.8934  -9.8842  -9.8818  -9.8632  -9.8547
    -9.8333  -9.8276  -9.8263  -9.8210  -9.8193  -9.8066  -9.7836  -9.7831
    -9.7819  -9.7812  -9.7791  -9.7782  -9.7734  -9.7713  -9.7504  -9.7371
    -9.7238  -9.7186  -9.7084  -9.6721  -9.6622  -9.6484  -9.6415  -9.6396
    -9.6345  -9.6046  -9.5663  -9.5489  -9.5381  -9.5372  -9.5276  -9.5177
    -9.5021  -9.4900  -9.4603  -9.4509  -9.4213  -9.4132  -9.4061  -9.3978
    -9.3927  -9.3847  -9.3783  -9.3190  -9.3027  -9.2905  -9.2468  -9.2424
    -9.2258  -9.2254  -9.2253  -9.2233  -9.2196  -9.2156  -9.1986  -9.1650
    -9.1478  -9.1464  -9.1450  -9.1352  -9.0889  -9.0819  -9.0595  -9.0519
    -9.0245  -9.0147  -9.0122  -9.0053  -9.0017  -9.0011  -8.9964  -8.9911
    -8.9676  -8.9613  -8.9518  -8.9469  -8.9463  -8.9262  -8.9239  -8.9219
    -8.9035  -8.9023  -8.8643  -8.6928  -8.6527  -8.6364  -8.6364  -8.5641
    -8.5640  -8.5573  -8.5314  -8.5250  -8.5244  -8.5243  -8.5242  -8.5241
    -8.5239  -8.5097  -8.4798  -8.4731  -8.4548  -8.4518  -8.4490  -8.4471
    -8.4458  -8.4453  -8.4082  -8.3799  -8.3630  -8.2840  -8.2038  -8.1788
    -8.1618  -8.1246  -8.1200  -8.0763  -8.0054  -7.9085  -7.9002  -7.8992
    -7.8548  -7.7902  -7.7890  -7.7889  -7.7888  -7.7887  -7.7886  -7.7783
    -7.7443  -7.7430  -7.7428  -7.7425  -7.7423  -7.7422  -7.7348  -7.7269
    -7.7165  -7.7159  -7.7125  -7.7110  -7.7087  -7.7010  -7.6998  -7.6855
    -7.6783  -7.6724  -7.6703  -7.6685  -7.6666  -7.6613  -7.6589  -7.6418
    -7.6403  -7.6275  -7.6230  -7.6208  -7.6187  -7.6187  -7.5989  -7.5926
    -7.5705  -7.5241  -7.5076  -7.5075  -7.4874  -7.4835  -7.4689  -7.4383
    -7.4379  -7.4140  -7.4120  -7.3836  -7.3746  -7.3529  -7.3039  -7.2423
    -7.2354  -7.2234  -7.1226  -7.1103  -7.0867  -7.0607  -7.0414  -7.0172
    -7.0127  -7.0073  -7.0058  -6.9671  -6.9374  -6.9011  -6.8976  -6.8738
    -6.8379  -6.8348  -6.8266  -6.8229  -6.8151  -6.8137  -6.8046  -6.7927
    -6.7486  -6.7412  -6.7315  -6.7264  -6.7226  -6.7126  -6.7101  -6.7045
    -6.6901  -6.6730  -6.6665  -6.6523  -6.6449  -6.6333  -6.6289  -6.6270
    -6.6228  -6.5749  -6.5608  -6.5558  -6.5555  -6.5555  -6.5555  -6.5555
    -6.5554  -6.5548  -6.5364  -6.4922  -6.4800  -6.4791  -6.4785  -6.4781
    -6.4776  -6.4699  -6.4395  -6.4230  -6.4076  -6.4030  -6.3782  -6.2763
    -6.1359  -6.0660  -5.8533  -5.7548  -5.4654  -5.4275  -5.2765  -5.1151
    -5.0670  -5.0339  -4.7978  -4.0470  -4.0459  -4.0401  -4.0382  -4.0360
    -4.0250  -4.0099  -4.0084  -4.0078  -4.0051  -4.0049  -3.9975  -3.8430
    -3.8149  -3.8066  -3.8048  -3.7943  -3.7860  -3.7823  -3.7761  -3.7744
    -3.7703  -3.7666  -3.7242  -3.6961  -3.6961  -3.6961  -3.6847  -3.6795
    -3.6782  -3.6776  -3.6772  -3.6767  -3.6320  -3.6293  -3.6289  -3.6231
    -3.5937  -3.5884  -3.5855  -3.5807  -3.5794  -3.5752  -3.5726  -3.5645
    -3.5642  -3.5594  -3.5589  -3.5476  -3.5431  -3.5283  -3.5066  -3.4945
    -3.4739  -3.4662  -3.4641  -3.4567  -3.4492  -3.4351  -3.4225  -3.4208
    -3.4137  -3.3837  -3.2311  -3.2306  -3.2303  -3.2254  -3.2248  -3.1615
    -3.1591  -3.1588  -3.1587  -3.1586  -3.1585  -3.1584  -3.1577  -3.1432
    -3.1415  -3.1396  -3.1365  -3.1310  -3.1223  -3.1182  -3.1011  -3.0950
    -3.0939  -3.0922  -3.0904  -3.0866  -3.0859  -3.0844  -3.0774  -3.0752
    -3.0647  -3.0584  -3.0491  -3.0177  -3.0062  -3.0002  -2.9884  -2.9764
    -2.9714  -2.9703  -2.9686  -2.9529  -2.9516  -2.9497  -2.9485  -2.9453
    -2.9405  -2.9027  -2.8973  -2.8788  -2.8649  -2.8585  -2.8383  -2.8335
    -2.8181  -2.8144  -2.8039  -2.7784  -2.7779  -2.7766  -2.7753  -2.7729
    -2.7717  -2.7042  -2.6984  -2.6903  -2.6823  -2.6676

          k = 0.0000-0.5773 0.0000 (321564 PWs)   bands (ev):

  -101.1758 -89.3533 -89.3488 -69.6117 -69.6107 -69.5407 -69.5381 -69.5135
   -69.5041 -69.5020 -66.8811 -66.8811 -66.8705 -66.8705 -66.8556 -66.8556
   -66.8556 -66.8556 -66.8512 -66.8512 -66.8450 -66.8450 -66.8450 -66.8450
   -66.8406 -66.8406 -66.8158 -66.8151 -66.8050 -66.8048 -66.7903 -66.7901
   -66.7896 -66.7896 -66.7859 -66.7851 -66.7798 -66.7796 -66.7796 -66.7783
   -66.7749 -66.7748 -66.7743 -66.7459 -66.7402 -66.7363 -66.7325 -66.7253
   -66.7223 -66.7192 -66.7175 -66.7155 -66.7130 -66.6955 -66.6929 -66.6896
   -66.6842 -66.6748 -55.6948 -55.4347 -55.2136 -55.1974 -55.1814 -55.1624
   -55.0832 -54.8889 -54.8799 -41.1823 -41.1823 -41.1822 -41.1822 -41.1556
   -41.1556 -41.1437 -41.1437 -41.1158 -41.1157 -41.1155 -41.1147 -41.0933
   -41.0933 -41.0933 -41.0933 -41.0891 -41.0885 -41.0769 -41.0768 -41.0625
   -41.0546 -41.0352 -41.0352 -41.0318 -41.0266 -41.0265 -41.0265 -41.0264
   -41.0253 -41.0253 -41.0230 -41.0181 -41.0145 -41.0145 -41.0080 -41.0006
   -40.9983 -40.9851 -40.9851 -40.9851 -40.9851 -40.9764 -40.9764 -40.9704
   -40.9697 -40.9643 -40.9643 -40.9642 -40.9642 -40.9642 -40.9642 -40.9587
   -40.9587 -40.9577 -40.9556 -40.9556 -40.9539 -40.9494 -40.9493 -40.9482
   -40.9435 -40.9411 -40.9336 -40.9336 -40.9336 -40.9335 -40.9204 -40.9202
   -40.9197 -40.9197 -40.9172 -40.9117 -40.9110 -40.9106 -40.8995 -40.8994
   -40.8994 -40.8991 -40.8991 -40.8991 -40.8990 -40.8981 -40.8977 -40.8977
   -40.8960 -40.8905 -40.8904 -40.8870 -40.8870 -40.8842 -40.8839 -40.8762
   -40.8715 -40.8678 -40.8678 -40.8675 -40.8673 -40.8669 -40.8662 -40.8590
   -40.8532 -40.8509 -40.8509 -40.8498 -40.8464 -40.8365 -40.8333 -40.8326
   -40.8325 -40.8325 -40.8325 -40.8324 -40.8301 -40.8244 -40.8208 -40.8205
   -40.8204 -40.8201 -40.8157 -40.8155 -40.8117 -40.8055 -40.8017 -40.8008
   -40.7984 -40.7844 -40.7844 -40.7821 -40.7742 -40.7599 -40.7580 -40.7564
   -40.7544 -40.7536 -40.7499 -40.7472 -40.7324 -40.7294 -40.7132 -40.7034
   -40.7018 -40.6805 -40.6578 -20.1594 -20.0829 -20.0653 -19.9653 -19.9066
   -19.8391 -19.6673 -19.6505 -19.6204 -19.5586 -19.4811 -19.4439 -19.2151
   -18.9695 -18.9542 -18.9446 -18.9404 -18.9395 -18.9362 -18.8959 -18.8542
   -18.8513 -18.8350 -18.8066 -18.7974 -18.7941 -18.7686 -18.7461 -18.7379
   -18.7372 -18.6932 -18.6915 -18.6605 -18.6407 -18.6186 -18.6111 -18.6010
   -18.5920 -18.5610 -18.5204 -18.4917 -18.4781 -18.4446 -18.4289 -18.4181
   -18.4165 -18.3866 -18.3537 -18.3341 -18.3277 -18.3274 -18.3272 -18.3270
   -18.3160 -18.3079 -18.2984 -18.2787 -18.2549 -18.2535 -18.2518 -18.2463
   -18.2449 -18.2354 -18.2111 -18.2071 -18.1903 -18.1837 -18.1753 -18.1732
   -18.1655 -18.1499 -18.1367 -18.1364 -18.1255 -18.1193 -18.1065 -18.0888
   -18.0710 -18.0638 -18.0638 -18.0618 -18.0550 -18.0222 -18.0041 -18.0038
   -18.0027 -17.9899 -17.9878 -17.9874 -17.9768 -17.9504 -17.9488 -17.9395
   -17.9358 -17.8912 -17.8790 -12.0701 -12.0332 -11.8748 -11.8488 -11.6935
   -11.6767 -11.6749 -11.6734 -11.6714 -11.6592 -11.6466 -11.6288 -11.5935
   -11.5913 -11.5750 -11.5731 -11.5415 -11.5373 -11.5080 -11.5045 -11.4908
   -11.4897 -11.4818 -11.4713 -11.4566 -11.4565 -11.4359 -11.4118 -11.4109
   -11.4074 -11.3738 -11.3540 -11.3505 -11.3498 -11.3096 -11.2261 -11.1915
   -11.1901 -11.1722 -11.1576 -11.1333 -11.1318 -11.1113 -11.1092 -11.1018
   -11.0973 -11.0738 -11.0473 -11.0440 -11.0401 -11.0319 -11.0300 -11.0297
   -11.0282 -11.0278 -11.0254 -10.9993 -10.9765 -10.9714 -10.9652 -10.9575
   -10.9537 -10.9305 -10.8976 -10.8450 -10.7743 -10.7658 -10.7228 -10.6899
   -10.6731 -10.6047 -10.5741 -10.5450 -10.4359 -10.3347 -10.3279 -10.3271
   -10.3106 -10.2967 -10.2654 -10.2588 -10.2340 -10.2294 -10.1863 -10.1691
   -10.1505 -10.1393 -10.1344 -10.1288 -10.1251 -10.1176 -10.0978 -10.0973
   -10.0912 -10.0820 -10.0683 -10.0142  -9.9946  -9.9804  -9.9761  -9.9513
    -9.9458  -9.9278  -9.9174  -9.9140  -9.9112  -9.9011  -9.8955  -9.8601
    -9.8566  -9.8466  -9.8415  -9.8295  -9.8134  -9.8089  -9.7922  -9.7863
    -9.7380  -9.7288  -9.7276  -9.7050  -9.6849  -9.6690  -9.6684  -9.6449
    -9.6219  -9.5284  -9.5276  -9.4851  -9.4675  -9.4233  -9.4082  -9.3950
    -9.3914  -9.3627  -9.3446  -9.3321  -9.3316  -9.3278  -9.3265  -9.3003
    -9.2959  -9.2945  -9.2732  -9.2432  -9.2305  -9.2261  -9.2165  -9.1893
    -9.1865  -9.1788  -9.1640  -9.1572  -9.1500  -9.1426  -9.1405  -9.1340
    -9.1305  -9.1255  -9.1143  -9.1007  -9.0891  -9.0770  -9.0688  -9.0575
    -9.0551  -9.0523  -9.0513  -9.0391  -9.0387  -9.0244  -9.0234  -9.0076
    -9.0043  -8.9894  -8.9757  -8.9689  -8.9617  -8.9461  -8.9331  -8.9203
    -8.9031  -8.8490  -8.7460  -8.7329  -8.7109  -8.7097  -8.6454  -8.6277
    -8.6189  -8.6015  -8.5497  -8.5030  -8.4215  -8.4177  -8.3928  -8.3928
    -8.3631  -8.3214  -8.3203  -8.2909  -8.2758  -8.2499  -8.2099  -8.1532
    -8.1324  -8.1305  -8.1263  -8.0716  -8.0643  -8.0597  -8.0508  -8.0468
    -8.0464  -8.0461  -8.0461  -8.0344  -8.0294  -8.0212  -8.0007  -7.9997
    -7.9996  -7.9979  -7.9765  -7.9760  -7.9673  -7.9596  -7.9574  -7.9541
    -7.9351  -7.9301  -7.9263  -7.9211  -7.9185  -7.9131  -7.8988  -7.8902
    -7.8870  -7.8805  -7.8616  -7.8611  -7.8609  -7.8578  -7.8455  -7.8279
    -7.8224  -7.8128  -7.8117  -7.7912  -7.7885  -7.7857  -7.7680  -7.7435
    -7.7338  -7.7308  -7.7113  -7.6632  -7.6548  -7.6252  -7.5812  -7.5503
    -7.5430  -7.4721  -7.4611  -7.4375  -7.4276  -7.4102  -7.3878  -7.3646
    -7.3333  -7.3134  -7.2861  -7.2571  -7.2394  -7.2257  -7.2142  -7.2103
    -7.2038  -7.1883  -7.1575  -7.1463  -7.1379  -7.1327  -7.1129  -7.1052
    -7.0991  -7.0636  -7.0425  -7.0299  -7.0234  -6.9913  -6.9817  -6.9566
    -6.9267  -6.8969  -6.8616  -6.8580  -6.8578  -6.8578  -6.8567  -6.8496
    -6.8188  -6.7915  -6.7907  -6.7891  -6.7884  -6.7780  -6.7713  -6.7446
    -6.7185  -6.7076  -6.7021  -6.6718  -6.6327  -6.5920  -6.5784  -6.5265
    -6.5265  -6.5262  -6.5257  -6.4616  -6.4607  -6.4568  -6.4494  -6.4462
    -6.4424  -6.4269  -6.4071  -6.3943  -6.3886  -6.3660  -6.3540  -6.3502
    -6.1777  -6.1777  -6.1587  -6.1411  -6.1004  -6.1003  -6.0180  -6.0021
    -5.9635  -5.9275  -5.8247  -5.7794  -5.7525  -5.4509  -5.3047  -5.1170
    -5.0681  -5.0347  -4.7745  -4.2169  -4.2154  -4.2112  -4.2026  -4.0932
    -4.0932  -4.0772  -4.0698  -4.0287  -4.0286  -3.9800  -3.9791  -3.9721
    -3.9608  -3.9494  -3.9331  -3.8823  -3.8635  -3.8040  -3.7973  -3.7936
    -3.7925  -3.7795  -3.7788  -3.7584  -3.7506  -3.7329  -3.7117  -3.7110
    -3.6996  -3.6873  -3.6870  -3.6855  -3.6799  -3.6689  -3.6661  -3.6596
    -3.6567  -3.6296  -3.6004  -3.5720  -3.5670  -3.5561  -3.5465  -3.5460
    -3.5397  -3.5198  -3.5162  -3.5102  -3.5073  -3.4931  -3.4704  -3.4699
    -3.4694  -3.4690  -3.4554  -3.4486  -3.4471  -3.4396  -3.4312  -3.4227
    -3.4111  -3.4019  -3.3932  -3.3896  -3.3853  -3.3830  -3.3698  -3.3297
    -3.3267  -3.3157  -3.3111  -3.3077  -3.2915  -3.2670  -3.2648  -3.2336
    -3.2273  -3.2254  -3.2114  -3.2066  -3.2062  -3.2057  -3.2022  -3.1742
    -3.1630  -3.1576  -3.1571  -3.1497  -3.1330  -3.1227  -3.1219  -3.1189
    -3.1073  -3.1034  -3.0922  -3.0830  -3.0722  -3.0658  -3.0606  -3.0566
    -3.0344  -3.0328  -3.0173  -2.9988  -2.9980  -2.9937  -2.9705  -2.9275
    -2.9271  -2.8971  -2.8961  -2.8464  -2.8433  -2.8352  -2.8339  -2.8314
    -2.8282  -2.7655  -2.7596  -2.7086  -2.7008  -2.6927  -2.6918  -2.6817
    -2.6650  -2.5648  -2.5504  -2.5105  -2.4981  -2.3693

          k =-0.5000-0.2887 0.0000 (321564 PWs)   bands (ev):

  -101.1758 -89.3533 -89.3488 -69.6117 -69.6107 -69.5407 -69.5381 -69.5135
   -69.5041 -69.5020 -66.8811 -66.8811 -66.8705 -66.8705 -66.8556 -66.8556
   -66.8556 -66.8556 -66.8512 -66.8512 -66.8450 -66.8450 -66.8450 -66.8450
   -66.8406 -66.8406 -66.8155 -66.8153 -66.8049 -66.8048 -66.7901 -66.7900
   -66.7899 -66.7897 -66.7857 -66.7854 -66.7795 -66.7794 -66.7794 -66.7790
   -66.7749 -66.7748 -66.7743 -66.7473 -66.7390 -66.7361 -66.7294 -66.7284
   -66.7234 -66.7199 -66.7160 -66.7154 -66.7133 -66.6954 -66.6938 -66.6871
   -66.6859 -66.6747 -55.6948 -55.4347 -55.2136 -55.1974 -55.1814 -55.1624
   -55.0832 -54.8889 -54.8799 -41.1823 -41.1823 -41.1823 -41.1823 -41.1556
   -41.1556 -41.1437 -41.1437 -41.1155 -41.1155 -41.1154 -41.1152 -41.0933
   -41.0933 -41.0933 -41.0933 -41.0889 -41.0888 -41.0769 -41.0768 -41.0542
   -41.0503 -41.0388 -41.0352 -41.0352 -41.0337 -41.0266 -41.0265 -41.0265
   -41.0265 -41.0263 -41.0253 -41.0253 -41.0161 -41.0145 -41.0145 -40.9971
   -40.9851 -40.9851 -40.9851 -40.9851 -40.9821 -40.9764 -40.9764 -40.9701
   -40.9700 -40.9643 -40.9643 -40.9642 -40.9642 -40.9642 -40.9642 -40.9588
   -40.9586 -40.9556 -40.9556 -40.9549 -40.9506 -40.9494 -40.9493 -40.9474
   -40.9421 -40.9397 -40.9336 -40.9336 -40.9336 -40.9336 -40.9202 -40.9201
   -40.9199 -40.9198 -40.9164 -40.9128 -40.9114 -40.9112 -40.8993 -40.8992
   -40.8991 -40.8991 -40.8991 -40.8991 -40.8990 -40.8989 -40.8977 -40.8976
   -40.8951 -40.8905 -40.8905 -40.8874 -40.8870 -40.8870 -40.8848 -40.8765
   -40.8694 -40.8678 -40.8678 -40.8672 -40.8671 -40.8669 -40.8667 -40.8637
   -40.8552 -40.8509 -40.8509 -40.8506 -40.8415 -40.8398 -40.8353 -40.8326
   -40.8325 -40.8325 -40.8324 -40.8291 -40.8269 -40.8221 -40.8209 -40.8205
   -40.8205 -40.8205 -40.8204 -40.8173 -40.8105 -40.8031 -40.8015 -40.8011
   -40.7944 -40.7882 -40.7855 -40.7845 -40.7843 -40.7622 -40.7577 -40.7553
   -40.7541 -40.7538 -40.7485 -40.7435 -40.7299 -40.7279 -40.7147 -40.7036
   -40.6917 -40.6780 -40.6664 -20.1546 -20.0833 -20.0650 -19.9719 -19.9072
   -19.8505 -19.6613 -19.6496 -19.6137 -19.5512 -19.4799 -19.4374 -19.2286
   -18.9747 -18.9619 -18.9414 -18.9400 -18.9397 -18.9364 -18.8882 -18.8633
   -18.8540 -18.8280 -18.8081 -18.8047 -18.7864 -18.7633 -18.7483 -18.7448
   -18.7362 -18.6924 -18.6918 -18.6559 -18.6451 -18.6285 -18.6039 -18.5983
   -18.5893 -18.5735 -18.5024 -18.4915 -18.4680 -18.4465 -18.4318 -18.4215
   -18.4162 -18.3818 -18.3471 -18.3425 -18.3277 -18.3274 -18.3272 -18.3271
   -18.3187 -18.3034 -18.3012 -18.2661 -18.2610 -18.2547 -18.2505 -18.2488
   -18.2399 -18.2322 -18.2226 -18.1999 -18.1920 -18.1829 -18.1769 -18.1740
   -18.1641 -18.1430 -18.1411 -18.1371 -18.1290 -18.1200 -18.1127 -18.0810
   -18.0786 -18.0666 -18.0638 -18.0637 -18.0568 -18.0156 -18.0142 -18.0037
   -18.0034 -17.9986 -17.9873 -17.9867 -17.9749 -17.9504 -17.9448 -17.9381
   -17.9254 -17.8869 -17.8843 -12.0413 -12.0075 -11.8757 -11.8512 -11.7374
   -11.7015 -11.6753 -11.6740 -11.6708 -11.6663 -11.6489 -11.6435 -11.6101
   -11.5936 -11.5776 -11.5703 -11.5601 -11.5383 -11.5231 -11.5086 -11.4993
   -11.4818 -11.4810 -11.4566 -11.4565 -11.4501 -11.4263 -11.4108 -11.4106
   -11.3862 -11.3640 -11.3535 -11.3526 -11.3506 -11.3041 -11.2252 -11.2049
   -11.1804 -11.1735 -11.1564 -11.1530 -11.1211 -11.1121 -11.1040 -11.1022
   -11.0869 -11.0849 -11.0487 -11.0462 -11.0370 -11.0302 -11.0297 -11.0293
   -11.0244 -11.0196 -11.0168 -11.0006 -10.9852 -10.9799 -10.9680 -10.9600
   -10.9574 -10.9434 -10.9249 -10.8215 -10.7650 -10.7459 -10.6952 -10.6880
   -10.6282 -10.5832 -10.5443 -10.4989 -10.4513 -10.3959 -10.3861 -10.3242
   -10.3205 -10.3142 -10.3021 -10.2405 -10.2307 -10.2124 -10.1986 -10.1457
   -10.1411 -10.1401 -10.1358 -10.1325 -10.1231 -10.1050 -10.0972 -10.0924
   -10.0901 -10.0766 -10.0460 -10.0026  -9.9909  -9.9656  -9.9579  -9.9500
    -9.9473  -9.9300  -9.9194  -9.9118  -9.9092  -9.8980  -9.8914  -9.8670
    -9.8500  -9.8480  -9.8319  -9.8200  -9.8153  -9.8081  -9.8000  -9.7627
    -9.7425  -9.7289  -9.7280  -9.7135  -9.7084  -9.6700  -9.6692  -9.6612
    -9.6229  -9.5621  -9.5366  -9.5185  -9.5063  -9.4561  -9.4095  -9.3885
    -9.3795  -9.3648  -9.3559  -9.3424  -9.3325  -9.3277  -9.3222  -9.3102
    -9.2910  -9.2711  -9.2542  -9.2404  -9.2260  -9.2146  -9.2111  -9.1997
    -9.1824  -9.1792  -9.1725  -9.1609  -9.1568  -9.1444  -9.1397  -9.1318
    -9.1308  -9.1220  -9.1206  -9.0969  -9.0871  -9.0690  -9.0594  -9.0568
    -9.0542  -9.0472  -9.0412  -9.0391  -9.0385  -9.0300  -9.0232  -9.0189
    -9.0047  -8.9970  -8.9802  -8.9649  -8.9620  -8.9496  -8.9399  -8.9142
    -8.8966  -8.8610  -8.7721  -8.7172  -8.7116  -8.7080  -8.6466  -8.6318
    -8.6214  -8.5954  -8.5735  -8.4969  -8.4264  -8.3928  -8.3928  -8.3865
    -8.3333  -8.3213  -8.3201  -8.2911  -8.2801  -8.2680  -8.2072  -8.1871
    -8.1329  -8.1304  -8.0830  -8.0661  -8.0637  -8.0597  -8.0487  -8.0462
    -8.0461  -8.0458  -8.0407  -8.0369  -8.0244  -8.0012  -7.9999  -7.9994
    -7.9989  -7.9824  -7.9764  -7.9737  -7.9611  -7.9581  -7.9540  -7.9492
    -7.9394  -7.9336  -7.9243  -7.9225  -7.9144  -7.9070  -7.8961  -7.8884
    -7.8822  -7.8778  -7.8613  -7.8609  -7.8608  -7.8516  -7.8407  -7.8297
    -7.8247  -7.8178  -7.8050  -7.7973  -7.7912  -7.7874  -7.7658  -7.7559
    -7.7296  -7.7186  -7.6931  -7.6854  -7.6717  -7.6529  -7.5823  -7.5602
    -7.5024  -7.4762  -7.4552  -7.4382  -7.4330  -7.4247  -7.4127  -7.3444
    -7.3358  -7.3180  -7.3095  -7.2805  -7.2648  -7.2438  -7.2134  -7.2104
    -7.2064  -7.1964  -7.1660  -7.1470  -7.1317  -7.1242  -7.1140  -7.1064
    -7.0938  -7.0632  -7.0592  -7.0334  -7.0202  -7.0153  -6.9617  -6.9306
    -6.9141  -6.9005  -6.8661  -6.8579  -6.8578  -6.8578  -6.8576  -6.8260
    -6.8118  -6.8039  -6.7910  -6.7903  -6.7887  -6.7804  -6.7598  -6.7383
    -6.7144  -6.7065  -6.6880  -6.6635  -6.6321  -6.5775  -6.5276  -6.5264
    -6.5263  -6.5262  -6.5012  -6.4637  -6.4618  -6.4527  -6.4487  -6.4475
    -6.4384  -6.4305  -6.4131  -6.3972  -6.3946  -6.3684  -6.3639  -6.3271
    -6.2362  -6.1776  -6.1776  -6.1141  -6.1013  -6.0996  -6.0306  -6.0207
    -5.9704  -5.9597  -5.8442  -5.7768  -5.7164  -5.4426  -5.3040  -5.1059
    -5.0668  -5.0393  -4.7854  -4.2195  -4.2192  -4.2146  -4.2017  -4.0932
    -4.0932  -4.0762  -4.0654  -4.0290  -4.0286  -3.9889  -3.9787  -3.9769
    -3.9716  -3.9555  -3.9287  -3.8794  -3.8497  -3.7990  -3.7964  -3.7939
    -3.7933  -3.7791  -3.7789  -3.7614  -3.7484  -3.7448  -3.7155  -3.7047
    -3.6975  -3.6888  -3.6776  -3.6764  -3.6718  -3.6668  -3.6614  -3.6587
    -3.6454  -3.6272  -3.5851  -3.5750  -3.5610  -3.5543  -3.5535  -3.5469
    -3.5464  -3.5184  -3.5162  -3.5081  -3.5074  -3.4851  -3.4735  -3.4705
    -3.4698  -3.4689  -3.4681  -3.4438  -3.4420  -3.4368  -3.4319  -3.4205
    -3.4072  -3.4037  -3.3986  -3.3919  -3.3864  -3.3848  -3.3649  -3.3413
    -3.3258  -3.3200  -3.3117  -3.2972  -3.2922  -3.2671  -3.2653  -3.2284
    -3.2276  -3.2239  -3.2216  -3.2067  -3.2066  -3.2062  -3.2060  -3.1765
    -3.1644  -3.1578  -3.1566  -3.1469  -3.1427  -3.1237  -3.1193  -3.1150
    -3.1107  -3.0964  -3.0927  -3.0864  -3.0707  -3.0661  -3.0592  -3.0488
    -3.0419  -3.0183  -3.0159  -3.0024  -3.0010  -2.9995  -2.9930  -2.9285
    -2.9266  -2.8980  -2.8934  -2.8501  -2.8434  -2.8418  -2.8319  -2.8279
    -2.8222  -2.7643  -2.7597  -2.7109  -2.7029  -2.6958  -2.6851  -2.6807
    -2.6730  -2.5555  -2.5489  -2.5127  -2.5039  -2.3830

          k =-0.5000-0.8660 0.0000 (321564 PWs)   bands (ev):

  -101.1758 -89.3533 -89.3488 -69.6117 -69.6107 -69.5407 -69.5381 -69.5135
   -69.5041 -69.5020 -66.8811 -66.8811 -66.8705 -66.8705 -66.8556 -66.8556
   -66.8556 -66.8556 -66.8512 -66.8512 -66.8450 -66.8450 -66.8450 -66.8449
   -66.8406 -66.8406 -66.8155 -66.8154 -66.8049 -66.8048 -66.7901 -66.7900
   -66.7900 -66.7898 -66.7856 -66.7854 -66.7794 -66.7794 -66.7794 -66.7791
   -66.7749 -66.7748 -66.7743 -66.7473 -66.7390 -66.7360 -66.7295 -66.7285
   -66.7232 -66.7198 -66.7167 -66.7146 -66.7136 -66.6955 -66.6937 -66.6872
   -66.6859 -66.6747 -55.6948 -55.4347 -55.2136 -55.1974 -55.1814 -55.1624
   -55.0832 -54.8889 -54.8799 -41.1823 -41.1823 -41.1823 -41.1822 -41.1556
   -41.1556 -41.1437 -41.1437 -41.1155 -41.1155 -41.1154 -41.1153 -41.0933
   -41.0933 -41.0933 -41.0933 -41.0888 -41.0888 -41.0769 -41.0768 -41.0539
   -41.0497 -41.0393 -41.0352 -41.0352 -41.0341 -41.0267 -41.0266 -41.0265
   -41.0265 -41.0264 -41.0253 -41.0253 -41.0163 -41.0145 -41.0145 -40.9971
   -40.9851 -40.9851 -40.9851 -40.9851 -40.9822 -40.9764 -40.9764 -40.9701
   -40.9700 -40.9643 -40.9643 -40.9642 -40.9642 -40.9642 -40.9641 -40.9588
   -40.9586 -40.9556 -40.9556 -40.9549 -40.9503 -40.9494 -40.9493 -40.9469
   -40.9425 -40.9397 -40.9336 -40.9336 -40.9336 -40.9335 -40.9201 -40.9200
   -40.9200 -40.9198 -40.9167 -40.9125 -40.9114 -40.9113 -40.8992 -40.8992
   -40.8991 -40.8991 -40.8991 -40.8991 -40.8990 -40.8989 -40.8978 -40.8976
   -40.8951 -40.8905 -40.8904 -40.8873 -40.8870 -40.8870 -40.8846 -40.8767
   -40.8697 -40.8678 -40.8678 -40.8672 -40.8670 -40.8670 -40.8668 -40.8631
   -40.8556 -40.8509 -40.8509 -40.8508 -40.8415 -40.8398 -40.8349 -40.8326
   -40.8325 -40.8325 -40.8324 -40.8285 -40.8266 -40.8228 -40.8208 -40.8205
   -40.8205 -40.8204 -40.8204 -40.8177 -40.8104 -40.8039 -40.8014 -40.8011
   -40.7951 -40.7880 -40.7846 -40.7845 -40.7843 -40.7617 -40.7576 -40.7551
   -40.7541 -40.7539 -40.7488 -40.7439 -40.7301 -40.7282 -40.7147 -40.7026
   -40.6918 -40.6782 -40.6665 -20.1542 -20.0835 -20.0649 -19.9726 -19.9072
   -19.8511 -19.6604 -19.6496 -19.6129 -19.5515 -19.4798 -19.4375 -19.2287
   -18.9767 -18.9608 -18.9414 -18.9401 -18.9397 -18.9363 -18.8894 -18.8642
   -18.8517 -18.8283 -18.8086 -18.8041 -18.7856 -18.7644 -18.7485 -18.7444
   -18.7357 -18.6928 -18.6920 -18.6551 -18.6475 -18.6274 -18.6036 -18.5990
   -18.5893 -18.5738 -18.5013 -18.4892 -18.4700 -18.4469 -18.4318 -18.4217
   -18.4160 -18.3817 -18.3495 -18.3418 -18.3274 -18.3272 -18.3271 -18.3270
   -18.3191 -18.3039 -18.3008 -18.2651 -18.2601 -18.2536 -18.2496 -18.2481
   -18.2392 -18.2331 -18.2227 -18.2004 -18.1922 -18.1820 -18.1768 -18.1742
   -18.1636 -18.1423 -18.1401 -18.1367 -18.1292 -18.1205 -18.1110 -18.0799
   -18.0788 -18.0657 -18.0639 -18.0639 -18.0567 -18.0173 -18.0160 -18.0048
   -18.0042 -18.0000 -17.9887 -17.9880 -17.9775 -17.9522 -17.9468 -17.9382
   -17.9240 -17.8841 -17.8800 -12.0423 -12.0064 -11.8761 -11.8508 -11.7387
   -11.6995 -11.6753 -11.6738 -11.6710 -11.6661 -11.6489 -11.6433 -11.6087
   -11.5929 -11.5779 -11.5700 -11.5610 -11.5384 -11.5242 -11.5088 -11.5005
   -11.4820 -11.4810 -11.4566 -11.4566 -11.4511 -11.4265 -11.4111 -11.4104
   -11.3883 -11.3638 -11.3535 -11.3525 -11.3507 -11.3034 -11.2249 -11.2044
   -11.1808 -11.1723 -11.1569 -11.1517 -11.1229 -11.1113 -11.1047 -11.1018
   -11.0869 -11.0847 -11.0495 -11.0453 -11.0367 -11.0299 -11.0294 -11.0292
   -11.0245 -11.0189 -11.0154 -11.0001 -10.9840 -10.9769 -10.9671 -10.9601
   -10.9573 -10.9458 -10.9268 -10.8228 -10.7644 -10.7488 -10.6962 -10.6895
   -10.6243 -10.5832 -10.5453 -10.4978 -10.4517 -10.4015 -10.3827 -10.3236
   -10.3201 -10.3137 -10.3014 -10.2407 -10.2302 -10.2118 -10.1972 -10.1461
   -10.1398 -10.1372 -10.1338 -10.1322 -10.1233 -10.1081 -10.0990 -10.0954
   -10.0935 -10.0778 -10.0467 -10.0000  -9.9869  -9.9694  -9.9594  -9.9513
    -9.9463  -9.9341  -9.9208  -9.9117  -9.9078  -9.8985  -9.8907  -9.8653
    -9.8505  -9.8455  -9.8344  -9.8162  -9.8126  -9.8045  -9.7965  -9.7609
    -9.7421  -9.7294  -9.7276  -9.7136  -9.7065  -9.6708  -9.6688  -9.6623
    -9.6244  -9.5622  -9.5408  -9.5189  -9.5053  -9.4541  -9.4108  -9.3904
    -9.3811  -9.3651  -9.3570  -9.3428  -9.3328  -9.3286  -9.3227  -9.3103
    -9.2918  -9.2734  -9.2522  -9.2402  -9.2273  -9.2151  -9.2106  -9.1995
    -9.1833  -9.1804  -9.1733  -9.1607  -9.1590  -9.1449  -9.1396  -9.1321
    -9.1309  -9.1246  -9.1222  -9.0961  -9.0873  -9.0673  -9.0581  -9.0563
    -9.0524  -9.0441  -9.0403  -9.0390  -9.0378  -9.0299  -9.0234  -9.0187
    -9.0046  -8.9959  -8.9807  -8.9647  -8.9617  -8.9489  -8.9398  -8.9148
    -8.8965  -8.8604  -8.7706  -8.7164  -8.7115  -8.7069  -8.6437  -8.6320
    -8.6215  -8.5926  -8.5725  -8.4976  -8.4275  -8.3928  -8.3928  -8.3887
    -8.3347  -8.3213  -8.3202  -8.2913  -8.2796  -8.2686  -8.2076  -8.1871
    -8.1331  -8.1307  -8.0797  -8.0647  -8.0613  -8.0589  -8.0511  -8.0490
    -8.0479  -8.0461  -8.0461  -8.0426  -8.0297  -8.0010  -8.0001  -7.9995
    -7.9992  -7.9802  -7.9763  -7.9718  -7.9608  -7.9585  -7.9551  -7.9481
    -7.9381  -7.9337  -7.9250  -7.9225  -7.9162  -7.9062  -7.8937  -7.8881
    -7.8813  -7.8776  -7.8609  -7.8609  -7.8602  -7.8494  -7.8375  -7.8302
    -7.8233  -7.8156  -7.8030  -7.7962  -7.7912  -7.7865  -7.7671  -7.7556
    -7.7328  -7.7203  -7.7009  -7.6896  -7.6782  -7.6624  -7.5821  -7.5541
    -7.4922  -7.4712  -7.4535  -7.4362  -7.4306  -7.4233  -7.4128  -7.3448
    -7.3348  -7.3146  -7.3096  -7.2769  -7.2642  -7.2479  -7.2128  -7.2100
    -7.2057  -7.1985  -7.1644  -7.1449  -7.1311  -7.1242  -7.1135  -7.1063
    -7.0953  -7.0660  -7.0611  -7.0333  -7.0205  -7.0127  -6.9648  -6.9281
    -6.9152  -6.9026  -6.8654  -6.8578  -6.8578  -6.8577  -6.8576  -6.8245
    -6.8078  -6.8013  -6.7904  -6.7895  -6.7884  -6.7812  -6.7610  -6.7375
    -6.7148  -6.7081  -6.6871  -6.6646  -6.6309  -6.5794  -6.5276  -6.5263
    -6.5262  -6.5262  -6.5022  -6.4640  -6.4618  -6.4527  -6.4478  -6.4469
    -6.4392  -6.4325  -6.4182  -6.4008  -6.3974  -6.3664  -6.3657  -6.3298
    -6.2357  -6.1777  -6.1777  -6.1149  -6.1019  -6.0997  -6.0315  -6.0174
    -5.9692  -5.9589  -5.8436  -5.7742  -5.7139  -5.4423  -5.3038  -5.1059
    -5.0668  -5.0395  -4.7851  -4.2197  -4.2190  -4.2145  -4.2024  -4.0932
    -4.0932  -4.0750  -4.0647  -4.0291  -4.0286  -3.9888  -3.9780  -3.9775
    -3.9710  -3.9560  -3.9309  -3.8784  -3.8485  -3.7995  -3.7970  -3.7943
    -3.7936  -3.7792  -3.7789  -3.7613  -3.7483  -3.7449  -3.7172  -3.7055
    -3.6972  -3.6896  -3.6788  -3.6755  -3.6726  -3.6674  -3.6616  -3.6588
    -3.6456  -3.6278  -3.5837  -3.5742  -3.5616  -3.5547  -3.5516  -3.5466
    -3.5461  -3.5197  -3.5175  -3.5081  -3.5070  -3.4857  -3.4731  -3.4705
    -3.4698  -3.4689  -3.4677  -3.4448  -3.4433  -3.4384  -3.4337  -3.4195
    -3.4080  -3.4041  -3.3984  -3.3914  -3.3875  -3.3838  -3.3660  -3.3415
    -3.3265  -3.3204  -3.3110  -3.2954  -3.2919  -3.2673  -3.2659  -3.2280
    -3.2271  -3.2241  -3.2221  -3.2065  -3.2063  -3.2059  -3.2057  -3.1768
    -3.1658  -3.1576  -3.1564  -3.1450  -3.1395  -3.1221  -3.1193  -3.1138
    -3.1094  -3.0966  -3.0931  -3.0857  -3.0731  -3.0670  -3.0601  -3.0509
    -3.0402  -3.0188  -3.0161  -3.0032  -2.9982  -2.9959  -2.9932  -2.9283
    -2.9258  -2.8991  -2.8948  -2.8517  -2.8439  -2.8417  -2.8319  -2.8293
    -2.8234  -2.7659  -2.7608  -2.7094  -2.6971  -2.6925  -2.6818  -2.6752
    -2.6711  -2.5589  -2.5499  -2.5042  -2.4960  -2.1868

     the Fermi energy is    -4.8970 ev

!    total energy              =  -26543.73720567 Ry
     total all-electron energy =   -522376.333513 Ry
     estimated scf accuracy    <       0.00000050 Ry
     smearing contrib. (-TS)   =      -0.00651341 Ry
     internal energy E=F+TS    =  -26543.73069225 Ry

     The total energy is F=E-TS. E is the sum of the following terms:
     one-electron contribution =  518954.44830701 Ry
     hartree contribution      = -259630.11322486 Ry
     xc contribution           =   -1565.24857343 Ry
     ewald contribution        = -267854.70491236 Ry
     DFT-D3 Dispersion         =      -4.03774939 Ry
     one-center paw contrib.   =  -16444.07453924 Ry

     convergence has been achieved in  19 iterations

     negative rho (up, down):  9.052E-04 0.000E+00

     Forces acting on atoms (cartesian axes, Ry/au):

     atom    1 type  1   force =     0.00034403   -0.00077237   -0.00067801
     atom    2 type  1   force =     0.00002107    0.00001910    0.00189131
     atom    3 type  1   force =    -0.00003641   -0.00003843    0.00003173
     atom    4 type  2   force =     0.00003322    0.00001642   -0.00329631
     atom    5 type  2   force =    -0.00000887    0.00002069   -0.00001873
     atom    6 type  2   force =     0.00046794    0.00019173    0.00027298
     atom    7 type  2   force =     0.00001218    0.00002761    0.00148058
     atom    8 type  2   force =     0.00000288   -0.00006982    0.00003072
     atom    9 type  2   force =    -0.00005314    0.00071239   -0.00054833
     atom   10 type  1   force =     0.00089265   -0.00073106    0.00287919
     atom   11 type  1   force =     0.00002145    0.00001819    0.00189035
     atom   12 type  1   force =    -0.00001644    0.00005586   -0.00000553
     atom   13 type  2   force =     0.00003325    0.00001864   -0.00329411
     atom   14 type  2   force =     0.00001520   -0.00002669   -0.00000755
     atom   15 type  2   force =    -0.00058722   -0.00062895    0.00101821
     atom   16 type  2   force =     0.00001772    0.00002060    0.00149318
     atom   17 type  2   force =    -0.00003605    0.00004466    0.00005942
     atom   18 type  2   force =     0.00066730   -0.00015297   -0.00062791
     atom   19 type  1   force =     0.00041339   -0.00065966   -0.00035743
     atom   20 type  1   force =     0.00003133    0.00001695    0.00189774
     atom   21 type  1   force =    -0.00004571    0.00004785    0.00008007
     atom   22 type  2   force =     0.00003120    0.00001741   -0.00329898
     atom   23 type  2   force =    -0.00006647    0.00012595   -0.00001207
     atom   24 type  2   force =     0.00006520   -0.00034263    0.00005475
     atom   25 type  2   force =     0.00002402    0.00001018    0.00148118
     atom   26 type  2   force =     0.00000785    0.00001023    0.00006045
     atom   27 type  2   force =     0.00049514   -0.00030244   -0.00034696
     atom   28 type  1   force =    -0.00022935   -0.00035934   -0.00066937
     atom   29 type  1   force =     0.00003286    0.00001814    0.00190114
     atom   30 type  1   force =    -0.00007501    0.00000790    0.00003486
     atom   31 type  2   force =     0.00003031    0.00001678   -0.00329585
     atom   32 type  2   force =     0.00001360   -0.00001079   -0.00002603
     atom   33 type  2   force =    -0.00052031   -0.00011676   -0.00059067
     atom   34 type  2   force =     0.00001608    0.00001082    0.00148412
     atom   35 type  2   force =    -0.00007892    0.00009893    0.00002974
     atom   36 type  2   force =    -0.00017976    0.00046071   -0.00009470
     atom   37 type  1   force =    -0.00035626    0.00000788   -0.00052875
     atom   38 type  1   force =     0.00002931    0.00001615    0.00189527
     atom   39 type  1   force =    -0.00003551   -0.00000705    0.00010981
     atom   40 type  2   force =     0.00003102    0.00001706   -0.00329605
     atom   41 type  2   force =    -0.00000174    0.00001717    0.00012433
     atom   42 type  2   force =     0.00031974    0.00033323    0.00022667
     atom   43 type  2   force =     0.00001972    0.00002672    0.00147581
     atom   44 type  2   force =     0.00002363   -0.00000038    0.00012187
     atom   45 type  2   force =     0.00008025   -0.00009718   -0.00024882
     atom   46 type  1   force =    -0.00157043    0.00016526    0.00010663
     atom   47 type  1   force =     0.00002784    0.00002143    0.00188764
     atom   48 type  1   force =     0.00000582    0.00002890    0.00007211
     atom   49 type  2   force =     0.00003048    0.00001553   -0.00329295
     atom   50 type  2   force =     0.00001091   -0.00001926    0.00002903
     atom   51 type  2   force =     0.00059085   -0.00010809    0.00117557
     atom   52 type  2   force =     0.00001684    0.00002724    0.00148616
     atom   53 type  2   force =     0.00003446    0.00001472    0.00009763
     atom   54 type  2   force =    -0.00012896    0.00021948   -0.00223278
     atom   55 type  1   force =    -0.00002819   -0.00014754   -0.00029335
     atom   56 type  1   force =     0.00002512    0.00001584    0.00189528
     atom   57 type  1   force =    -0.00004528    0.00008552    0.00004180
     atom   58 type  2   force =     0.00003220    0.00001651   -0.00329698
     atom   59 type  2   force =    -0.00000580    0.00008888    0.00006313
     atom   60 type  2   force =     0.00024551   -0.00016823    0.00132284
     atom   61 type  2   force =     0.00002829    0.00001348    0.00146339
     atom   62 type  2   force =    -0.00002004    0.00002330    0.00009887
     atom   63 type  2   force =     0.00058924   -0.00057340   -0.00055236
     atom   64 type  1   force =    -0.00037362   -0.00033662   -0.00029660
     atom   65 type  1   force =     0.00002962    0.00001205    0.00189928
     atom   66 type  1   force =    -0.00005557    0.00003604    0.00009476
     atom   67 type  2   force =     0.00003128    0.00001731   -0.00329006
     atom   68 type  2   force =    -0.00004881    0.00010636   -0.00003100
     atom   69 type  2   force =     0.00032704   -0.00027800   -0.00046700
     atom   70 type  2   force =     0.00003087    0.00001496    0.00149228
     atom   71 type  2   force =    -0.00001134    0.00007887    0.00004059
     atom   72 type  2   force =    -0.00032888    0.00002534   -0.00043127
     atom   73 type  1   force =     0.00035917    0.00007494    0.00037362
     atom   74 type  1   force =     0.00003698    0.00001839    0.00189221
     atom   75 type  1   force =    -0.00004791    0.00003106    0.00011158
     atom   76 type  2   force =     0.00003117    0.00001797   -0.00329994
     atom   77 type  2   force =    -0.00003431    0.00004542    0.00011897
     atom   78 type  2   force =     0.00013682    0.00000864    0.00051076
     atom   79 type  2   force =     0.00003144    0.00002106    0.00148340
     atom   80 type  2   force =     0.00000075    0.00001529   -0.00009295
     atom   81 type  2   force =    -0.00009713    0.00010293   -0.00052684
     atom   82 type  1   force =    -0.00043769    0.00024405   -0.00013425
     atom   83 type  1   force =     0.00003251    0.00001760    0.00188498
     atom   84 type  1   force =    -0.00002744    0.00002757    0.00006745
     atom   85 type  2   force =     0.00003298    0.00001683   -0.00329718
     atom   86 type  2   force =     0.00004160    0.00002056    0.00005535
     atom   87 type  2   force =     0.00038932   -0.00048171   -0.00145407
     atom   88 type  2   force =     0.00002429    0.00003120    0.00148321
     atom   89 type  2   force =     0.00003255    0.00001797   -0.00004483
     atom   90 type  2   force =    -0.00030116   -0.00013475   -0.00086506
     atom   91 type  1   force =     0.00011392   -0.00046030   -0.00015126
     atom   92 type  1   force =     0.00002810    0.00001950    0.00189006
     atom   93 type  1   force =    -0.00001262    0.00003113    0.00002382
     atom   94 type  2   force =     0.00003171    0.00001793   -0.00330211
     atom   95 type  2   force =     0.00001406    0.00001501   -0.00004335
     atom   96 type  2   force =     0.00030936    0.00052702   -0.00071527
     atom   97 type  2   force =     0.00002485    0.00002361    0.00146345
     atom   98 type  2   force =     0.00000273    0.00000661    0.00002818
     atom   99 type  2   force =    -0.00025933    0.00080706   -0.00127627
     atom  100 type  1   force =     0.00011956   -0.00025467    0.00003700
     atom  101 type  1   force =     0.00003297    0.00002609    0.00189441
     atom  102 type  1   force =    -0.00003205    0.00000651    0.00003325
     atom  103 type  2   force =     0.00003095    0.00001788   -0.00329743
     atom  104 type  2   force =    -0.00004049    0.00005267   -0.00006409
     atom  105 type  2   force =    -0.00009683   -0.00030834   -0.00027445
     atom  106 type  2   force =     0.00003189    0.00001751    0.00147446
     atom  107 type  2   force =     0.00000091    0.00006997   -0.00004443
     atom  108 type  2   force =    -0.00024989   -0.00054192   -0.00030932
     atom  109 type  1   force =    -0.00024290    0.00021034   -0.00056539
     atom  110 type  1   force =     0.00002683    0.00001573    0.00189961
     atom  111 type  1   force =     0.00002487    0.00002780    0.00000646
     atom  112 type  2   force =     0.00002951    0.00001568   -0.00329480
     atom  113 type  2   force =    -0.00001650    0.00000425   -0.00006257
     atom  114 type  2   force =    -0.00014301   -0.00042404   -0.00006654
     atom  115 type  2   force =     0.00002630    0.00002058    0.00148450
     atom  116 type  2   force =    -0.00006753   -0.00005473    0.00007564
     atom  117 type  2   force =     0.00065005    0.00007561   -0.00012262
     atom  118 type  1   force =     0.00043746    0.00007673   -0.00017031
     atom  119 type  1   force =     0.00003108    0.00000994    0.00189452
     atom  120 type  1   force =    -0.00001152    0.00005115    0.00004732
     atom  121 type  2   force =     0.00003053    0.00001604   -0.00329416
     atom  122 type  2   force =    -0.00005150    0.00004755   -0.00003824
     atom  123 type  2   force =    -0.00007013    0.00029730    0.00080419
     atom  124 type  2   force =     0.00002749    0.00001867    0.00150280
     atom  125 type  2   force =    -0.00000865    0.00002525    0.00003989
     atom  126 type  2   force =     0.00029218    0.00038776   -0.00008954
     atom  127 type  1   force =    -0.00023599    0.00003396   -0.00008183
     atom  128 type  1   force =     0.00002768    0.00001897    0.00189216
     atom  129 type  1   force =    -0.00008963    0.00003066    0.00005866
     atom  130 type  2   force =     0.00002946    0.00001682   -0.00329818
     atom  131 type  2   force =    -0.00003800    0.00002088    0.00001790
     atom  132 type  2   force =     0.00013703   -0.00060923    0.00056719
     atom  133 type  2   force =     0.00002008    0.00001782    0.00147311
     atom  134 type  2   force =    -0.00007986    0.00000823    0.00007027
     atom  135 type  2   force =     0.00004733   -0.00019142    0.00007102
     atom  136 type  1   force =    -0.00022707   -0.00006770   -0.00029945
     atom  137 type  1   force =     0.00002193    0.00002223    0.00190000
     atom  138 type  1   force =    -0.00004174    0.00001039   -0.00000732
     atom  139 type  2   force =     0.00003408    0.00001849   -0.00329554
     atom  140 type  2   force =    -0.00006887   -0.00003426    0.00001026
     atom  141 type  2   force =    -0.00035164   -0.00021574    0.00017944
     atom  142 type  2   force =     0.00002046    0.00002209    0.00148947
     atom  143 type  2   force =    -0.00007613    0.00000494    0.00011029
     atom  144 type  2   force =     0.00014588    0.00003663   -0.00006868
     atom  145 type  3   force =     0.00202937    0.00267742    0.00130064
     atom  146 type  3   force =     0.00040146   -0.00004179    0.00039842
     atom  147 type  4   force =    -0.00422992   -0.00025466    0.00091946

     Total force =     0.008720     Total SCF correction =     0.005459
     SCF correction compared to forces is large: reduce conv_thr to get better values
     Energy error            =      1.6E-04 Ry
     Gradient error          =      4.2E-03 Ry/Bohr

     number of scf cycles    =  33
     number of bfgs steps    =  31

     energy             old  =  -26543.7370503119 Ry
     energy             new  =  -26543.7372056671 Ry

     CASE: energy            _new < energy            _old

     new trust radius        =       0.0445353492 bohr
     new conv_thr            =       0.0000000155 Ry


ATOMIC_POSITIONS (angstrom)
Mo               1.5468009700        2.6930430953        6.0724438386
Mo               1.5769197498        0.9104407117       -6.0872367793    0   0   0
Mo              -0.0017539448        1.8218273468       -0.0020525323
S                0.0000044503        0.0000077495       -7.6506323570    0   0   0
S                1.5749055049        0.9118213594       -1.5681493872
S               -0.0336844293        1.8187623438        4.4984668091
S                0.0000053241        0.0000068460       -4.5222282367    0   0   0
S                1.5753329193        0.9112470314        1.5640448709
[...]
     atom   72 type  2   force =     0.00013465    0.00020004   -0.00023963
     atom   73 type  1   force =    -0.00000110   -0.00003860   -0.00002339
     atom   74 type  1   force =    -0.00001172    0.00000158    0.00189172
     atom   75 type  1   force =     0.00000264   -0.00000158   -0.00007120
     atom   76 type  2   force =     0.00000248   -0.00000178   -0.00328364
     atom   77 type  2   force =     0.00001494   -0.00002015   -0.00005288
     atom   78 type  2   force =     0.00030398    0.00000170   -0.00005175
     atom   79 type  2   force =    -0.00004101    0.00001282    0.00149822
     atom   80 type  2   force =    -0.00003633    0.00000026   -0.00003956
     atom   81 type  2   force =     0.00027097    0.00006583    0.00024014
     atom   82 type  1   force =     0.00014965   -0.00000980   -0.00005181
     atom   83 type  1   force =    -0.00001112   -0.00000047    0.00188925
     atom   84 type  1   force =    -0.00002984   -0.00001952   -0.00002294
     atom   85 type  2   force =     0.00000252   -0.00000128   -0.00328330
     atom   86 type  2   force =    -0.00000096   -0.00000834   -0.00002448
     atom   87 type  2   force =     0.00037847   -0.00036880    0.00049167
     atom   88 type  2   force =    -0.00003617    0.00000727    0.00150133
     atom   89 type  2   force =    -0.00005466   -0.00002693   -0.00006111
     atom   90 type  2   force =     0.00022527   -0.00055913   -0.00016080
     atom   91 type  1   force =     0.00035660   -0.00017412    0.00010310
     atom   92 type  1   force =    -0.00001187   -0.00000561    0.00189448
     atom   93 type  1   force =    -0.00004200   -0.00002022    0.00000688
     atom   94 type  2   force =     0.00000257   -0.00000061   -0.00328421
     atom   95 type  2   force =    -0.00001965   -0.00002289    0.00003072
     atom   96 type  2   force =     0.00025512    0.00029349    0.00016234
     atom   97 type  2   force =    -0.00004373   -0.00000869    0.00148087
     atom   98 type  2   force =     0.00001093   -0.00005476    0.00004274
     atom   99 type  2   force =     0.00014722    0.00038699   -0.00022975
     atom  100 type  1   force =     0.00004588   -0.00027389    0.00012483
     atom  101 type  1   force =    -0.00001229    0.00000196    0.00189836
     atom  102 type  1   force =    -0.00002591    0.00000923    0.00000081
     atom  103 type  2   force =     0.00000274   -0.00000152   -0.00328294
     atom  104 type  2   force =    -0.00002945   -0.00002693    0.00003708
     atom  105 type  2   force =    -0.00006482   -0.00006824    0.00037136
     atom  106 type  2   force =    -0.00004533    0.00000073    0.00148598
     atom  107 type  2   force =    -0.00004333    0.00000239    0.00005109
     atom  108 type  2   force =    -0.00002766   -0.00028576   -0.00005179
     atom  109 type  1   force =     0.00008219    0.00029248   -0.00033597
     atom  110 type  1   force =    -0.00001100    0.00000268    0.00189521
     atom  111 type  1   force =    -0.00005005   -0.00001388   -0.00000756
     atom  112 type  2   force =     0.00000253   -0.00000181   -0.00328342
     atom  113 type  2   force =    -0.00004134   -0.00000231    0.00004589
     atom  114 type  2   force =    -0.00004500   -0.00016672    0.00021361
     atom  115 type  2   force =    -0.00004721    0.00001672    0.00149728
     atom  116 type  2   force =    -0.00002466    0.00000962    0.00001987
     atom  117 type  2   force =     0.00025145    0.00000140   -0.00041789
     atom  118 type  1   force =    -0.00013165    0.00028033   -0.00030289
     atom  119 type  1   force =    -0.00001116    0.00000111    0.00188807
     atom  120 type  1   force =    -0.00003914   -0.00000330   -0.00002103
     atom  121 type  2   force =     0.00000259   -0.00000147   -0.00328264
     atom  122 type  2   force =     0.00000585   -0.00001422    0.00002226
     atom  123 type  2   force =    -0.00006975   -0.00019092   -0.00011114
     atom  124 type  2   force =    -0.00004139    0.00000515    0.00150801
     atom  125 type  2   force =    -0.00002383   -0.00001512   -0.00002871
     atom  126 type  2   force =     0.00009578    0.00005244   -0.00037110
     atom  127 type  1   force =    -0.00010917    0.00002867    0.00016655
     atom  128 type  1   force =    -0.00000975   -0.00000341    0.00189310
     atom  129 type  1   force =    -0.00001710   -0.00001059   -0.00000269
     atom  130 type  2   force =     0.00000238   -0.00000080   -0.00328324
     atom  131 type  2   force =     0.00000788   -0.00002679   -0.00003900
     atom  132 type  2   force =     0.00011154   -0.00013663    0.00025164
     atom  133 type  2   force =    -0.00004009   -0.00000999    0.00148304
     atom  134 type  2   force =     0.00003150   -0.00002643   -0.00000686
     atom  135 type  2   force =     0.00018642   -0.00042702    0.00022811
     atom  136 type  1   force =    -0.00014365   -0.00020343    0.00017831
     atom  137 type  1   force =    -0.00000829    0.00000198    0.00189909
     atom  138 type  1   force =    -0.00002869   -0.00003174    0.00001387
     atom  139 type  2   force =     0.00000273   -0.00000113   -0.00328136
     atom  140 type  2   force =    -0.00002248   -0.00000474   -0.00005617
     atom  141 type  2   force =    -0.00029120   -0.00004470    0.00032909
     atom  142 type  2   force =    -0.00004429    0.00000212    0.00149895
     atom  143 type  2   force =     0.00002075   -0.00000123    0.00000389
     atom  144 type  2   force =    -0.00006531   -0.00016613    0.00030950
     atom  145 type  3   force =     0.00051538    0.00036467    0.00067635
     atom  146 type  3   force =     0.00000406   -0.00013849   -0.00067777
     atom  147 type  4   force =    -0.00005848    0.00057779    0.00006096

     Total force =     0.003602     Total SCF correction =     0.000451
     SCF correction compared to forces is large: reduce conv_thr to get better values
     Energy error            =      3.0E-05 Ry
     Gradient error          =      9.5E-04 Ry/Bohr

     bfgs converged in  55 scf cycles and  52 bfgs steps
     (criteria: energy <  1.0E-04 Ry, force <  1.0E-03 Ry/Bohr)

     End of BFGS Geometry Optimization

     Final energy             =  -26543.7379364001 Ry

     File ./outdir/pwscf.bfgs deleted, as requested
Begin final coordinates

ATOMIC_POSITIONS (angstrom)
Mo               1.5548107737        2.6854012658        6.0679935153
Mo               1.5769197498        0.9104407117       -6.0872367793    0   0   0
Mo              -0.0073747981        1.8222420578       -0.0004466073
S                0.0000044503        0.0000077495       -7.6506323570    0   0   0
S                1.5699958540        0.9120357796       -1.5656333106
S               -0.0317068462        1.8192973425        4.4967417148
S                0.0000053241        0.0000068460       -4.5222282367    0   0   0
S                1.5689979994        0.9113125459        1.5664706340
S               -0.0255660971        1.7920087840        7.6441021021
Mo              -0.0470201216        5.4617690285        6.1431687823
Mo               0.0000011799        3.6417399547       -6.0872367793    0   0   0
Mo              -1.5838150725        4.5532924847       -0.0005618421
S               -1.5769141197        2.7313069925       -7.6506323570    0   0   0
S               -0.0070236004        3.6426121517       -1.5658964909
S               -1.5840254832        4.5581038381        4.5515255345
S               -1.5769132459        2.7313060890       -4.5222282367    0   0   0
S               -0.0065803231        3.6437400606        1.5674308391
S               -1.7014482088        4.4914130468        7.7256989614
Mo              -1.6121409649        8.2012607285        6.0757599811
Mo              -1.5769173901        6.3730391977       -6.0872367793    0   0   0
Mo              -3.1610911969        7.2838732001       -0.0021048618
S               -3.1538326896        5.4626062355       -7.6506323570    0   0   0
S               -1.5841592415        6.3732724039       -1.5672068222
S               -3.1744697058        7.2708118060        4.5070550566
S               -3.1538318159        5.4626053320       -4.5222282367    0   0   0
S               -1.5840140290        6.3741968032        1.5658496970
S               -3.1848738404        7.2893875165        7.6472288407
Mo               3.1351485935       -0.0054753085        6.0607796945
Mo              -3.1538359601        9.1043384407       -6.0872367793    0   0   0
Mo              -4.7381284437       10.0157122127       -0.0013031745
S               -4.7307512596        8.1939054785       -7.6506323570    0   0   0
S               -3.1608960969        9.1054383965       -1.5668043392
S               -4.7507134621       10.0093026288        4.4939866625
S               -4.7307503859        8.1939045750       -4.5222282367    0   0   0
S               -3.1615656654        9.1040784671        1.5650422693
S               -4.7526154893       10.0120747781        7.6281326990
Mo               4.7069975107        2.7236837041        6.0813815490
Mo               4.7307503218        0.9104407117       -6.0872367793    0   0   0
Mo               3.1465600402        1.8220230623        0.0002216152
S                3.1538350223        0.0000077495       -7.6506323570    0   0   0
S                4.7237230372        0.9117716340       -1.5653109421
S                3.1398590908        1.8175612505        4.4950421929
S                3.1538358961        0.0000068460       -4.5222282367    0   0   0
S                4.7231222403        0.9102938821        1.5665707562
S                3.1368050960        1.7959654482        7.6423687851
Mo               3.1562131865        5.4654805506        6.1378032604
Mo               3.1538317519        3.6417399547       -6.0872367793    0   0   0
Mo               1.5697602448        4.5534256256       -0.0009734922
S                1.5769164523        2.7313069925       -7.6506323570    0   0   0
S                3.1469444826        3.6422124683       -1.5657393699
S                1.5533544530        4.5745692537        4.5823134244
S                1.5769173261        2.7313060890       -4.5222282367    0   0   0
S                3.1455254951        3.6437152548        1.5676420676
S                1.5568271251        4.4564285621        7.6540940140
Mo               1.5532766241        8.2129623153        6.0899871687
Mo               1.5769131819        6.3730391977       -6.0872367793    0   0   0
Mo              -0.0072479804        7.2838309940       -0.0022251537
S               -0.0000021176        5.4626062355       -7.6506323570    0   0   0
S                1.5696917938        6.3734052313       -1.5676612408
S               -0.0222537839        7.2593203233        4.5500028491
S               -0.0000012439        5.4626053320       -4.5222282367    0   0   0
S                1.5694912749        6.3744394835        1.5653616655
S               -0.0390692531        7.3703893003        7.6876947400
Mo               6.2840400861       -0.0030474509        6.0638509164
Mo              -0.0000053881        9.1043384407       -6.0872367793    0   0   0
Mo              -1.5840859772       10.0152215664       -0.0009744624
S               -1.5769206876        8.1939054785       -7.6506323570    0   0   0
S               -0.0071452585        9.1055495243       -1.5667864354
S               -1.5988866586       10.0057709936        4.4958239504
S               -1.5769198139        8.1939045750       -4.5222282367    0   0   0
S               -0.0075606554        9.1031390368        1.5661382553
S               -1.6040297634       10.0236099524        7.6389303295
Mo               7.8606850197        2.7313645850        6.0746933040
Mo               7.8845808939        0.9104407117       -6.0872367793    0   0   0
Mo               6.3001737798        1.8219520059        0.0006946718
S                6.3076655943        0.0000077495       -7.6506323570    0   0   0
S                7.8769445407        0.9118060273       -1.5651393304
S                6.2821462144        1.8253604079        4.5055569978
S                6.3076664681        0.0000068460       -4.5222282367    0   0   0
S                7.8773724570        0.9108122013        1.5669837768
S                6.2888183103        1.8057662314        7.6399924494
Mo               6.2934697367        5.4643685929        6.0829467450
Mo               6.3076623239        3.6417399547       -6.0872367793    0   0   0
Mo               4.7230785704        4.5533759000       -0.0003886999
S                4.7307470244        2.7313069925       -7.6506323570    0   0   0
S                6.3004228936        3.6423724986       -1.5650704292
S                4.6924421241        4.5643922157        4.5448591828
S                4.7307478981        2.7313060890       -4.5222282367    0   0   0
S                6.2993967145        3.6438562098        1.5678224895
S                4.8100522963        4.4974735286        7.7176820698
Mo               4.7183110372        8.2052745112        6.0689346975
Mo               4.7307437539        6.3730391977       -6.0872367793    0   0   0
Mo               3.1463381177        7.2840660285       -0.0026904784
S                3.1538284544        5.4626062355       -7.6506323570    0   0   0
S                4.7235192396        6.3731229498       -1.5676886065
S                3.1262497562        7.2629876038        4.5448072362
S                3.1538293281        5.4626053320       -4.5222282367    0   0   0
S                4.7228586171        6.3750155988        1.5651817925
S                3.1481750977        7.3724369764        7.6831649741
Mo               9.4375353631       -0.0008268050        6.0629073450
Mo               3.1538251839        9.1043384407       -6.0872367793    0   0   0
Mo               1.5694781499       10.0152610902       -0.0006129777
S                1.5769098844        8.1939054785       -7.6506323570    0   0   0
S                3.1460926151        9.1056855556       -1.5673722070
S                1.5533119934       10.0062293182        4.4985832097
S                1.5769107581        8.1939045750       -4.5222282367    0   0   0
S                3.1467011516        9.1036236881        1.5653743935
S                1.5538519425       10.0406093718        7.6453492273
Mo              -1.5999706330        2.7194631894        6.0870582310
Mo              11.0384114659        0.9104407117       -6.0872367793    0   0   0
Mo               9.4541592913        1.8221154290       -0.0002293480
S                9.4614961663        0.0000077495       -7.6506323570    0   0   0
S               11.0310727709        0.9122291381       -1.5665001878
S                9.4405116025        1.8273526550        4.5062122705
S                9.4614970401        0.0000068460       -4.5222282367    0   0   0
S               11.0307992671        0.9106424677        1.5652709899
S                9.4288430623        1.8043371431        7.6436859919
Mo              -3.1847282486        5.4600506041        6.0888966606
Mo               9.4614928959        3.6417399547       -6.0872367793    0   0   0
Mo               7.8772344608        4.5532452913       -0.0000219568
S                7.8845775964        2.7313069925       -7.6506323570    0   0   0
S                9.4542088766        3.6427709864       -1.5656023059
S                7.8635467360        4.5554755393        4.5107320472
S                7.8845784701        2.7313060890       -4.5222282367    0   0   0
S                9.4549862584        3.6436282659        1.5673536028
S                7.8587820434        4.5465055895        7.6545473074
Mo              -4.7525612480        8.1910696669        6.0663323982
Mo               7.8845743259        6.3730391977       -6.0872367793    0   0   0
Mo               6.3001331262        7.2842163160       -0.0027043946
S                6.3076590264        5.4626062355       -7.6506323570    0   0   0
S                7.8774388687        6.3729821255       -1.5672082990
S                6.2857317568        7.2779307380        4.5020103636
S                6.3076599001        5.4626053320       -4.5222282367    0   0   0
S                7.8766715282        6.3749601341        1.5649783222
S                6.2891667837        7.2936161658        7.6412627986
Mo              -0.0243142020       -0.0054449753        6.0588346391
Mo               6.3076557559        9.1043384407       -6.0872367793    0   0   0
Mo               4.7231433369       10.0156164072       -0.0021525273
S                4.7307404564        8.1939054785       -7.6506323570    0   0   0
S                6.3006729952        9.1057005771       -1.5674489135
S                4.7067698999       10.0122062331        4.4920517805
S                4.7307413301        8.1939045750       -4.5222282367    0   0   0
S                6.2996618592        9.1046116152        1.5644119839
S                4.7120323930       10.0252450344        7.6340234840
Pd               3.0748306452        5.3953162604        9.0637098565
Pd               0.0361839660        5.3926954672        9.0700124745
Pt               1.5596261239        5.7068135671       11.0632365402
End final coordinates



     Writing all to output data dir ./outdir/pwscf.save/ :
     XML data file, charge density, pseudopotentials, collected wavefunctions
 
     init_run     :     97.17s CPU     99.32s WALL (       1 calls)
     electrons    : 131334.67s CPU 133412.45s WALL (      23 calls)
     update_pot   :     29.02s CPU     29.93s WALL (      22 calls)
     forces       :   1652.52s CPU   1688.40s WALL (      23 calls)
     force_dftd3  :      8.74s CPU      9.14s WALL (      23 calls)

     Called by init_run:
     wfcinit      :     78.77s CPU     79.74s WALL (       1 calls)
     potinit      :      1.18s CPU      1.29s WALL (       1 calls)
     hinit0       :      9.44s CPU      9.50s WALL (       1 calls)

     Called by electrons:
     c_bands      : 114216.48s CPU 115486.42s WALL (     396 calls)
     sum_band     :  14654.00s CPU  15066.13s WALL (     396 calls)
     v_of_rho     :    116.74s CPU    130.42s WALL (     408 calls)
     newd         :   2058.17s CPU   2443.74s WALL (     408 calls)
     PAW_pot      :    324.78s CPU    327.27s WALL (     430 calls)
     mix_rho      :     34.72s CPU     39.00s WALL (     396 calls)
     energy_dftd3 :      4.89s CPU      4.91s WALL (      23 calls)

     Called by c_bands:
     init_us_2    :    545.18s CPU    547.63s WALL (    3352 calls)
     init_us_2:cp :    545.16s CPU    547.61s WALL (    3352 calls)
     cegterg      : 111855.57s CPU 113106.79s WALL (    1603 calls)

     Called by *egterg:
     cdiaghg      :   5901.73s CPU   6186.22s WALL (   20395 calls)
     h_psi        :  57819.40s CPU  58240.21s WALL (   20550 calls)
     s_psi        :  12507.93s CPU  12559.52s WALL (   20550 calls)
     g_psi        :    126.52s CPU    127.09s WALL (   18943 calls)

     Called by h_psi:
     h_psi:calbec :  12013.68s CPU  12058.62s WALL (   20550 calls)
     vloc_psi     :  32940.21s CPU  33164.17s WALL (   20550 calls)
     add_vuspsi   :  12589.74s CPU  12647.41s WALL (   20550 calls)

     General routines
     calbec       :  16818.74s CPU  16879.10s WALL (   22590 calls)
     fft          :     93.82s CPU    106.46s WALL (    5544 calls)
     ffts         :      5.16s CPU      5.32s WALL (     804 calls)
     fftw         :  24785.71s CPU  24943.68s WALL ( 8710434 calls)
     interpolate  :      9.59s CPU     10.55s WALL (     408 calls)
 
     Parallel routines
 
     PWSCF        :   1d13h 7m CPU   1d13h44m WALL

 
   This run was terminated on:  21:58:35  17Apr2024            

=------------------------------------------------------------------------------=
   JOB DONE.
=------------------------------------------------------------------------------=
