145
Lattice="12.615322175253082 0.0 0.0 -6.307673702948716 10.925197002145726 0.0 0.0 0.0 30.30125956094956" Properties=species:S:1:pos:R:3:forces:R:3 energy=-331395.8069068604 free_energy=-331395.8069068604 pbc="T T T"
Mo       1.57689383       2.73128033       6.08503471      -0.00003162      -0.23436479      -0.18919951
Mo       1.57692032       0.91044023      -6.08723735      -0.00007251       0.00009667       0.04906950
Mo      -0.00002397       1.82086659      -0.00094741      -0.00018820      -0.00074819      -0.00022677
S        0.00000505       0.00000757      -7.65063278       0.00003471       0.00002365      -0.08905221
S        1.57689256       0.91043771      -1.56640797       0.00004217      -0.00020852      -0.00452231
S       -0.00002018       1.82085019       4.51935212       0.00927731      -0.00055870      -0.00091994
S        0.00000505       0.00000631      -4.52222842       0.00001748      -0.00004602       0.04311200
S        1.57689256       0.91043645       1.56625532       0.00000874      -0.00054019       0.00418807
S       -0.00001892       1.82085019       7.65396953      -0.01122595       0.00147273       0.00895695
Mo      -0.00002649       5.46257958       6.08503471      -0.09866094      -0.05671211      -0.20980536
Mo       0.00000126       3.64173948      -6.08723735       0.00019258      -0.00018075       0.04906410
Mo      -1.57692663       4.55215322      -0.00093858      -0.00030879       0.00031393       0.00018023
S       -1.57691401       2.73130682      -7.65063278       0.00008819      -0.00010336      -0.08911521
S       -0.00002145       3.64173191      -1.56640292       0.00008896      -0.00007636      -0.00464701
S       -1.57694050       4.55214692       4.51935086      -0.00652572      -0.00368568       0.00536795
S       -1.57691275       2.73130556      -4.52222842       0.00007713      -0.00008562       0.04313077
S       -0.00002145       3.64173065       1.56625659       0.00056616      -0.00009282       0.00422715
S       -1.57694050       4.55214818       7.65396827       0.01366207       0.00791591       0.02894214
Mo      -1.57694681       8.19388009       6.08503471      -0.20269138       0.11708624      -0.18931701
Mo      -1.57691779       6.37303873      -6.08723735      -0.00004962       0.00024323       0.04909162
Mo      -3.15385451       7.28345878      -0.00094236      -0.00052039       0.00052219      -0.00018538
S       -3.15383307       5.46260607      -7.65063278      -0.00000720       0.00008999      -0.08920802
S       -1.57693924       6.37302738      -1.56639283       0.00006762       0.00015247      -0.00464727
S       -3.15385956       7.28344617       4.51935086       0.00427343       0.00827252      -0.00102021
S       -3.15383181       5.46260481      -4.52222842      -0.00001388       0.00013215       0.04321279
S       -1.57694176       6.37302864       1.56625280       0.00030030       0.00056821       0.00424952
S       -3.15385956       7.28344617       7.65396953      -0.00433334      -0.01050733       0.00900683
Mo       3.15381162      -0.00001766       6.08503597       0.00743974       0.00443592      -0.00852963
Mo      -3.15383559       9.10433798      -6.08723735       0.00006196       0.00008048       0.04910550
Mo      -4.73078997      10.01478326      -0.00094741       0.00039492      -0.00037821      -0.00034273
S       -4.73075086       8.19390532      -7.65063278       0.00005862       0.00001414      -0.08912703
S       -3.15386082       9.10433041      -1.56639283      -0.00002803       0.00013575      -0.00448837
S       -4.73077483      10.01474542       4.51935086       0.00007379       0.00000771       0.00131409
S       -4.73075086       8.19390406      -4.52222842       0.00003317       0.00003702       0.04317782
S       -3.15386587       9.10433168       1.56624776      -0.00033527       0.00024528       0.00422612
S       -4.73077483      10.01474415       7.65396701       0.00007302       0.00005785      -0.00580144
Mo       4.73072185       2.73128033       6.08503219       0.00595853       0.02462166       0.01084337
Mo       4.73075086       0.91044023      -6.08723735      -0.00002571      -0.00020929       0.04911373
Mo       3.15379648       1.82087290      -0.00094615       0.00058313      -0.00077904      -0.00024580
S        3.15383559       0.00000757      -7.65063278       0.00007765      -0.00004268      -0.08904373
S        4.73072311       0.91043392      -1.56639914      -0.00004757      -0.00009076      -0.00458196
S        3.15380910       1.82085019       4.51935086      -0.00916470      -0.00059135      -0.00093820
S        3.15383559       0.00000631      -4.52222842       0.00006788      -0.00004319       0.04318296
S        4.73072311       0.91043771       1.56625280      -0.00020595      -0.00019052       0.00374815
S        3.15381036       1.82084893       7.65396953       0.01123161       0.00136397       0.00892764
Mo       3.15380657       5.46257958       6.08503471       0.09878076      -0.05667328      -0.20999639
Mo       3.15383181       3.64173948      -6.08723735      -0.00034247      -0.00003342       0.04906539
Mo       1.57688752       4.55217088      -0.00094236       0.00013138      -0.00018640      -0.00096211
S        1.57691653       2.73130682      -7.65063278       0.00001311       0.00002005      -0.08903705
S        3.15380153       3.64173318      -1.56640419      -0.00009179      -0.00005476      -0.00459276
S        1.57689130       4.55214692       4.51935086      -0.00000694       0.00260247       0.03050794
S        1.57691779       2.73130556      -4.52222842       0.00003471       0.00002263       0.04296622
S        3.15380279       3.64173318       1.56625532      -0.00047848      -0.00012007       0.00424798
S        1.57689130       4.55214692       7.65396827      -0.00013061       0.08593861       0.35073267
Mo       1.57688500       8.19388009       6.08503597       0.00008356       0.11396286      -0.21001825
Mo       1.57691275       6.37303873      -6.08723735       0.00000411       0.00004551       0.04917081
Mo      -0.00001388       7.28345878      -0.00094110      -0.00039466       0.00048337      -0.00085643
S       -0.00000252       5.46260607      -7.65063278       0.00009873       0.00002931      -0.08912781
S        1.57688752       6.37302864      -1.56640292       0.00001877       0.00008279      -0.00441278
S       -0.00002902       7.28344490       4.51935212       0.00227491      -0.00115520       0.03057273
S       -0.00000126       5.46260481      -4.52222842       0.00017175       0.00011930       0.04306058
S        1.57689004       6.37302864       1.56625911       0.00002674       0.00016069       0.00535689
S       -0.00002775       7.28344617       7.65396953       0.07453602      -0.04301893       0.35070413
Mo       6.30763964      -0.00001766       6.08503471       0.02448976      -0.00719240       0.01080043
Mo      -0.00000505       9.10433798      -6.08723735      -0.00005039       0.00013215       0.04917878
Mo      -1.57693924      10.01476939      -0.00093858      -0.00050548       0.00025480      -0.00032216
S       -1.57692032       8.19390532      -7.65063278       0.00000334       0.00005399      -0.08906970
S       -0.00003028       9.10432789      -1.56639914      -0.00005168       0.00000643      -0.00447835
S       -1.57694807      10.01474668       4.51934834      -0.00495117      -0.00777270      -0.00099065
S       -1.57692032       8.19390406      -4.52222842       0.00004731       0.00003908       0.04316497
S       -0.00002775       9.10433041       1.56625406      -0.00024246      -0.00040263       0.00414359
S       -1.57694681      10.01474542       7.65397332       0.00692552       0.00902714       0.00896338
Mo       7.88455491       2.73128411       6.08503597      -0.00012033      -0.00029593      -0.00197332
Mo       7.88458141       0.91044023      -6.08723735      -0.00003625       0.00002803       0.04913430
Mo       6.30764216       1.82086406      -0.00094741      -0.00095928      -0.00052656      -0.00028282
S        6.30766613       0.00000757      -7.65063278      -0.00004628      -0.00003934      -0.08911624
S        7.88455744       0.91043519      -1.56640545      -0.00004088      -0.00013678      -0.00469458
S        6.30763838       1.82085019       4.51935086      -0.00343654      -0.00213273      -0.00429271
S        6.30766613       0.00000631      -4.52222842      -0.00005991      -0.00007328       0.04320970
S        7.88455618       0.91043519       1.56625532      -0.00004551      -0.00038618       0.00465473
S        6.30763964       1.82084893       7.65396827       0.00000489      -0.00005708       0.00566131
Mo       6.30763712       5.46258084       6.08503724      -0.01871377      -0.01747656       0.01082434
Mo       6.30766235       3.64173948      -6.08723735       0.00005091      -0.00007482       0.04904765
Mo       4.73070040       4.55216458      -0.00094489       0.00040083      -0.00005785       0.00029851
S        4.73074708       2.73130682      -7.65063278      -0.00003265      -0.00003728      -0.08923091
S        6.30763333       3.64173444      -1.56639662      -0.00011184      -0.00007122      -0.00476400
S        4.73072311       4.55214692       4.51935086       0.00658254      -0.00376692       0.00526562
S        4.73074834       2.73130556      -4.52222842      -0.00001825      -0.00006402       0.04326395
S        6.30763207       3.64173318       1.56625028      -0.00029208       0.00001440       0.00476580
S        4.73072185       4.55214565       7.65396827      -0.01360036       0.00788172       0.02883158
Mo       4.73072059       8.19387883       6.08503471       0.20247077       0.11707775      -0.18925762
Mo       4.73074329       6.37303873      -6.08723735      -0.00009359      -0.00001388       0.04905845
Mo       3.15379396       7.28346257      -0.00094363       0.00012676       0.00025942      -0.00078419
S        3.15382802       5.46260607      -7.65063278      -0.00001028      -0.00004191      -0.08905299
S        4.73071554       6.37302864      -1.56640166      -0.00008870       0.00007173      -0.00468558
S        3.15380279       7.28344617       4.51935212      -0.00224483      -0.00116548       0.03065886
S        3.15382928       5.46260481      -4.52222842      -0.00009205       0.00004705       0.04306675
S        4.73071680       6.37302990       1.56625280      -0.00028128       0.00053505       0.00425158
S        3.15380279       7.28344490       7.65396827      -0.07439976      -0.04279910       0.35056015
Mo       9.46147271      -0.00001514       6.08503724      -0.02465122      -0.00746571       0.01088682
Mo       3.15382550       9.10433798      -6.08723735      -0.00013987       0.00010747       0.04915769
Mo       1.57689004      10.01476812      -0.00094867      -0.00024940      -0.00012598       0.00041986
S        1.57691023       8.19390532      -7.65063278      -0.00000668      -0.00001028      -0.08898948
S        3.15380153       9.10432789      -1.56640545      -0.00003522       0.00001414      -0.00451049
S        1.57688373      10.01474668       4.51934960      -0.00005605       0.00748988       0.00542683
S        1.57691023       8.19390406      -4.52222842      -0.00003342      -0.00005811       0.04307318
S        3.15380027       9.10432915       1.56625532       0.00023063      -0.00042989       0.00414128
S        1.57688247      10.01474668       7.65397332       0.00000900      -0.01582874       0.02878221
Mo      -1.57693672       2.73128285       6.08503471      -0.00576313       0.02482914       0.01098221
Mo      11.03841195       0.91044023      -6.08723735       0.00000977      -0.00001131       0.04905742
Mo       9.46147775       1.82085650      -0.00094489       0.00054096      -0.00050239      -0.00029876
S        9.46149668       0.00000757      -7.65063278      -0.00001980      -0.00002005      -0.08901082
S       11.03838672       0.91043519      -1.56640797       0.00007585      -0.00013678      -0.00458068
S        9.46147019       1.82085019       4.51935212       0.00331030      -0.00208851      -0.00426675
S        9.46149668       0.00000631      -4.52222842      -0.00002288      -0.00007559       0.04304695
S       11.03838798       0.91043519       1.56625659       0.00024220      -0.00030210       0.00378698
S        9.46147019       1.82085145       7.65396827      -0.00001131      -0.00005605       0.00572688
Mo      -3.15385451       5.46258210       6.08503345       0.01874797      -0.01734518       0.01094030
Mo       9.46149289       3.64173948      -6.08723735      -0.00013344      -0.00014450       0.04911321
Mo       7.88454861       4.55215953      -0.00094236      -0.00011724       0.00082867      -0.00031470
S        7.88457762       2.73130682      -7.65063278      -0.00000180      -0.00007790      -0.08901750
S        9.46147019       3.64173065      -1.56639535      -0.00000848      -0.00004705      -0.00487893
S        7.88455113       4.55214944       4.51935086      -0.00002391       0.00398212      -0.00444004
S        7.88457888       2.73130556      -4.52222842      -0.00001800      -0.00007739       0.04310532
S        9.46146766       3.64173065       1.56625154       0.00019669       0.00001080       0.00486581
S        7.88455365       4.55214818       7.65397079       0.00000206      -0.00001003       0.00588191
Mo      -4.73077231       8.19388009       6.08503471       0.00022291      -0.00849595      -0.00849081
Mo       7.88457384       6.37303873      -6.08723735       0.00001928       0.00005168       0.04899828
Mo       6.30762198       7.28346761      -0.00094867       0.00069857       0.00012161      -0.00001311
S        6.30765856       5.46260607      -7.65063278      -0.00001466       0.00000360      -0.08916072
S        7.88454861       6.37302990      -1.56639409      -0.00000694       0.00013858      -0.00468455
S        6.30763586       7.28344490       4.51935212      -0.00423281       0.00823113      -0.00106058
S        6.30765983       5.46260481      -4.52222842      -0.00003857       0.00006351       0.04319608
S        7.88454482       6.37303116       1.56624776      -0.00003471       0.00040443       0.00393070
S        6.30763712       7.28344490       7.65396953       0.00433102      -0.01046568       0.00899706
Mo      -0.00001514      -0.00001640       6.08503471      -0.00730065       0.00437885      -0.00850855
Mo       6.30765604       9.10433798      -6.08723735       0.00001054       0.00015555       0.04926028
Mo       4.73070671      10.01477443      -0.00094489       0.00041600       0.00030853      -0.00018332
S        4.73074077       8.19390532      -7.65063278       0.00000514       0.00001388      -0.08912549
S        6.30762703       9.10433168      -1.56640166       0.00009205       0.00014552      -0.00460150
S        4.73071554      10.01474668       4.51935086       0.00497714      -0.00787220      -0.00098062
S        4.73074077       8.19390406      -4.52222842       0.00003342       0.00003368       0.04315442
S        6.30762829       9.10433168       1.56625028       0.00032884       0.00024657       0.00425980
S        4.73071554      10.01474542       7.65397079      -0.00695406       0.00891967       0.00892816
Pd       1.57699979       6.37299963       9.25399986      -0.00024477       0.00044377      -0.17861865
145
Lattice="12.615322175253082 0.0 0.0 -6.307673702948716 10.925197002145726 0.0 0.0 0.0 30.30125956094956" Properties=species:S:1:pos:R:3:forces:R:3 energy=-331395.81901211664 free_energy=-331395.81901211664 pbc="T T T"
Mo       1.57689335       2.72645693       6.08114034      -0.00000000      -0.08208015      -0.03679146
Mo       1.57691975       0.91044071      -6.08723678       0.00006891       0.00003111       0.04887719
Mo      -0.00002722       1.82085158      -0.00095172       0.00009744       0.00321234       0.00131358
S        0.00000445       0.00000775      -7.65063236      -0.00004217      -0.00001183      -0.08397480
S        1.57689364       0.91043350      -1.56650070      -0.00001311       0.00016429       0.00299405
S        0.00017024       1.82083923       4.51933318      -0.01293471      -0.01704719      -0.02259357
S        0.00000532       0.00000685      -4.52222824      -0.00007996       0.00002751       0.03791863
S        1.57689242       0.91042575       1.56634175       0.00000926       0.00009307      -0.00295317
S       -0.00025030       1.82088065       7.65415374      -0.00236079      -0.00012573      -0.01274316
Mo      -0.00205757       5.46141282       6.08071679      -0.01810751      -0.01057726      -0.01011498
Mo       0.00000118       3.64173995      -6.08723678       0.00012418       0.00028616       0.04895612
Mo      -1.57693343       4.55215958      -0.00093443       0.00140562      -0.00098139      -0.00015221
S       -1.57691412       2.73130699      -7.65063236       0.00004962       0.00003985      -0.08413472
S       -0.00001975       3.64173052      -1.56649842      -0.00009719       0.00019772       0.00342265
S       -1.57707467       4.55207154       4.51946155      -0.02487517      -0.01435293      -0.02475998
S       -1.57691325       2.73130609      -4.52222824       0.00006171       0.00009256       0.03820634
S       -0.00000979       3.64172843       1.56634401       0.00025171       0.00014115      -0.00366614
S       -1.57665940       4.55231056       7.65456385       0.01862687       0.01072690       0.00229831
Mo      -1.58111804       8.19628930       6.08113846      -0.07126481       0.04114099      -0.03673309
Mo      -1.57691739       6.37303920      -6.08723678       0.00032602       0.00011339       0.04897206
Mo      -3.15386569       7.28346968      -0.00094555       0.00201909      -0.00267472       0.00102793
S       -3.15383269       5.46260624      -7.65063236       0.00011261       0.00001311      -0.08408587
S       -1.57693798       6.37303007      -1.56648817       0.00009873      -0.00017149       0.00340286
S       -3.15377204       7.28361662       4.51932980      -0.02115247      -0.00274851      -0.02257994
S       -3.15383182       5.46260533      -4.52222824       0.00015529       0.00001594       0.03816057
S       -1.57693506       6.37303988       1.56634044       0.00026688       0.00008433      -0.00364325
S       -3.15394858       7.28322945       7.65415519      -0.00120328      -0.00196329      -0.01279252
Mo       3.15396456       0.00007420       6.08486104       0.01447505       0.00822496       0.00229317
Mo      -3.15383596       9.10433844      -6.08723678       0.00015864      -0.00002443       0.04889493
Mo      -4.73078156      10.01477595      -0.00095405      -0.00128812       0.00104567       0.00153623
S       -4.73075126       8.19390548      -7.65063236       0.00002288      -0.00002700      -0.08396169
S       -3.15386135       9.10433347      -1.56648530       0.00007430      -0.00008947       0.00309509
S       -4.73077298      10.01474565       4.51937822      -0.00001491       0.00003522      -0.00013370
S       -4.73075039       8.19390457      -4.52222824       0.00002468      -0.00006145       0.03795257
S       -3.15387242       9.10433675       1.56633536       0.00006068      -0.00000926      -0.00302233
S       -4.73077331      10.01474582       7.65384823       0.00000489       0.00001028      -0.01398732
Mo       4.73084511       2.73178751       6.08525590      -0.00033039       0.00762641       0.01330983
Mo       4.73075032       0.91044071      -6.08723678      -0.00003394      -0.00010362       0.04895406
Mo       3.15380789       1.82085633      -0.00095072      -0.00143442       0.00313983       0.00132438
S        3.15383502       0.00000775      -7.65063236       0.00006993      -0.00000129      -0.08393623
S        4.73072211       0.91043241      -1.56649356       0.00008999       0.00007405       0.00303416
S        3.15362101       1.82083739       4.51933103       0.01292905      -0.01705464      -0.02259126
S        3.15383590       0.00000685      -4.52222824       0.00009256       0.00001491       0.03790937
S        4.73071830       0.91043384       1.56633022       0.00001825       0.00003600      -0.00349361
S        3.15404105       1.82087748       7.65415374       0.00236670      -0.00012187      -0.01274110
Mo       3.15583922       5.46141290       6.08071200       0.01805094      -0.01057778      -0.01026102
Mo       3.15383175       3.64173995      -6.08723678      -0.00008562       0.00021212       0.04895535
Mo       1.57689065       4.55216651      -0.00096234      -0.00046306       0.00106572       0.00400064
S        1.57691645       2.73130699      -7.65063236       0.00003677       0.00011313      -0.08385910
S        3.15380007       3.64173223      -1.56649811       0.00008587       0.00016404       0.00336686
S        1.57689119       4.55220034       4.51997934      -0.00003471      -0.02295147       0.00656660
S        1.57691733       2.73130609      -4.52222824       0.00002725       0.00018049       0.03800579
S        3.15379263       3.64173030       1.56634308      -0.00026894       0.00016635      -0.00358875
S        1.57688894       4.55391566       7.66118694      -0.00002057       0.01701710       0.14655159
Mo       1.57688664       8.19622553       6.08071362      -0.00001928       0.02090153      -0.00991649
Mo       1.57691318       6.37303920      -6.08723678       0.00000540       0.00010619       0.04893863
Mo      -0.00002193       7.28346927      -0.00095815       0.00163419      -0.00191367       0.00357255
S       -0.00000212       5.46260624      -7.65063236       0.00008716       0.00008382      -0.08375394
S        1.57688851       6.37303071      -1.56649406      -0.00002905       0.00000797       0.00346662
S        0.00001813       7.28342173       4.51998076      -0.01999367       0.01145375       0.00652777
S       -0.00000124       5.46260533      -4.52222824       0.00010824       0.00010104       0.03808112
S        1.57689018       6.37303206       1.56636980      -0.00001003      -0.00004371      -0.00281896
S        0.00150570       7.28256014       7.66118791       0.01483321      -0.00857617       0.14663078
Mo       6.30814419      -0.00016603       6.08525698       0.00637505      -0.00417856       0.01326046
Mo      -0.00000539       9.10433844      -6.08723678       0.00012547      -0.00020543       0.04897386
Mo      -1.57694992      10.01477432      -0.00094497       0.00242712      -0.00077005       0.00161054
S       -1.57692069       8.19390548      -7.65063236       0.00017535      -0.00003985      -0.08371563
S       -0.00003077       9.10432821      -1.56649092       0.00019669      -0.00001157       0.00337637
S       -1.57705022      10.01458725       4.51932797      -0.00830981       0.01970828      -0.02257686
S       -1.57691981       8.19390457      -4.52222824       0.00022111      -0.00006248       0.03785924
S       -0.00003233       9.10432186       1.56633989       0.00004474      -0.00027331      -0.00364145
S       -1.57680413      10.01493126       7.65415726       0.00104464       0.00209339      -0.01285217
Mo       7.88455203       2.73127749       6.08499506       0.00004114       0.00012136      -0.00293749
Mo       7.88458089       0.91044071      -6.08723678      -0.00009667      -0.00041266       0.04898800
Mo       6.30762265       1.82085375      -0.00095271       0.00245206       0.00144702       0.00079858
S        6.30766559       0.00000775      -7.65063236       0.00005168      -0.00011956      -0.08394292
S        7.88455686       0.91043227      -1.56650193       0.00001388      -0.00013087       0.00318405
S        6.30756818       1.82080625       4.51926241      -0.00239653      -0.00138017       0.00325707
S        6.30766647       0.00000685      -4.52222824       0.00009333      -0.00016275       0.03804564
S        7.88455520       0.91042677       1.56635142       0.00001183      -0.00015144      -0.00259784
S        6.30763996       1.82084813       7.65408530       0.00187562       0.00106392      -0.00334243
Mo       6.30725199       5.46222094       6.08526031      -0.00654783      -0.00346199       0.01319542
Mo       6.30766232       3.64173995      -6.08723678      -0.00032884       0.00006556       0.04897257
Mo       4.73070865       4.55216318      -0.00093833      -0.00166068       0.00042423      -0.00067003
S        4.73074702       2.73130699      -7.65063236      -0.00003780       0.00003882      -0.08403548
S        6.30763099       3.64173284      -1.56649510      -0.00012084       0.00008922       0.00324679
S        4.73085849       4.55206955       4.51945938       0.02490293      -0.01438301      -0.02482092
S        4.73074790       2.73130609      -4.52222824      -0.00005888       0.00010182       0.03813023
S        6.30762574       3.64173409       1.56634858      -0.00017329       0.00010799      -0.00263821
S        4.73044230       4.55230736       7.65456157      -0.01859242       0.01069116       0.00231296
Mo       4.73488732       8.19628898       6.08113997       0.07146793       0.04119550      -0.03679609
Mo       4.73074375       6.37303920      -6.08723678      -0.00034299       0.00009179       0.04894995
Mo       3.15379649       7.28346745      -0.00095951      -0.00077287      -0.00113540       0.00336789
S        3.15382845       5.46260624      -7.65063236      -0.00005811       0.00006248      -0.08372720
S        4.73071368       6.37303072      -1.56649854      -0.00010927      -0.00012958       0.00343191
S        3.15375686       7.28342156       4.51998267       0.01989931       0.01145889       0.00643547
S        3.15382933       5.46260533      -4.52222824      -0.00009565       0.00008716       0.03805387
S        4.73071092       6.37304082       1.56634018      -0.00028282       0.00009616      -0.00359620
S        3.15227212       7.28256418       7.66118340      -0.01477124      -0.00854300       0.14661999
Mo       9.46096572      -0.00016892       6.08526145      -0.00625627      -0.00402532       0.01312162
Mo       3.15382518       9.10433844      -6.08723678      -0.00014604      -0.00028154       0.04897232
Mo       1.57688506      10.01476582      -0.00093988       0.00091583      -0.00004499      -0.00115160
S        1.57690988       8.19390548      -7.65063236      -0.00001028      -0.00007096      -0.08368761
S        3.15380022       9.10432838      -1.56649787      -0.00017509      -0.00003394       0.00344296
S        1.57688237      10.01490112       4.51946158       0.00000977       0.02882155      -0.02476898
S        1.57691076       8.19390457      -4.52222824      -0.00001183      -0.00008176       0.03798805
S        3.15380476       9.10432028       1.56634034      -0.00002905      -0.00026045      -0.00366999
S        1.57688323      10.01442113       7.65456523      -0.00002108      -0.02138541       0.00229831
Mo      -1.57705497       2.73179366       6.08526042       0.00028462       0.00751225       0.01317305
Mo      11.03841147       0.91044071      -6.08723678       0.00001208      -0.00016301       0.04895483
Mo       9.46148830       1.82084591      -0.00095062      -0.00126653       0.00164576       0.00094359
S        9.46149617       0.00000775      -7.65063236      -0.00006196      -0.00012367      -0.08403445
S       11.03838888       0.91043219      -1.56650218      -0.00011878       0.00009282       0.00309664
S        9.46153806       1.82080764       4.51926463       0.00246363      -0.00141436       0.00330053
S        9.46149704       0.00000685      -4.52222824      -0.00012264      -0.00015452       0.03812226
S       11.03839322       0.91042871       1.56633511      -0.00005836       0.00009667      -0.00349361
S        9.46146994       1.82085025       7.65408674      -0.00188282       0.00107883      -0.00336557
Mo      -3.15346897       5.46222546       6.08525859       0.00660028      -0.00350493       0.01321084
Mo       9.46149290       3.64173995      -6.08723678       0.00024631       0.00014192       0.04895355
Mo       7.88454638       4.55217682      -0.00094875       0.00046023      -0.00192756       0.00087623
S        7.88457760       2.73130699      -7.65063236      -0.00002108      -0.00004911      -0.08425711
S        9.46146994       3.64173005      -1.56649579       0.00015067       0.00007482       0.00325527
S        7.88455013       4.55223084       4.51925922       0.00000848       0.00281870       0.00333421
S        7.88457847       2.73130609      -4.52222824      -0.00002725      -0.00005862       0.03838091
S        9.46147156       3.64173074       1.56635209       0.00017252       0.00009256      -0.00262407
S        7.88455346       4.55214805       7.65409147       0.00000926      -0.00214533      -0.00345993
Mo      -4.73076770       8.19370558       6.08485974      -0.00008433      -0.01672785       0.00238238
Mo       7.88457433       6.37303920      -6.08723678      -0.00002443       0.00012161       0.04892886
Mo       6.30763578       7.28347028      -0.00094857      -0.00262612      -0.00118836       0.00031650
S        6.30765903       5.46260624      -7.65063236      -0.00010516      -0.00000617      -0.08410721
S        7.88454859       6.37303271      -1.56649062      -0.00000591      -0.00015041       0.00304213
S        6.30754846       7.28361387       4.51933055       0.02119103      -0.00275545      -0.02254626
S        6.30765990       5.46260533      -4.52222824      -0.00017072      -0.00000129       0.03817343
S        7.88454464       6.37303906       1.56632878       0.00000694      -0.00012058      -0.00343499
S        6.30772596       7.28322972       7.65415479       0.00125161      -0.00197024      -0.01277350
Mo      -0.00016564       0.00007377       6.08485982      -0.01457558       0.00829824       0.00219315