Mo S Mo S Mo S Mo S Mo S Mo S Mo S Mo S Mo S Mo S Mo S Mo S Mo S Mo S Mo S Mo S Pd
           1
    12.615322    0.000000    0.000000
    -6.307674   10.925197    0.000000
     0.000000    0.000000   30.301260
 Mo  S   Mo  S   Mo  S   Mo  S   Mo  S   Mo  S   Mo  S   Mo  S   Mo  S   Mo  S   Mo  S   Mo  S   Mo  S   Mo  S   Mo  S   Mo  S   Pd 
   3   6   3   6   3   6   3   6   3   6   3   6   3   6   3   6   3   6   3   6   3   6   3   6   3   6   3   6   3   6   3   6   1
Direct configuration=     1
  0.24999768  0.24999827  0.20081788
  0.16666748  0.08333399  0.79910943
  0.08333162  0.16666671  0.99996873
  0.00000075  0.00000069  0.74751436
  0.16666516  0.08333376  0.94830552
  0.08333117  0.16666520  0.14914734
  0.00000069  0.00000058  0.85075774
  0.16666510  0.08333364  0.05168945
  0.08333127  0.16666520  0.25259575
  0.24999753  0.49999827  0.20081788
  0.16666743  0.33333399  0.79910943
  0.08333229  0.41666555  0.99996903
  0.00000070  0.25000069  0.74751436
  0.16666528  0.33333329  0.94830568
  0.08333090  0.41666497  0.14914729
  0.00000074  0.25000058  0.85075774
  0.16666522  0.33333318  0.05168949
  0.08333096  0.41666509  0.25259571
  0.24999744  0.74999838  0.20081788
  0.16666738  0.58333399  0.79910943
  0.08333183  0.66666613  0.99996890
  0.00000065  0.50000069  0.74751436
  0.16666516  0.58333295  0.94830602
  0.08333085  0.66666497  0.14914729
  0.00000069  0.50000058  0.85075774
  0.16666502  0.58333306  0.05168936
  0.08333085  0.66666497  0.25259575
  0.24999769  0.99999838  0.20081792
  0.16666743  0.83333399  0.79910943
  0.08333164  0.91666844  0.99996873
  0.00000070  0.75000069  0.74751436
  0.16666508  0.83333329  0.94830602
  0.08333110  0.91666497  0.14914729
  0.00000064  0.75000058  0.85075774
  0.16666474  0.83333341  0.05168920
  0.08333105  0.91666486  0.25259567
  0.49999748  0.24999827  0.20081780
  0.41666748  0.08333399  0.79910943
  0.33333111  0.16666728  0.99996878
  0.25000075  0.00000069  0.74751436
  0.41666499  0.08333341  0.94830581
  0.33333107  0.16666520  0.14914729
  0.25000069  0.00000058  0.85075774
  0.41666516  0.08333376  0.05168936
  0.33333111  0.16666509  0.25259575
  0.49999773  0.49999827  0.20081788
  0.41666743  0.33333399  0.79910943
  0.33333180  0.41666717  0.99996890
  0.25000070  0.25000069  0.74751436
  0.41666474  0.33333341  0.94830564
  0.33333100  0.41666497  0.14914729
  0.25000074  0.25000058  0.85075774
  0.41666484  0.33333341  0.05168945
  0.33333100  0.41666497  0.25259571
  0.49999754  0.74999838  0.20081792
  0.41666738  0.58333399  0.79910943
  0.33333263  0.66666613  0.99996894
  0.25000065  0.50000069  0.74751436
  0.41666492  0.58333306  0.94830568
  0.33333080  0.66666486  0.14914734
  0.25000069  0.50000058  0.85075774
  0.41666512  0.58333306  0.05168957
  0.33333095  0.66666497  0.25259575
  0.49999749  0.99999838  0.20081788
  0.41666743  0.83333399  0.79910943
  0.33333260  0.91666717  0.99996903
  0.25000070  0.75000069  0.74751436
  0.41666497  0.83333306  0.94830581
  0.33333086  0.91666509  0.14914721
  0.25000064  0.75000058  0.85075774
  0.41666528  0.83333329  0.05168940
  0.33333090  0.91666497  0.25259588
  0.74999786  0.24999861  0.20081792
  0.66666748  0.08333399  0.79910943
  0.58333190  0.16666647  0.99996873
  0.50000075  0.00000069  0.74751436
  0.66666535  0.08333353  0.94830560
  0.58333097  0.16666520  0.14914729
  0.50000069  0.00000058  0.85075774
  0.66666525  0.08333353  0.05168945
  0.58333101  0.16666509  0.25259571
  0.74999779  0.49999838  0.20081796
  0.66666743  0.33333399  0.79910943
  0.58333011  0.41666659  0.99996882
  0.50000070  0.25000069  0.74751436
  0.66666490  0.33333353  0.94830589
  0.58333110  0.41666497  0.14914729
  0.50000074  0.25000058  0.85075774
  0.66666474  0.33333341  0.05168928
  0.58333095  0.41666486  0.25259571
  0.74999788  0.74999827  0.20081788
  0.66666738  0.58333399  0.79910943
  0.58333100  0.66666647  0.99996886
  0.50000065  0.50000069  0.74751436
  0.66666472  0.58333306  0.94830572
  0.58333095  0.66666497  0.14914734
  0.50000069  0.50000058  0.85075774
  0.66666487  0.58333318  0.05168936
  0.58333090  0.66666486  0.25259571
  0.74999781  0.99999861  0.20081796
  0.66666743  0.83333399  0.79910943
  0.58333244  0.91666705  0.99996869
  0.50000070  0.75000069  0.74751436
  0.66666507  0.83333306  0.94830560
  0.58333096  0.91666509  0.14914725
  0.50000064  0.75000058  0.85075774
  0.66666502  0.83333318  0.05168945
  0.58333086  0.91666509  0.25259588
  0.99999780  0.24999850  0.20081788
  0.91666748  0.08333399  0.79910943
  0.83333196  0.16666578  0.99996882
  0.75000075  0.00000069  0.74751436
  0.91666525  0.08333353  0.94830552
  0.83333107  0.16666520  0.14914734
  0.75000069  0.00000058  0.85075774
  0.91666535  0.08333353  0.05168949
  0.83333113  0.16666532  0.25259571
  0.99999785  0.49999850  0.20081784
  0.91666743  0.33333399  0.79910943
  0.83333128  0.41666613  0.99996890
  0.75000070  0.25000069  0.74751436
  0.91666522  0.33333318  0.94830593
  0.83333102  0.41666520  0.14914729
  0.75000074  0.25000058  0.85075774
  0.91666502  0.33333318  0.05168932
  0.83333116  0.41666509  0.25259580
  0.99999784  0.74999838  0.20081788
  0.91666738  0.58333399  0.79910943
  0.83333103  0.66666694  0.99996869
  0.75000065  0.50000069  0.74751436
  0.91666497  0.58333318  0.94830597
  0.83333110  0.66666486  0.14914734
  0.75000069  0.50000058  0.85075774
  0.91666473  0.58333329  0.05168920
  0.83333120  0.66666486  0.25259575
  0.99999805  0.99999850  0.20081788
  0.91666743  0.83333399  0.79910943
  0.83333163  0.91666763  0.99996882
  0.75000070  0.75000069  0.74751436
  0.91666484  0.83333341  0.94830572
  0.83333106  0.91666509  0.14914729
  0.75000064  0.75000058  0.85075774
  0.91666494  0.83333341  0.05168928
  0.83333100  0.91666497  0.25259580
  0.41667249  0.58333041  0.30539984
Mo S Mo S Mo S Mo S Mo S Mo S Mo S Mo S Mo S Mo S Mo S Mo S Mo S Mo S Mo S Mo S Pd
           1
    12.615322    0.000000    0.000000
    -6.307674   10.925197    0.000000
     0.000000    0.000000   30.301260
 Mo  S   Mo  S   Mo  S   Mo  S   Mo  S   Mo  S   Mo  S   Mo  S   Mo  S   Mo  S   Mo  S   Mo  S   Mo  S   Mo  S   Mo  S   Mo  S   Pd 
   3   6   3   6   3   6   3   6   3   6   3   6   3   6   3   6   3   6   3   6   3   6   3   6   3   6   3   6   3   6   3   6   1
Direct configuration=     1
  0.24977690  0.24955678  0.20068936
  0.16666745  0.08333403  0.79910945
  0.08333067  0.16666533  0.99996859
  0.00000071  0.00000071  0.74751438
  0.16666505  0.08333337  0.94830246
  0.08334576  0.16666420  0.14914671
  0.00000074  0.00000063  0.85075775
  0.16666460  0.08333266  0.05169230
  0.08331432  0.16666799  0.25260183
  0.24978314  0.49989147  0.20067538
  0.16666744  0.33333403  0.79910945
  0.08333204  0.41666613  0.99996916
  0.00000070  0.25000071  0.74751438
  0.16666535  0.33333317  0.94830253
  0.08331682  0.41665807  0.14915095
  0.00000072  0.25000063  0.85075775
  0.16666605  0.33333298  0.05169237
  0.08336068  0.41667995  0.25261537
  0.24977705  0.75021890  0.20068930
  0.16666743  0.58333403  0.79910945
  0.08333144  0.66666713  0.99996879
  0.00000068  0.50000071  0.74751438
  0.16666538  0.58333320  0.94830287
  0.08334559  0.66668058  0.14914660
  0.00000071  0.50000063  0.85075775
  0.16666606  0.58333409  0.05169226
  0.08331388  0.66664514  0.25260188
  0.25001402  0.00000679  0.20081215
  0.16666742  0.83333403  0.79910945
  0.08333197  0.91666777  0.99996851
  0.00000067  0.75000071  0.74751438
  0.16666518  0.83333357  0.94830296
  0.08333126  0.91666499  0.14914820
  0.00000070  0.75000062  0.85075775
  0.16666445  0.83333387  0.05169209
  0.08333124  0.91666501  0.25259175
  0.50003047  0.25004469  0.20082518
  0.41666746  0.08333403  0.79910945
  0.33333125  0.16666577  0.99996862
  0.25000071  0.00000071  0.74751438
  0.41666484  0.08333327  0.94830269
  0.33331557  0.16666403  0.14914664
  0.25000074  0.00000063  0.85075775
  0.41666460  0.08333340  0.05169192
  0.33335070  0.16666770  0.25260183
  0.50010546  0.49989148  0.20067522
  0.41666744  0.33333403  0.79910945
  0.33333185  0.41666677  0.99996824
  0.25000070  0.25000071  0.74751438
  0.41666458  0.33333332  0.94830254
  0.33333344  0.41666986  0.14916803
  0.25000073  0.25000063  0.85075775
  0.41666390  0.33333315  0.05169234
  0.33341176  0.41682687  0.25283394
  0.50010501  0.75021307  0.20067528
  0.41666743  0.58333403  0.79910945
  0.33333247  0.66666709  0.99996838
  0.25000069  0.50000071  0.74751438
  0.41666509  0.58333325  0.94830267
  0.33333347  0.66666274  0.14916808
  0.25000071  0.50000063  0.85075775
  0.41666528  0.58333338  0.05169322
  0.33341196  0.66658387  0.25283398
  0.50003070  0.99998480  0.20082522
  0.41666742  0.83333403  0.79910945
  0.33333198  0.91666762  0.99996881
  0.25000067  0.75000071  0.74751438
  0.41666494  0.83333309  0.94830278
  0.33331547  0.91665050  0.14914654
  0.25000070  0.75000062  0.85075775
  0.41666453  0.83333251  0.05169224
  0.33335072  0.91668198  0.25260195
  0.74999733  0.24999801  0.20081657
  0.66666746  0.08333403  0.79910945
  0.58332988  0.16666553  0.99996856
  0.50000071  0.00000071  0.74751438
  0.66666517  0.08333326  0.94830242
  0.58332339  0.16666118  0.14914437
  0.50000074  0.00000063  0.85075775
  0.66666478  0.08333276  0.05169262
  0.58333100  0.16666502  0.25259958
  0.74995079  0.49996544  0.20082533
  0.66666745  0.33333403  0.79910945
  0.58333070  0.41666646  0.99996903
  0.50000070  0.25000071  0.74751438
  0.66666464  0.33333338  0.94830264
  0.58333829  0.41665789  0.14915087
  0.50000073  0.25000063  0.85075775
  0.66666428  0.33333349  0.05169252
  0.58331619  0.41667966  0.25261529
  0.75043848  0.75021887  0.20068935
  0.66666743  0.58333403  0.79910945
  0.58333143  0.66666692  0.99996833
  0.50000069  0.50000071  0.74751438
  0.66666466  0.58333325  0.94830253
  0.58332619  0.66666272  0.14916814
  0.50000072  0.50000063  0.85075775
  0.66666491  0.58333418  0.05169225
  0.58316925  0.66658424  0.25283383
  0.74995058  0.99998454  0.20082536
  0.66666742  0.83333403  0.79910945
  0.58333194  0.91666684  0.99996898
  0.50000068  0.75000071  0.74751438
  0.66666498  0.83333311  0.94830255
  0.58333792  0.91667922  0.14915095
  0.50000070  0.75000062  0.85075775
  0.66666497  0.83333237  0.05169225
  0.58331602  0.91663529  0.25261541
  0.00001180  0.25004525  0.20082533
  0.91666746  0.08333403  0.79910945
  0.83333231  0.16666481  0.99996863
  0.75000071  0.00000071  0.74751438
  0.91666528  0.08333325  0.94830241
  0.83333450  0.16666131  0.14914445
  0.75000074  0.00000063  0.85075775
  0.91666547  0.08333293  0.05169208
  0.83333105  0.16666521  0.25259962
  0.00001209  0.49996585  0.20082527
  0.91666745  0.33333403  0.79910945
  0.83333190  0.41666771  0.99996869
  0.75000070  0.25000071  0.74751438
  0.91666518  0.33333312  0.94830262
  0.83333466  0.41667265  0.14914427
  0.75000073  0.25000063  0.85075775
  0.91666534  0.33333319  0.05169264
  0.83333114  0.41666508  0.25259978
  0.99999022  0.74998241  0.20081211
  0.91666744  0.58333403  0.79910945
  0.83333225  0.66666718  0.99996870
  0.75000069  0.50000071  0.74751438
  0.91666510  0.58333344  0.94830279
  0.83333190  0.66668032  0.14914662
  0.75000072  0.50000063  0.85075775
  0.91666508  0.58333402  0.05169187
  0.83332839  0.66664516  0.25260187
  0.99999025  0.00000675  0.20081211
  0.91666743  0.83333403  0.79910945
  0.83333258  0.91666817  0.99996869
  0.75000068  0.75000071  0.74751438
  0.91666515  0.83333366  0.94830259
  0.83333175  0.91665027  0.14914665
  0.75000071  0.75000062  0.85075775
  0.91666569  0.83333385  0.05169216
  0.83332809  0.91668180  0.25260184
  0.41667254  0.58333128  0.30527852
Mo S Mo S Mo S Mo S Mo S Mo S Mo S Mo S Mo S Mo S Mo S Mo S Mo S Mo S Mo S Mo S Pd
           1
    12.615322    0.000000    0.000000
    -6.307674   10.925197    0.000000
     0.000000    0.000000   30.301260
 Mo  S   Mo  S   Mo  S   Mo  S   Mo  S   Mo  S   Mo  S   Mo  S   Mo  S   Mo  S   Mo  S   Mo  S   Mo  S   Mo  S   Mo  S   Mo  S   Pd 
   3   6   3   6   3   6   3   6   3   6   3   6   3   6   3   6   3   6   3   6   3   6   3   6   3   6   3   6   3   6   3   6   1
Direct configuration=     1
  0.24964604  0.24929507  0.20064219
  0.16666745  0.08333403  0.79910945
  0.08333520  0.16667398  0.99996987
  0.00000071  0.00000071  0.74751438
  0.16666524  0.08333379  0.94830514
  0.08329316  0.16661757  0.14912442
  0.00000074  0.00000063  0.85075775
  0.16666471  0.08333283  0.05168963
  0.08330713  0.16666789  0.25258981
  0.24970761  0.49985349  0.20065328
  0.16666744  0.33333403  0.79910945
  0.08333401  0.41666350  0.99996902
  0.00000070  0.25000071  0.74751438
  0.16666540  0.33333370  0.94830563
  0.08323721  0.41661830  0.14912689
  0.00000072  0.25000063  0.85075775
  0.16666690  0.33333335  0.05168901
  0.08342189  0.41671051  0.25261931
  0.24964594  0.75035002  0.20064218
  0.16666743  0.58333403  0.79910945
  0.08333254  0.66665991  0.99996980
  0.00000068  0.50000071  0.74751438
  0.16666540  0.58333275  0.94830595
  0.08329309  0.66667440  0.14912431
  0.00000071  0.50000063  0.85075775
  0.16666689  0.58333441  0.05168892
  0.08330691  0.66663809  0.25258981
  0.25006086  0.00002996  0.20081391
  0.16666742  0.83333403  0.79910945
  0.08333037  0.91667056  0.99997001
  0.00000067  0.75000071  0.74751438
  0.16666524  0.83333335  0.94830575
  0.08333128  0.91666509  0.14914814
  0.00000070  0.75000062  0.85075775
  0.16666455  0.83333389  0.05168936
  0.08333128  0.91666505  0.25257765
  0.50004290  0.25006946  0.20083891
  0.41666746  0.08333403  0.79910945
  0.33333217  0.16667421  0.99996991
  0.25000071  0.00000071  0.74751438
  0.41666514  0.08333346  0.94830541
  0.33332154  0.16661738  0.14912435
  0.25000074  0.00000063  0.85075775
  0.41666465  0.08333347  0.05168870
  0.33335781  0.16666759  0.25258981
  0.50014289  0.49985350  0.20065297
  0.41666744  0.33333403  0.79910945
  0.33333221  0.41666965  0.99997212
  0.25000070  0.25000071  0.74751438
  0.41666499  0.33333376  0.94830559
  0.33330224  0.41660762  0.14917626
  0.25000073  0.25000063  0.85075775
  0.41666342  0.33333358  0.05168906
  0.33344183  0.41688712  0.25299850
  0.50014266  0.75028842  0.20065336
  0.41666743  0.58333403  0.79910945
  0.33333371  0.66666194  0.99997185
  0.25000069  0.50000071  0.74751438
  0.41666504  0.58333329  0.94830583
  0.33330206  0.66669382  0.14917628
  0.25000071  0.50000063  0.85075775
  0.41666522  0.58333328  0.05169076
  0.33344223  0.66655355  0.25299861
  0.50004289  0.99997224  0.20083889
  0.41666742  0.83333403  0.79910945
  0.33333662  0.91666556  0.99997038
  0.25000067  0.75000071  0.74751438
  0.41666538  0.83333306  0.94830584
  0.33332141  0.91670305  0.14912426
  0.25000070  0.75000062  0.85075775
  0.41666419  0.83333170  0.05168889
  0.33335773  0.91668915  0.25258982
  0.74999755  0.24999829  0.20081357
  0.66666746  0.08333403  0.79910945
  0.58333748  0.16666940  0.99996933
  0.50000071  0.00000071  0.74751438
  0.66666500  0.08333288  0.94830528
  0.58331519  0.16665707  0.14914733
  0.50000074  0.00000063  0.85075775
  0.66666457  0.08333228  0.05169033
  0.58333688  0.16666791  0.25259661
  0.74992658  0.49995318  0.20083894
  0.66666745  0.33333403  0.79910945
  0.58332741  0.41666761  0.99996839
  0.50000070  0.25000071  0.74751438
  0.66666445  0.33333361  0.94830556
  0.58337815  0.41661802  0.14912675
  0.50000073  0.25000063  0.85075775
  0.66666398  0.33333379  0.05169020
  0.58328556  0.41671011  0.25261924
  0.75070123  0.75035013  0.20064217
  0.66666743  0.58333403  0.79910945
  0.58332809  0.66666386  0.99997160
  0.50000069  0.50000071  0.74751438
  0.66666422  0.58333291  0.94830563
  0.58338847  0.66669382  0.14917625
  0.50000072  0.50000063  0.85075775
  0.66666437  0.58333453  0.05168895
  0.58310889  0.66655405  0.25299844
  0.74992627  0.99997235  0.20083891
  0.66666742  0.83333403  0.79910945
  0.58333400  0.91666670  0.99996787
  0.50000068  0.75000071  0.74751438
  0.66666452  0.83333302  0.94830568
  0.58337788  0.91675911  0.14912688
  0.50000070  0.75000062  0.85075775
  0.66666455  0.83333159  0.05168888
  0.58328551  0.91657437  0.25261934
  0.00002392  0.25006975  0.20083893
  0.91666746  0.08333403  0.79910945
  0.83333160  0.16666922  0.99996954
  0.75000071  0.00000071  0.74751438
  0.91666513  0.08333348  0.94830519
  0.83333869  0.16665711  0.14914745
  0.75000074  0.00000063  0.85075775
  0.91666547  0.08333315  0.05168886
  0.83332807  0.16666815  0.25259664
  0.00002412  0.49995350  0.20083891
  0.91666745  0.33333403  0.79910945
  0.83333040  0.41666258  0.99996953
  0.75000070  0.25000071  0.74751438
  0.91666563  0.33333332  0.94830554
  0.83333885  0.41668099  0.14914729
  0.75000073  0.25000063  0.85075775
  0.91666590  0.33333344  0.05169034
  0.83332823  0.41665922  0.25259671
  0.99996654  0.74993538  0.20081396
  0.91666744  0.58333403  0.79910945
  0.83332453  0.66666395  0.99996901
  0.75000069  0.50000071  0.74751438
  0.91666489  0.58333305  0.94830551
  0.83337831  0.66667412  0.14912437
  0.75000072  0.50000063  0.85075775
  0.91666496  0.58333375  0.05168872
  0.83332842  0.66663810  0.25258982
  0.99996645  0.00003011  0.20081377
  0.91666743  0.83333403  0.79910945
  0.83332614  0.91666529  0.99996973
  0.75000068  0.75000071  0.74751438
  0.91666477  0.83333344  0.94830533
  0.83337834  0.91670288  0.14912438
  0.75000071  0.75000062  0.85075775
  0.91666561  0.83333383  0.05168947
  0.83332828  0.91668902  0.25258977
  0.41667322  0.58333171  0.30516203
Mo S Mo S Mo S Mo S Mo S Mo S Mo S Mo S Mo S Mo S Mo S Mo S Mo S Mo S Mo S Mo S Pd
           1
    12.615322    0.000000    0.000000
    -6.307674   10.925197    0.000000
     0.000000    0.000000   30.301260
 Mo  S   Mo  S   Mo  S   Mo  S   Mo  S   Mo  S   Mo  S   Mo  S   Mo  S   Mo  S   Mo  S   Mo  S   Mo  S   Mo  S   Mo  S   Mo  S   Pd 
   3   6   3   6   3   6   3   6   3   6   3   6   3   6   3   6   3   6   3   6   3   6   3   6   3   6   3   6   3   6   3   6   1
Direct configuration=     1
  0.24955576  0.24911447  0.20061945
  0.16666745  0.08333403  0.79910945
  0.08333060  0.16666852  0.99996843
  0.00000071  0.00000071  0.74751438
  0.16666537  0.08333533  0.94830685
  0.08320888  0.16655293  0.14909595
  0.00000074  0.00000063  0.85075775
  0.16666490  0.08333446  0.05168926
  0.08330035  0.16665766  0.25257559
  0.24965947  0.49982903  0.20067614
  0.16666744  0.33333403  0.79910945
  0.08333118  0.41666447  0.99996899
  0.00000070  0.25000071  0.74751438
  0.16666706  0.33333490  0.94830699
  0.08314993  0.41657455  0.14910239
  0.00000072  0.25000063  0.85075775
  0.16666877  0.33333479  0.05168954
  0.08349092  0.41674498  0.25262092
  0.24955567  0.75044042  0.20061950
  0.16666743  0.58333403  0.79910945
  0.08332953  0.66666245  0.99996856
  0.00000068  0.50000071  0.74751438
  0.16666669  0.58333186  0.94830748
  0.08320883  0.66665489  0.14909585
  0.00000071  0.50000063  0.85075775
  0.16666856  0.58333361  0.05168899
  0.08330030  0.66664160  0.25257566
  0.25010301  0.00005115  0.20081029
  0.16666742  0.83333403  0.79910945
  0.08333101  0.91666823  0.99996900
  0.00000067  0.75000071  0.74751438
  0.16666552  0.83333299  0.94830783
  0.08333125  0.91666516  0.14915514
  0.00000070  0.75000062  0.85075775
  0.16666470  0.83333328  0.05168857
  0.08333124  0.91666518  0.25255991
  0.50004457  0.25009835  0.20084542
  0.41666746  0.08333403  0.79910945
  0.33333342  0.16666865  0.99996847
  0.25000071  0.00000071  0.74751438
  0.41666597  0.08333436  0.94830739
  0.33334104  0.16655269  0.14909591
  0.25000074  0.00000063  0.85075775
  0.41666587  0.08333468  0.05168584
  0.33335431  0.16665747  0.25257561
  0.50016669  0.49982908  0.20067595
  0.41666744  0.33333403  0.79910945
  0.33333220  0.41666867  0.99996899
  0.25000070  0.25000071  0.74751438
  0.41666400  0.33333519  0.94830699
  0.33325291  0.41650925  0.14919075
  0.25000073  0.25000063  0.85075775
  0.41666284  0.33333548  0.05168935
  0.33341891  0.41684131  0.25310998
  0.50016687  0.75033659  0.20067615
  0.41666743  0.58333403  0.79910945
  0.33333322  0.66666432  0.99996904
  0.25000069  0.50000071  0.74751438
  0.41666488  0.58333273  0.94830771
  0.33325289  0.66674289  0.14919077
  0.25000071  0.50000063  0.85075775
  0.41666538  0.58333305  0.05169420
  0.33341933  0.66657633  0.25311021
  0.50004456  0.99994527  0.20084546
  0.41666742  0.83333403  0.79910945
  0.33333507  0.91666854  0.99996880
  0.25000067  0.75000071  0.74751438
  0.41666529  0.83333139  0.94830749
  0.33334094  0.91678736  0.14909585
  0.25000070  0.75000062  0.85075775
  0.41666465  0.83332971  0.05168873
  0.33335428  0.91669587  0.25257561
  0.74999780  0.24999854  0.20080841
  0.66666746  0.08333403  0.79910945
  0.58333258  0.16666738  0.99996828
  0.50000071  0.00000071  0.74751438
  0.66666592  0.08333364  0.94830658
  0.58330510  0.16665203  0.14915530
  0.50000074  0.00000063  0.85075775
  0.66666537  0.08333289  0.05168894
  0.58334741  0.16667316  0.25259744
  0.74989775  0.49995120  0.20084544
  0.66666745  0.33333403  0.79910945
  0.58333054  0.41666618  0.99996873
  0.50000070  0.25000071  0.74751438
  0.66666458  0.33333375  0.94830699
  0.58342172  0.41657435  0.14910228
  0.50000073  0.25000063  0.85075775
  0.66666412  0.33333386  0.05168874
  0.58325102  0.41674464  0.25262082
  0.75088219  0.75044059  0.20061944
  0.66666743  0.58333403  0.79910945
  0.58332910  0.66666517  0.99996891
  0.50000069  0.50000071  0.74751438
  0.66666245  0.58333293  0.94830687
  0.58348677  0.66674306  0.14919071
  0.50000072  0.50000063  0.85075775
  0.66666254  0.58333457  0.05168897
  0.58315494  0.66657702  0.25310994
  0.74989785  0.99994547  0.20084544
  0.66666742  0.83333403  0.79910945
  0.58333341  0.91666786  0.99996855
  0.50000068  0.75000071  0.74751438
  0.66666351  0.83333149  0.94830706
  0.58342157  0.91684634  0.14910240
  0.50000070  0.75000062  0.85075775
  0.66666292  0.83332983  0.05168882
  0.58325111  0.91650552  0.25262096
  0.00005092  0.25009847  0.20084540
  0.91666746  0.08333403  0.79910945
  0.83333261  0.16666694  0.99996838
  0.75000071  0.00000071  0.74751438
  0.91666502  0.08333432  0.94830702
  0.83334390  0.16665211  0.14915541
  0.75000074  0.00000063  0.85075775
  0.91666519  0.08333396  0.05168607
  0.83332283  0.16667337  0.25259744
  0.00005078  0.49995128  0.20084542
  0.91666745  0.33333403  0.79910945
  0.83333188  0.41666669  0.99996844
  0.75000070  0.25000071  0.74751438
  0.91666585  0.33333315  0.94830692
  0.83334400  0.41669104  0.14915533
  0.75000073  0.25000063  0.85075775
  0.91666575  0.33333309  0.05168912
  0.83332297  0.41664866  0.25259746
  0.99994523  0.74989326  0.20081034
  0.91666744  0.58333403  0.79910945
  0.83332993  0.66666400  0.99996823
  0.75000069  0.50000071  0.74751438
  0.91666425  0.58333185  0.94830712
  0.83344319  0.66665470  0.14909592
  0.75000072  0.50000063  0.85075775
  0.91666402  0.58333260  0.05168586
  0.83333862  0.66664167  0.25257564
  0.99994528  0.00005118  0.20081029
  0.91666743  0.83333403  0.79910945
  0.83333049  0.91666871  0.99996847
  0.75000068  0.75000071  0.74751438
  0.91666373  0.83333355  0.94830698
  0.83344320  0.91678734  0.14909591
  0.75000071  0.75000062  0.85075775
  0.91666418  0.83333343  0.05168881
  0.83333862  0.91669589  0.25257555
  0.41667306  0.58333171  0.30502929
Mo S Mo S Mo S Mo S Mo S Mo S Mo S Mo S Mo S Mo S Mo S Mo S Mo S Mo S Mo S Mo S Pd
           1
    12.615322    0.000000    0.000000
    -6.307674   10.925197    0.000000
     0.000000    0.000000   30.301260
 Mo  S   Mo  S   Mo  S   Mo  S   Mo  S   Mo  S   Mo  S   Mo  S   Mo  S   Mo  S   Mo  S   Mo  S   Mo  S   Mo  S   Mo  S   Mo  S   Pd 
   3   6   3   6   3   6   3   6   3   6   3   6   3   6   3   6   3   6   3   6   3   6   3   6   3   6   3   6   3   6   3   6   1
Direct configuration=     1
  0.24952419  0.24905131  0.20061534
  0.16666745  0.08333403  0.79910945
  0.08333195  0.16666893  0.99996862
  0.00000071  0.00000071  0.74751438
  0.16666528  0.08333549  0.94830726
  0.08312765  0.16649589  0.14907107
  0.00000074  0.00000063  0.85075775
  0.16666501  0.08333507  0.05168885
  0.08329245  0.16664153  0.25256563
  0.24966872  0.49983371  0.20071254
  0.16666744  0.33333403  0.79910945
  0.08333150  0.41666529  0.99996975
  0.00000070  0.25000071  0.74751438
  0.16666719  0.33333516  0.94830725
  0.08309817  0.41654861  0.14908859
  0.00000072  0.25000063  0.85075775
  0.16667044  0.33333532  0.05168931
  0.08353790  0.41676842  0.25262623
  0.24952426  0.75047187  0.20061544
  0.16666743  0.58333403  0.79910945
  0.08333090  0.66666336  0.99996867
  0.00000068  0.50000071  0.74751438
  0.16666673  0.58333137  0.94830773
  0.08312765  0.66663078  0.14907102
  0.00000071  0.50000063  0.85075775
  0.16667020  0.58333439  0.05168873
  0.08329247  0.66664990  0.25256567
  0.25013473  0.00006693  0.20080009
  0.16666742  0.83333403  0.79910945
  0.08333122  0.91666806  0.99996940
  0.00000067  0.75000071  0.74751438
  0.16666549  0.83333293  0.94830811
  0.08333119  0.91666515  0.14916313
  0.00000070  0.75000062  0.85075775
  0.16666482  0.83333297  0.05168821
  0.08333122  0.91666522  0.25254458
  0.50004109  0.25010894  0.20084313
  0.41666746  0.08333403  0.79910945
  0.33333285  0.16666894  0.99996860
  0.25000071  0.00000071  0.74751438
  0.41666632  0.08333456  0.94830698
  0.33336516  0.16649566  0.14907104
  0.25000074  0.00000063  0.85075775
  0.41666700  0.08333532  0.05168353
  0.33334604  0.16664142  0.25256563
  0.50016217  0.49983367  0.20071241
  0.41666744  0.33333403  0.79910945
  0.33333245  0.41666880  0.99996942
  0.25000070  0.25000071  0.74751438
  0.41666394  0.33333549  0.94830727
  0.33321012  0.41642370  0.14921768
  0.25000073  0.25000063  0.85075775
  0.41666157  0.33333616  0.05168904
  0.33335268  0.41670883  0.25315628
  0.50016231  0.75032747  0.20071252
  0.41666743  0.58333403  0.79910945
  0.33333310  0.66666449  0.99996940
  0.25000069  0.50000071  0.74751438
  0.41666484  0.58333261  0.94830777
  0.33321017  0.66678569  0.14921777
  0.25000071  0.50000063  0.85075775
  0.41666533  0.58333288  0.05169631
  0.33335314  0.66664247  0.25315650
  0.50004108  0.99993123  0.20084318
  0.41666742  0.83333403  0.79910945
  0.33333439  0.91666739  0.99996883
  0.25000067  0.75000071  0.74751438
  0.41666547  0.83333125  0.94830776
  0.33336509  0.91686850  0.14907102
  0.25000070  0.75000062  0.85075775
  0.41666372  0.83332800  0.05168845
  0.33334601  0.91670373  0.25256562
  0.74999778  0.24999851  0.20080704
  0.66666746  0.08333403  0.79910945
  0.58333288  0.16666715  0.99996773
  0.50000071  0.00000071  0.74751438
  0.66666618  0.08333392  0.94830682
  0.58329617  0.16664759  0.14916536
  0.50000074  0.00000063  0.85075775
  0.66666655  0.08333498  0.05168785
  0.58335611  0.16667752  0.25259848
  0.74988714  0.49995473  0.20084316
  0.66666745  0.33333403  0.79910945
  0.58333078  0.41666665  0.99996946
  0.50000070  0.25000071  0.74751438
  0.66666474  0.33333384  0.94830711
  0.58344758  0.41654846  0.14908852
  0.50000073  0.25000063  0.85075775
  0.66666523  0.33333294  0.05168779
  0.58322746  0.41676825  0.25262613
  0.75094510  0.75047204  0.20061534
  0.66666743  0.58333403  0.79910945
  0.58332913  0.66666507  0.99996918
  0.50000069  0.50000071  0.74751438
  0.66666204  0.58333276  0.94830715
  0.58357236  0.66678589  0.14921767
  0.50000072  0.50000063  0.85075775
  0.66666186  0.58333566  0.05168862
  0.58328776  0.66664340  0.25315616
  0.74988719  0.99993135  0.20084320
  0.66666742  0.83333403  0.79910945
  0.58333284  0.91666767  0.99996937
  0.50000068  0.75000071  0.74751438
  0.66666333  0.83333132  0.94830728
  0.58344746  0.91689801  0.14908865
  0.50000070  0.75000062  0.85075775
  0.66666241  0.83332819  0.05168855
  0.58322766  0.91645848  0.25262624
  0.00006502  0.25010907  0.20084317
  0.91666746  0.08333403  0.79910945
  0.83333192  0.16666718  0.99996784
  0.75000071  0.00000071  0.74751438
  0.91666490  0.08333458  0.94830662
  0.83334846  0.16664767  0.14916542
  0.75000074  0.00000063  0.85075775
  0.91666469  0.08333455  0.05168372
  0.83331852  0.16667769  0.25259847
  0.00006486  0.49995481  0.20084315
  0.91666745  0.33333403  0.79910945
  0.83333164  0.41666592  0.99996789
  0.75000070  0.25000071  0.74751438
  0.91666588  0.33333320  0.94830711
  0.83334849  0.41669993  0.14916537
  0.75000073  0.25000063  0.85075775
  0.91666380  0.33333212  0.05168816
  0.83331864  0.41663996  0.25259849
  0.99992933  0.74986142  0.20080010
  0.91666744  0.58333403  0.79910945
  0.83332937  0.66666472  0.99996833
  0.75000069  0.50000071  0.74751438
  0.91666408  0.58333143  0.94830659
  0.83350038  0.66663064  0.14907106
  0.75000072  0.50000063  0.85075775
  0.91666344  0.58333148  0.05168357
  0.83335475  0.66664997  0.25256565
  0.99992936  0.00006702  0.20080012
  0.91666743  0.83333403  0.79910945
  0.83333001  0.91666723  0.99996855
  0.75000068  0.75000071  0.74751438
  0.91666363  0.83333362  0.94830734
  0.83350034  0.91686864  0.14907104
  0.75000071  0.75000062  0.85075775
  0.91666350  0.83333318  0.05168840
  0.83335484  0.91670386  0.25256559
  0.41667269  0.58333170  0.30491896
Mo S Mo S Mo S Mo S Mo S Mo S Mo S Mo S Mo S Mo S Mo S Mo S Mo S Mo S Mo S Mo S Pd
           1
    12.615322    0.000000    0.000000
    -6.307674   10.925197    0.000000
     0.000000    0.000000   30.301260
 Mo  S   Mo  S   Mo  S   Mo  S   Mo  S   Mo  S   Mo  S   Mo  S   Mo  S   Mo  S   Mo  S   Mo  S   Mo  S   Mo  S   Mo  S   Mo  S   Pd 
   3   6   3   6   3   6   3   6   3   6   3   6   3   6   3   6   3   6   3   6   3   6   3   6   3   6   3   6   3   6   3   6   1
Direct configuration=     1
  0.24950180  0.24900655  0.20061246
  0.16666745  0.08333403  0.79910945
  0.08333254  0.16666853  0.99996830
  0.00000071  0.00000071  0.74751438