
     Program PWSCF v.7.2 starts on  8Nov2023 at  0: 2:16 

     This program is part of the open-source Quantum ESPRESSO suite
     for quantum simulation of materials; please cite
         "P. Giannozzi et al., J. Phys.:Condens. Matter 21 395502 (2009);
         "P. Giannozzi et al., J. Phys.:Condens. Matter 29 465901 (2017);
         "P. Giannozzi et al., J. Chem. Phys. 152 154105 (2020);
          URL http://www.quantum-espresso.org", 
     in publications or presentations arising from this work. More details at
     http://www.quantum-espresso.org/quote

     Parallel version (MPI), running on    36 processors

     MPI processes distributed on     1 nodes
     769362 MiB available memory on the printing compute node when the environment starts
 
     Waiting for input...
     Reading input from standard input
Warning: card &CELL ignored
Warning: card / ignored

     Current dimensions of program PWSCF are:
     Max number of different atomic species (ntypx) = 10
     Max number of k-points (npk) =  40000
     Max angular momentum in pseudopotentials (lmaxx) =  4
     file Mo.pbe-spn-kjpaw_psl.1.0.0.UPF: wavefunction(s)  4S 4D renormalized
     file S.pbe-n-kjpaw_psl.1.0.0.UPF: wavefunction(s)  3S 3P renormalized
     file Pd.pbe-spn-kjpaw_psl.1.0.0.UPF: wavefunction(s)  4S 5S 4D renormalized
 
     R & G space division:  proc/nbgrp/npool/nimage =      36
     Subspace diagonalization in iterative solution of the eigenvalue problem:
     one sub-group per band group will be used
     custom distributed-memory algorithm (size of sub-group:  6*  6 procs)

 
     Parallelization info
     --------------------
     sticks:   dense  smooth     PW     G-vecs:    dense   smooth      PW
     Min         585     334     89               198743    85850   11735
     Max         586     335     90               198750    85861   11748
     Sum       21073   12049   3205              7154885  3090769  422587
 
     Using Slab Decomposition
 


     bravais-lattice index     =            0
     lattice parameter (alat)  =      23.8199  a.u.
     unit-cell volume          =   33861.0370 (a.u.)^3
     number of atoms/cell      =          195
     number of atomic types    =            3
     number of electrons       =      1718.00
     number of Kohn-Sham states=         1031
     kinetic-energy cutoff     =      77.0000  Ry
     charge density cutoff     =     539.0000  Ry
     scf convergence threshold =      1.0E-06
     mixing beta               =       0.2000
     number of iterations used =            8  plain     mixing
     energy convergence thresh.=      1.0E-04
     force convergence thresh. =      1.0E-03
     Exchange-correlation= SLA  PW   PBX  PBC
                           (   1   4   3   4   0   0   0)
     nstep                     =         1000


     Effective Screening Medium Method
     =================================
     Boundary Conditions: Vacuum-Slab-Vacuum
     total charge in unit cell        =   0.0000
     grid points for fit at edges     =        4 
 

     celldm(1)=  23.819920  celldm(2)=   0.000000  celldm(3)=   0.000000
     celldm(4)=   0.000000  celldm(5)=   0.000000  celldm(6)=   0.000000

     crystal axes: (cart. coord. in units of alat)
               a(1) = (   1.000000   0.000000   0.000000 )  
               a(2) = (  -0.499999   0.866026   0.000000 )  
               a(3) = (   0.000000   0.000000   2.893000 )  

     reciprocal axes: (cart. coord. in units 2 pi/alat)
               b(1) = (  1.000000  0.577349  0.000000 )  
               b(2) = (  0.000000  1.154700  0.000000 )  
               b(3) = (  0.000000  0.000000  0.345662 )  


     PseudoPot. # 1 for Mo read from file:
     ./pseudo/Mo.pbe-spn-kjpaw_psl.1.0.0.UPF
     MD5 check sum: 317bf72632116215fd98f72de1686f13
     Pseudo is Projector augmented-wave + core cor, Zval = 14.0
     Generated using 'atomic' code by A. Dal Corso  v.7.2
     Shape of augmentation charge: PSQ
     Using radial grid of 1229 points,  6 beta functions with: 
                l(1) =   0
                l(2) =   0
                l(3) =   1
                l(4) =   1
                l(5) =   2
                l(6) =   2
     Q(r) pseudized with 0 coefficients 


     PseudoPot. # 2 for S  read from file:
     ./pseudo/S.pbe-n-kjpaw_psl.1.0.0.UPF
     MD5 check sum: 8b7b5302570d38d5e87fed6a1065abda
     Pseudo is Projector augmented-wave + core cor, Zval =  6.0
     Generated using 'atomic' code by A. Dal Corso  v.7.2
     Shape of augmentation charge: PSQ
     Using radial grid of 1151 points,  6 beta functions with: 
                l(1) =   0
                l(2) =   0
                l(3) =   1
                l(4) =   1
                l(5) =   2
                l(6) =   2
     Q(r) pseudized with 0 coefficients 


     PseudoPot. # 3 for Pd read from file:
     ./pseudo/Pd.pbe-spn-kjpaw_psl.1.0.0.UPF
     MD5 check sum: a60571a671f2502b8a6a4569d20a6edb
     Pseudo is Projector augmented-wave + core cor, Zval = 18.0
     Generated using 'atomic' code by A. Dal Corso  v.7.2
     Shape of augmentation charge: PSQ
     Using radial grid of 1235 points,  6 beta functions with: 
                l(1) =   0
                l(2) =   0
                l(3) =   1
                l(4) =   1
                l(5) =   2
                l(6) =   2
     Q(r) pseudized with 0 coefficients 


     atomic species   valence    mass     pseudopotential
        Mo            14.00    95.95000     Mo( 1.00)
        S              6.00    32.06000     S ( 1.00)
        Pd            18.00   106.42000     Pd( 1.00)

     No symmetry found



   Cartesian axes

     site n.     atom                  positions (alat units)
         1           Mo  tau(   1) = (   0.0000010   0.1443372  -0.7272732  )
         2           Mo  tau(   2) = (   0.1249995   0.0721706  -0.2424038  )
         3           S   tau(   3) = (   0.0000015   0.1443386  -0.3667807  )
         4           S   tau(   4) = (   0.1250010   0.0721682  -0.6030489  )
         5           S   tau(   5) = (   0.1250010   0.0721683  -0.8514963  )
         6           S   tau(   6) = (   0.0000015   0.1443389  -0.1180260  )
         7           Mo  tau(   7) = (   0.0000222   0.1444187   0.2425595  )
         8           Mo  tau(   8) = (   0.1245966   0.0727010   0.7278826  )
         9           S   tau(   9) = (   0.0000166   0.1448419   0.6020343  )
        10           S   tau(  10) = (   0.1250561   0.0722903   0.3669179  )
        11           S   tau(  11) = (   0.1250140   0.0722444   0.1181576  )
        12           S   tau(  12) = (  -0.0013476   0.1442175   0.8515296  )
        13           Mo  tau(  13) = (  -0.1249989   0.3608437  -0.7272732  )
        14           Mo  tau(  14) = (   0.0000030   0.2886752  -0.2424042  )
        15           S   tau(  15) = (  -0.1249977   0.3608450  -0.3667802  )
        16           S   tau(  16) = (   0.0000012   0.2886747  -0.6030489  )
        17           S   tau(  17) = (   0.0000012   0.2886748  -0.8514963  )
        18           S   tau(  18) = (  -0.1249977   0.3608454  -0.1180274  )
        19           Mo  tau(  19) = (  -0.1249777   0.3609089   0.2425603  )
        20           Mo  tau(  20) = (  -0.0029637   0.2882853   0.7270120  )
        21           S   tau(  21) = (  -0.1256983   0.3625185   0.6019747  )
        22           S   tau(  22) = (   0.0000591   0.2887797   0.3669668  )
        23           S   tau(  23) = (   0.0000075   0.2887346   0.1181682  )
        24           S   tau(  24) = (  -0.1270233   0.3617098   0.8514678  )
        25           Mo  tau(  25) = (  -0.2499987   0.5773502  -0.7272732  )
        26           Mo  tau(  26) = (  -0.1249977   0.5051839  -0.2424055  )
        27           S   tau(  27) = (  -0.2499981   0.5773518  -0.3667809  )
        28           S   tau(  28) = (  -0.1249986   0.5051812  -0.6030489  )
        29           S   tau(  29) = (  -0.1249986   0.5051813  -0.8514963  )
        30           S   tau(  30) = (  -0.2499979   0.5773512  -0.1180266  )
        31           Mo  tau(  31) = (  -0.2499821   0.5774144   0.2425369  )
        32           Mo  tau(  32) = (  -0.1258229   0.5064885   0.7278520  )
        33           S   tau(  33) = (  -0.2493952   0.5788088   0.6023234  )
        34           S   tau(  34) = (  -0.1249462   0.5052707   0.3669162  )
        35           S   tau(  35) = (  -0.1249880   0.5052329   0.1181602  )
        36           S   tau(  36) = (  -0.2509230   0.5788413   0.8515814  )
        37           Mo  tau(  37) = (  -0.3749985   0.7938567  -0.7272732  )
        38           Mo  tau(  38) = (  -0.2500001   0.7216874  -0.2424031  )
        39           S   tau(  39) = (  -0.3749980   0.7938584  -0.3667800  )
        40           S   tau(  40) = (  -0.2499984   0.7216877  -0.6030489  )
        41           S   tau(  41) = (  -0.2499984   0.7216878  -0.8514963  )
        42           S   tau(  42) = (  -0.3749982   0.7938585  -0.1180264  )
        43           Mo  tau(  43) = (  -0.3749910   0.7939458   0.2425394  )
        44           Mo  tau(  44) = (  -0.2499391   0.7230231   0.7269923  )
        45           S   tau(  45) = (  -0.3746478   0.7955125   0.6023635  )
        46           S   tau(  46) = (  -0.2500018   0.7217675   0.3668983  )
        47           S   tau(  47) = (  -0.2499845   0.7217593   0.1181709  )
        48           S   tau(  48) = (  -0.3753625   0.7942039   0.8516391  )
        49           Mo  tau(  49) = (   0.2500010   0.1443372  -0.7272732  )
        50           Mo  tau(  50) = (   0.3750034   0.0721723  -0.2424032  )
        51           S   tau(  51) = (   0.2500017   0.1443391  -0.3667788  )
        52           S   tau(  52) = (   0.3750010   0.0721682  -0.6030489  )
        53           S   tau(  53) = (   0.3750010   0.0721683  -0.8514963  )
        54           S   tau(  54) = (   0.2500016   0.1443391  -0.1180271  )
        55           Mo  tau(  55) = (   0.2500120   0.1444423   0.2425270  )
        56           Mo  tau(  56) = (   0.3753385   0.0727176   0.7280385  )
        57           S   tau(  57) = (   0.2501061   0.1471948   0.6059873  )
        58           S   tau(  58) = (   0.3749665   0.0722824   0.3669588  )
        59           S   tau(  59) = (   0.3750194   0.0722259   0.1181828  )
        60           S   tau(  60) = (   0.2503224   0.1381707   0.8567863  )
        61           Mo  tau(  61) = (   0.1250012   0.3608437  -0.7272732  )
        62           Mo  tau(  62) = (   0.2500029   0.2886782  -0.2424031  )
        63           S   tau(  63) = (   0.1250024   0.3608455  -0.3667794  )
        64           S   tau(  64) = (   0.2500012   0.2886747  -0.6030489  )
        65           S   tau(  65) = (   0.2500012   0.2886748  -0.8514963  )
        66           S   tau(  66) = (   0.1250021   0.3608455  -0.1180270  )
        67           Mo  tau(  67) = (   0.1250146   0.3609220   0.2425310  )
        68           Mo  tau(  68) = (   0.2504060   0.2889449   0.7322230  )
        69           S   tau(  69) = (   0.1260377   0.3627995   0.6088284  )
        70           S   tau(  70) = (   0.2499668   0.2887692   0.3669710  )
        71           S   tau(  71) = (   0.2500114   0.2887581   0.1181457  )
        72           S   tau(  72) = (   0.1159817   0.3569446   0.8558923  )
        73           Mo  tau(  73) = (   0.0000014   0.5773502  -0.7272732  )
        74           Mo  tau(  74) = (   0.1250045   0.5051840  -0.2424036  )
        75           S   tau(  75) = (   0.0000030   0.5773520  -0.3667799  )
        76           S   tau(  76) = (   0.1250014   0.5051812  -0.6030489  )
        77           S   tau(  77) = (   0.1250014   0.5051813  -0.8514963  )
        78           S   tau(  78) = (   0.0000026   0.5773517  -0.1180274  )
        79           Mo  tau(  79) = (   0.0000277   0.5774027   0.2425352  )
        80           Mo  tau(  80) = (   0.1244123   0.5073284   0.7323387  )
        81           S   tau(  81) = (   0.0015839   0.5778224   0.6060731  )
        82           S   tau(  82) = (   0.1249885   0.5052105   0.3669878  )
        83           S   tau(  83) = (   0.1250163   0.5052440   0.1181546  )
        84           S   tau(  84) = (  -0.0063306   0.5826378   0.8568465  )
        85           Mo  tau(  85) = (  -0.1249984   0.7938567  -0.7272732  )
        86           Mo  tau(  86) = (   0.0000069   0.7216896  -0.2424039  )
        87           S   tau(  87) = (  -0.1249975   0.7938582  -0.3667782  )
        88           S   tau(  88) = (   0.0000016   0.7216877  -0.6030489  )
        89           S   tau(  89) = (   0.0000016   0.7216878  -0.8514963  )
        90           S   tau(  90) = (  -0.1249973   0.7938582  -0.1180279  )
        91           Mo  tau(  91) = (  -0.1249896   0.7939312   0.2425787  )
        92           Mo  tau(  92) = (  -0.0004661   0.7235602   0.7280479  )
        93           S   tau(  93) = (  -0.1246539   0.7952907   0.6028036  )
        94           S   tau(  94) = (   0.0000057   0.7217075   0.3669682  )
        95           S   tau(  95) = (  -0.0000058   0.7217536   0.1181837  )
        96           S   tau(  96) = (  -0.1254262   0.7948489   0.8523899  )
        97           Mo  tau(  97) = (   0.5000010   0.1443372  -0.7272732  )
        98           Mo  tau(  98) = (   0.6250001   0.0721662  -0.2424040  )
        99           S   tau(  99) = (   0.5000017   0.1443386  -0.3667801  )
       100           S   tau( 100) = (   0.6250010   0.0721682  -0.6030489  )
       101           S   tau( 101) = (   0.6250010   0.0721683  -0.8514963  )
       102           S   tau( 102) = (   0.5000020   0.1443388  -0.1180261  )
       103           Mo  tau( 103) = (   0.4999896   0.1444085   0.2425760  )
       104           Mo  tau( 104) = (   0.6249106   0.0734024   0.7271439  )
       105           S   tau( 105) = (   0.4997403   0.1454705   0.6028629  )
       106           S   tau( 106) = (   0.6250025   0.0722337   0.3669107  )
       107           S   tau( 107) = (   0.6249747   0.0722025   0.1181744  )
       108           S   tau( 108) = (   0.5004717   0.1456393   0.8518204  )
       109           Mo  tau( 109) = (   0.3750012   0.3608437  -0.7272732  )
       110           Mo  tau( 110) = (   0.4999991   0.2886761  -0.2424038  )
       111           S   tau( 111) = (   0.3750012   0.3608452  -0.3667804  )
       112           S   tau( 112) = (   0.5000012   0.2886747  -0.6030489  )
       113           S   tau( 113) = (   0.5000012   0.2886748  -0.8514963  )
       114           S   tau( 114) = (   0.3750014   0.3608455  -0.1180261  )
       115           Mo  tau( 115) = (   0.3749750   0.3609148   0.2425684  )
       116           Mo  tau( 116) = (   0.5011524   0.2898551   0.7275448  )
       117           S   tau( 117) = (   0.3735446   0.3613798   0.6062215  )
       118           S   tau( 118) = (   0.4999580   0.2887676   0.3669508  )
       119           S   tau( 119) = (   0.4999841   0.2887256   0.1181818  )
       120           S   tau( 120) = (   0.3822446   0.3659056   0.8554316  )
       121           Mo  tau( 121) = (   0.2500014   0.5773502  -0.7272732  )
       122           Mo  tau( 122) = (   0.3749983   0.5051825  -0.2424043  )
       123           S   tau( 123) = (   0.2500017   0.5773519  -0.3667810  )
       124           S   tau( 124) = (   0.3750014   0.5051812  -0.6030489  )
       125           S   tau( 125) = (   0.3750014   0.5051813  -0.8514963  )
       126           S   tau( 126) = (   0.2500018   0.5773519  -0.1180256  )
       127           Mo  tau( 127) = (   0.2499849   0.5773839   0.2425825  )
       128           Mo  tau( 128) = (   0.3768766   0.5074715   0.7281761  )
       129           S   tau( 129) = (   0.2486635   0.5776965   0.6062935  )
       130           S   tau( 130) = (   0.3749671   0.5052274   0.3670086  )
       131           S   tau( 131) = (   0.3749970   0.5052445   0.1181960  )
       132           S   tau( 132) = (   0.2571816   0.5830870   0.8554758  )
       133           Mo  tau( 133) = (   0.1250016   0.7938567  -0.7272732  )
       134           Mo  tau( 134) = (   0.2499995   0.7216883  -0.2424036  )
       135           S   tau( 135) = (   0.1250024   0.7938578  -0.3667813  )
       136           S   tau( 136) = (   0.2500016   0.7216877  -0.6030489  )
       137           S   tau( 137) = (   0.2500016   0.7216878  -0.8514963  )
       138           S   tau( 138) = (   0.1250024   0.7938579  -0.1180253  )
       139           Mo  tau( 139) = (   0.1249925   0.7938982   0.2425783  )
       140           Mo  tau( 140) = (   0.2504874   0.7240318   0.7276005  )
       141           S   tau( 141) = (   0.1247502   0.7949264   0.6029133  )
       142           S   tau( 142) = (   0.2499928   0.7217086   0.3669584  )
       143           S   tau( 143) = (   0.2499817   0.7217168   0.1181890  )
       144           S   tau( 144) = (   0.1251679   0.7955203   0.8518202  )
       145           Mo  tau( 145) = (   0.7500010   0.1443372  -0.7272732  )
       146           Mo  tau( 146) = (   0.8750038   0.0721696  -0.2424038  )
       147           S   tau( 147) = (   0.7500016   0.1443382  -0.3667789  )
       148           S   tau( 148) = (   0.8750010   0.0721682  -0.6030489  )
       149           S   tau( 149) = (   0.8750010   0.0721683  -0.8514963  )
       150           S   tau( 150) = (   0.7500016   0.1443384  -0.1180279  )
       151           Mo  tau( 151) = (   0.7499969   0.1443861   0.2425090  )
       152           Mo  tau( 152) = (   0.8747528   0.0730779   0.7263799  )
       153           S   tau( 153) = (   0.7495020   0.1453181   0.6020842  )
       154           S   tau( 154) = (   0.8749912   0.0722441   0.3668818  )
       155           S   tau( 155) = (   0.8750227   0.0722127   0.1181591  )
       156           S   tau( 156) = (   0.7499182   0.1456588   0.8509527  )
       157           Mo  tau( 157) = (   0.6250012   0.3608437  -0.7272732  )
       158           Mo  tau( 158) = (   0.7500028   0.2886769  -0.2424041  )
       159           S   tau( 159) = (   0.6250015   0.3608451  -0.3667792  )
       160           S   tau( 160) = (   0.7500012   0.2886747  -0.6030489  )
       161           S   tau( 161) = (   0.7500012   0.2886748  -0.8514963  )
       162           S   tau( 162) = (   0.6250016   0.3608454  -0.1180280  )
       163           Mo  tau( 163) = (   0.6249910   0.3608952   0.2425431  )
       164           Mo  tau( 164) = (   0.7494837   0.2899696   0.7262894  )
       165           S   tau( 165) = (   0.6246231   0.3621365   0.6018551  )
       166           S   tau( 166) = (   0.7500034   0.2887135   0.3668814  )
       167           S   tau( 167) = (   0.7500079   0.2887338   0.1181595  )
       168           S   tau( 168) = (   0.6260048   0.3625460   0.8512927  )
       169           Mo  tau( 169) = (   0.5000014   0.5773502  -0.7272732  )
       170           Mo  tau( 170) = (   0.6250029   0.5051841  -0.2424047  )
       171           S   tau( 171) = (   0.5000014   0.5773518  -0.3667794  )
       172           S   tau( 172) = (   0.6250014   0.5051812  -0.6030489  )
       173           S   tau( 173) = (   0.6250014   0.5051813  -0.8514963  )
       174           S   tau( 174) = (   0.5000016   0.5773516  -0.1180277  )
       175           Mo  tau( 175) = (   0.4999891   0.5774067   0.2425764  )
       176           Mo  tau( 176) = (   0.6253058   0.5066864   0.7263366  )
       177           S   tau( 177) = (   0.5001147   0.5786992   0.6018768  )
       178           S   tau( 178) = (   0.6250219   0.5052389   0.3668960  )
       179           S   tau( 179) = (   0.6249897   0.5052360   0.1181749  )
       180           S   tau( 180) = (   0.5022411   0.5798745   0.8515808  )
       181           Mo  tau( 181) = (   0.3750016   0.7938567  -0.7272732  )
       182           Mo  tau( 182) = (   0.5000025   0.7216901  -0.2424039  )
       183           S   tau( 183) = (   0.3750019   0.7938578  -0.3667793  )
       184           S   tau( 184) = (   0.5000016   0.7216877  -0.6030489  )
       185           S   tau( 185) = (   0.5000016   0.7216878  -0.8514963  )
       186           S   tau( 186) = (   0.3750020   0.7938579  -0.1180272  )
       187           Mo  tau( 187) = (   0.3749890   0.7939067   0.2425443  )
       188           Mo  tau( 188) = (   0.5002702   0.7230996   0.7264112  )
       189           S   tau( 189) = (   0.3747820   0.7948530   0.6019718  )
       190           S   tau( 190) = (   0.5000014   0.7217825   0.3669010  )
       191           S   tau( 191) = (   0.5000049   0.7217309   0.1181759  )
       192           S   tau( 192) = (   0.3757788   0.7958654   0.8513800  )
       193           Pd  tau( 193) = (   0.1298567   0.5028633   0.9631584  )
       194           Pd  tau( 194) = (   0.2489715   0.2959876   0.9631435  )
       195           Pd  tau( 195) = (  -0.0029354   0.2882992   0.9719455  )

     --------------------------------------------
     DFT-D3 Dispersion Correction (3-body terms):
     --------------------------------------------
       Reference C6 values for interpolation: 

         atom   Coordination number   C6
         S          0.000           268.01
         S          0.995           261.99
         S          1.990           251.62
         Mo         0.000          1691.79
         Mo         1.942          1004.01
         Mo        11.056           674.22
         Pd         0.000          1217.01
         Pd         1.863           573.90
         Pd         5.710           531.75

       Values used:

         atom   Coordination number  R0_AB[au]  C6      C8
         Mo        10.208            3.547    674.22  77634.20
         Mo        10.221            3.547    674.22  77634.20
         S          3.858            3.128    251.62  12327.25
         S          3.859            3.128    251.62  12327.25
         S          3.758            3.128    251.62  12327.25
         S          3.859            3.128    251.62  12327.25
         Mo        10.220            3.547    674.22  77634.20
         Mo        10.230            3.547    674.22  77634.20
         S          3.842            3.128    251.62  12327.25
         S          3.858            3.128    251.62  12327.25
         S          3.858            3.128    251.62  12327.25
         S          4.764            3.128    251.62  12327.25
         Mo        10.208            3.547    674.22  77634.20
         Mo        10.221            3.547    674.22  77634.20
         S          3.858            3.128    251.62  12327.25
         S          3.859            3.128    251.62  12327.25
         S          3.758            3.128    251.62  12327.25
         S          3.859            3.128    251.62  12327.25
         Mo        10.220            3.547    674.22  77634.20
         Mo        10.688            3.547    674.22  77634.20
         S          3.842            3.128    251.62  12327.25
         S          3.854            3.128    251.62  12327.25
         S          3.858            3.128    251.62  12327.25
         S          4.764            3.128    251.62  12327.25
         Mo        10.208            3.547    674.22  77634.20
         Mo        10.221            3.547    674.22  77634.20
         S          3.858            3.128    251.62  12327.25
         S          3.859            3.128    251.62  12327.25
         S          3.758            3.128    251.62  12327.25
         S          3.859            3.128    251.62  12327.25
         Mo        10.219            3.547    674.22  77634.20
         Mo        10.231            3.547    674.22  77634.20
         S          3.850            3.128    251.62  12327.25
         S          3.858            3.128    251.62  12327.25
         S          3.858            3.128    251.62  12327.25
         S          3.817            3.128    251.62  12327.25
         Mo        10.208            3.547    674.22  77634.20
         Mo        10.220            3.547    674.22  77634.20
         S          3.858            3.128    251.62  12327.25
         S          3.859            3.128    251.62  12327.25
         S          3.758            3.128    251.62  12327.25
         S          3.859            3.128    251.62  12327.25
         Mo        10.219            3.547    674.22  77634.20
         Mo        10.251            3.547    674.22  77634.20
         S          3.851            3.128    251.62  12327.25
         S          3.860            3.128    251.62  12327.25
         S          3.859            3.128    251.62  12327.25
         S          3.815            3.128    251.62  12327.25
         Mo        10.208            3.547    674.22  77634.20
         Mo        10.221            3.547    674.22  77634.20
         S          3.858            3.128    251.62  12327.25
         S          3.859            3.128    251.62  12327.25
         S          3.758            3.128    251.62  12327.25
         S          3.859            3.128    251.62  12327.25
         Mo        10.221            3.547    674.22  77634.20
         Mo        10.228            3.547    674.22  77634.20
         S          3.853            3.128    251.62  12327.25
         S          3.856            3.128    251.62  12327.25
         S          3.859            3.128    251.62  12327.25
         S          4.652            3.128    251.62  12327.25
         Mo        10.208            3.547    674.21  77634.20
         Mo        10.221            3.547    674.22  77634.20
         S          3.858            3.128    251.62  12327.25
         S          3.859            3.128    251.62  12327.25
         S          3.758            3.128    251.62  12327.25
         S          3.859            3.128    251.62  12327.25
         Mo        10.222            3.547    674.22  77634.20
         Mo        10.791            3.547    674.22  77634.20
         S          3.878            3.128    251.62  12327.25
         S          3.850            3.128    251.62  12327.25
         S          3.859            3.128    251.62  12327.25
         S          6.584            3.128    251.62  12327.25
         Mo        10.208            3.547    674.22  77634.20
         Mo        10.221            3.547    674.22  77634.20
         S          3.858            3.128    251.62  12327.25
         S          3.859            3.128    251.62  12327.25
         S          3.758            3.128    251.62  12327.25
         S          3.859            3.128    251.62  12327.25
         Mo        10.221            3.547    674.22  77634.20
         Mo        10.793            3.547    674.22  77634.20
         S          3.855            3.128    251.62  12327.25
         S          3.849            3.128    251.62  12327.25
         S          3.859            3.128    251.62  12327.25
         S          4.653            3.128    251.62  12327.25
         Mo        10.208            3.547    674.22  77634.20
         Mo        10.221            3.547    674.22  77634.20
         S          3.858            3.128    251.62  12327.25
         S          3.859            3.128    251.62  12327.25
         S          3.758            3.128    251.62  12327.25
         S          3.859            3.128    251.62  12327.25
         Mo        10.220            3.547    674.22  77634.20
         Mo        10.229            3.547    674.22  77634.20
         S          3.847            3.128    251.62  12327.25
         S          3.855            3.128    251.62  12327.25
         S          3.859            3.128    251.62  12327.25
         S          3.827            3.128    251.62  12327.25
         Mo        10.208            3.547    674.22  77634.20
         Mo        10.221            3.547    674.22  77634.20
         S          3.858            3.128    251.62  12327.25
         S          3.859            3.128    251.62  12327.25
         S          3.758            3.128    251.62  12327.25
         S          3.859            3.128    251.62  12327.25
         Mo        10.221            3.547    674.22  77634.20
         Mo        10.243            3.547    674.22  77634.20
         S          3.860            3.128    251.62  12327.25
         S          3.860            3.128    251.62  12327.25
         S          3.859            3.128    251.62  12327.25
         S          3.765            3.128    251.62  12327.25
         Mo        10.208            3.547    674.22  77634.20
         Mo        10.221            3.547    674.22  77634.20
         S          3.858            3.128    251.62  12327.25
         S          3.859            3.128    251.62  12327.25
         S          3.758            3.128    251.62  12327.25
         S          3.859            3.128    251.62  12327.25
         Mo        10.222            3.547    674.22  77634.20
         Mo        10.216            3.547    674.22  77634.20
         S          3.862            3.128    251.62  12327.25
         S          3.856            3.128    251.62  12327.25
         S          3.859            3.128    251.62  12327.25
         S          4.667            3.128    251.62  12327.25
         Mo        10.208            3.547    674.22  77634.20
         Mo        10.221            3.547    674.22  77634.20
         S          3.858            3.128    251.62  12327.25
         S          3.859            3.128    251.62  12327.25
         S          3.758            3.128    251.62  12327.25
         S          3.859            3.128    251.62  12327.25
         Mo        10.222            3.547    674.22  77634.20
         Mo        10.177            3.547    674.22  77634.20
         S          3.863            3.128    251.62  12327.25
         S          3.852            3.128    251.62  12327.25
         S          3.859            3.128    251.62  12327.25
         S          4.668            3.128    251.62  12327.25
         Mo        10.208            3.547    674.22  77634.20
         Mo        10.221            3.547    674.22  77634.20
         S          3.858            3.128    251.62  12327.25
         S          3.859            3.128    251.62  12327.25
         S          3.758            3.128    251.62  12327.25
         S          3.859            3.128    251.62  12327.25
         Mo        10.221            3.547    674.22  77634.20
         Mo        10.215            3.547    674.22  77634.20
         S          3.860            3.128    251.62  12327.25
         S          3.856            3.128    251.62  12327.25
         S          3.859            3.128    251.62  12327.25
         S          3.765            3.128    251.62  12327.25
         Mo        10.208            3.547    674.22  77634.20
         Mo        10.221            3.547    674.22  77634.20
         S          3.858            3.128    251.62  12327.25
         S          3.859            3.128    251.62  12327.25
         S          3.758            3.128    251.62  12327.25
         S          3.859            3.128    251.62  12327.25
         Mo        10.220            3.547    674.22  77634.20
         Mo        10.275            3.547    674.22  77634.20
         S          3.858            3.128    251.62  12327.25
         S          3.862            3.128    251.62  12327.25
         S          3.858            3.128    251.62  12327.25
         S          3.792            3.128    251.62  12327.25
         Mo        10.208            3.547    674.22  77634.20
         Mo        10.220            3.547    674.22  77634.20
         S          3.858            3.128    251.62  12327.25
         S          3.859            3.128    251.62  12327.25
         S          3.758            3.128    251.62  12327.25
         S          3.859            3.128    251.62  12327.25
         Mo        10.220            3.547    674.22  77634.20
         Mo        10.276            3.547    674.22  77634.20
         S          3.850            3.128    251.62  12327.25
         S          3.862            3.128    251.62  12327.25
         S          3.858            3.128    251.62  12327.25
         S          3.814            3.128    251.62  12327.25
         Mo        10.208            3.547    674.22  77634.20
         Mo        10.221            3.547    674.22  77634.20
         S          3.858            3.128    251.62  12327.25
         S          3.859            3.128    251.62  12327.25
         S          3.758            3.128    251.62  12327.25
         S          3.859            3.128    251.62  12327.25
         Mo        10.220            3.547    674.22  77634.20
         Mo        10.263            3.547    674.22  77634.20
         S          3.838            3.128    251.62  12327.25
         S          3.861            3.128    251.62  12327.25
         S          3.859            3.128    251.62  12327.25
         S          3.841            3.128    251.62  12327.25
         Mo        10.208            3.547    674.22  77634.20
         Mo        10.221            3.547    674.22  77634.20
         S          3.858            3.128    251.62  12327.25
         S          3.859            3.128    251.62  12327.25
         S          3.758            3.128    251.62  12327.25
         S          3.859            3.128    251.62  12327.25
         Mo        10.220            3.547    674.21  77634.20
         Mo        10.262            3.547    674.22  77634.20
         S          3.850            3.128    251.62  12327.25
         S          3.861            3.128    251.62  12327.25
         S          3.859            3.128    251.62  12327.25
         S          3.813            3.128    251.62  12327.25
         Pd         4.225            3.168    531.75  48720.73
         Pd         4.227            3.168    531.75  48720.73
         Pd         3.840            3.168    538.35  49325.33

         Molecular C6 ( Ry / a.u.^6 ) =  14128921.69


     number of k points=     4  Gaussian smearing, width (Ry)=  0.0100
                       cart. coord. in units 2pi/alat
        k(    1) = (   0.0000000   0.0000000   0.0000000), wk =   0.5000000
        k(    2) = (   0.0000000  -0.5773499   0.0000000), wk =   0.5000000
        k(    3) = (  -0.5000000  -0.2886744   0.0000000), wk =   0.5000000
        k(    4) = (  -0.5000000  -0.8660242   0.0000000), wk =   0.5000000

     Dense  grid:  7154885 G-vectors     FFT dimensions: ( 180, 180, 512)

     Smooth grid:  3090769 G-vectors     FFT dimensions: ( 135, 135, 400)

     Estimated max dynamical RAM per process >       3.20 GB

     Estimated total dynamical RAM >     115.19 GB

     Atomic positions and unit cell read from directory:
     ./outdir/pwscf.save/
     Atomic positions from file used, from input discarded
 

     The initial density is read from file :
     ./outdir/pwscf.save/charge-density


     negative rho (up, down):  1.009E-03 0.000E+00
     Cannot read wfcs: file not found
     Starting wfcs are 1182 randomized atomic wfcs
     Checking if some PAW data can be deallocated... 

     total cpu time spent up to now is      203.1 secs

     Self-consistent Calculation

     iteration #  1     ecut=    77.00 Ry     beta= 0.20
     Davidson diagonalization with overlap
     c_bands:  6 eigenvalues not converged
     c_bands: 11 eigenvalues not converged
     c_bands: 10 eigenvalues not converged
     c_bands:  9 eigenvalues not converged
     ethr =  1.00E-05,  avg # of iterations =120.0

     negative rho (up, down):  9.421E-04 0.000E+00

     total cpu time spent up to now is    12261.9 secs

     total energy              =  -33329.57392015 Ry
     estimated scf accuracy    <       0.45620275 Ry

     iteration #  2     ecut=    77.00 Ry     beta= 0.20
     Davidson diagonalization with overlap
     ethr =  2.66E-05,  avg # of iterations =  3.0

     negative rho (up, down):  9.102E-04 0.000E+00

     total cpu time spent up to now is    12736.6 secs

     total energy              =  -33329.57472145 Ry
     estimated scf accuracy    <       0.21822771 Ry

     iteration #  3     ecut=    77.00 Ry     beta= 0.20
     Davidson diagonalization with overlap
     c_bands:  1 eigenvalues not converged
     ethr =  1.27E-05,  avg # of iterations =  9.5

     negative rho (up, down):  8.562E-04 0.000E+00

     total cpu time spent up to now is    13224.4 secs

     total energy              =  -33329.55868015 Ry
     estimated scf accuracy    <       0.07990970 Ry

     iteration #  4     ecut=    77.00 Ry     beta= 0.20
     Davidson diagonalization with overlap
     c_bands:  2 eigenvalues not converged
     c_bands:  5 eigenvalues not converged
     c_bands:  5 eigenvalues not converged
     c_bands:  1 eigenvalues not converged
     ethr =  4.65E-06,  avg # of iterations = 25.0

     negative rho (up, down):  8.553E-04 0.000E+00

     total cpu time spent up to now is    14044.8 secs

     total energy              =  -33329.58649424 Ry
     estimated scf accuracy    <       0.01434931 Ry

     iteration #  5     ecut=    77.00 Ry     beta= 0.20
     Davidson diagonalization with overlap
     c_bands:  5 eigenvalues not converged
     c_bands:  4 eigenvalues not converged
     c_bands:  3 eigenvalues not converged
     c_bands:  2 eigenvalues not converged
     ethr =  8.35E-07,  avg # of iterations = 30.0

     negative rho (up, down):  8.851E-04 0.000E+00

     total cpu time spent up to now is    15035.5 secs

     total energy              =  -33329.59171827 Ry
     estimated scf accuracy    <       0.00654612 Ry

     iteration #  6     ecut=    77.00 Ry     beta= 0.20
     Davidson diagonalization with overlap
     c_bands:  1 eigenvalues not converged
     ethr =  3.81E-07,  avg # of iterations = 13.8

     negative rho (up, down):  9.143E-04 0.000E+00

     total cpu time spent up to now is    15641.2 secs

     total energy              =  -33329.59277983 Ry
     estimated scf accuracy    <       0.00243094 Ry

     iteration #  7     ecut=    77.00 Ry     beta= 0.20
     Davidson diagonalization with overlap
     ethr =  1.41E-07,  avg # of iterations = 14.2

     negative rho (up, down):  9.295E-04 0.000E+00

     total cpu time spent up to now is    16520.3 secs

     total energy              =  -33329.59434954 Ry
     estimated scf accuracy    <       0.00074459 Ry

     iteration #  8     ecut=    77.00 Ry     beta= 0.20
     Davidson diagonalization with overlap
     ethr =  4.33E-08,  avg # of iterations = 14.2

     negative rho (up, down):  9.638E-04 0.000E+00

     total cpu time spent up to now is    17321.2 secs

     total energy              =  -33329.59470021 Ry
     estimated scf accuracy    <       0.00046703 Ry

     iteration #  9     ecut=    77.00 Ry     beta= 0.20
     Davidson diagonalization with overlap
     ethr =  2.72E-08,  avg # of iterations = 10.5

     negative rho (up, down):  9.968E-04 0.000E+00

     total cpu time spent up to now is    17845.7 secs

     total energy              =  -33329.59464317 Ry
     estimated scf accuracy    <       0.00025362 Ry

     iteration # 10     ecut=    77.00 Ry     beta= 0.20
     Davidson diagonalization with overlap
     c_bands:  1 eigenvalues not converged
     ethr =  1.48E-08,  avg # of iterations = 14.8

     negative rho (up, down):  9.971E-04 0.000E+00

     total cpu time spent up to now is    18694.4 secs

     total energy              =  -33329.59481705 Ry
     estimated scf accuracy    <       0.00004883 Ry

     iteration # 11     ecut=    77.00 Ry     beta= 0.20
     Davidson diagonalization with overlap
     c_bands:  1 eigenvalues not converged
     ethr =  2.84E-09,  avg # of iterations = 18.8

     negative rho (up, down):  9.953E-04 0.000E+00

     total cpu time spent up to now is    19851.4 secs

     total energy              =  -33329.59487748 Ry
     estimated scf accuracy    <       0.00003528 Ry

     iteration # 12     ecut=    77.00 Ry     beta= 0.20
     Davidson diagonalization with overlap
     ethr =  2.05E-09,  avg # of iterations =  4.8

     negative rho (up, down):  1.001E-03 0.000E+00

     total cpu time spent up to now is    20321.8 secs

     total energy              =  -33329.59486947 Ry
     estimated scf accuracy    <       0.00001825 Ry

     iteration # 13     ecut=    77.00 Ry     beta= 0.20
     Davidson diagonalization with overlap
     ethr =  1.06E-09,  avg # of iterations = 13.0

     negative rho (up, down):  1.007E-03 0.000E+00

     total cpu time spent up to now is    21196.0 secs

     total energy              =  -33329.59488006 Ry
     estimated scf accuracy    <       0.00000611 Ry

     iteration # 14     ecut=    77.00 Ry     beta= 0.20
     Davidson diagonalization with overlap
     c_bands:  2 eigenvalues not converged
     ethr =  3.56E-10,  avg # of iterations = 18.5

     negative rho (up, down):  1.008E-03 0.000E+00

     total cpu time spent up to now is    22135.6 secs

     total energy              =  -33329.59488378 Ry
     estimated scf accuracy    <       0.00000141 Ry

     iteration # 15     ecut=    77.00 Ry     beta= 0.20
     Davidson diagonalization with overlap
     c_bands:  2 eigenvalues not converged
     c_bands:  3 eigenvalues not converged
     ethr =  8.20E-11,  avg # of iterations = 19.2

     negative rho (up, down):  1.009E-03 0.000E+00

     total cpu time spent up to now is    23414.2 secs

     End of self-consistent calculation

          k = 0.0000 0.0000 0.0000 (386245 PWs)   bands (ev):

   -88.6270 -88.6220 -88.5476 -66.6238 -66.6238 -66.6225 -66.6094 -66.6029
   -66.6027 -66.6026 -66.6025 -66.6025 -66.6025 -66.6025 -66.6025 -66.6025
   -66.6023 -66.6023 -66.6020 -66.6012 -66.6012 -66.6012 -66.6012 -66.6012
   -66.6011 -66.5944 -66.5895 -66.5894 -66.5887 -66.5819 -66.5818 -66.5814
   -66.5813 -66.5812 -66.5811 -66.5811 -66.5811 -66.5811 -66.5811 -66.5811
   -66.5811 -66.5811 -66.5811 -66.5811 -66.5810 -66.5807 -66.5805 -66.5805
   -66.5798 -66.5798 -66.5798 -66.5798 -66.5798 -66.5798 -66.5798 -66.5797
   -66.5797 -66.5795 -66.5646 -66.5638 -66.5614 -66.5606 -66.5597 -66.5571
   -66.5514 -66.5508 -66.5498 -54.5610 -54.5156 -54.4708 -54.3778 -54.3653
   -54.3539 -54.3316 -54.2778 -54.2555 -40.9512 -40.9511 -40.9511 -40.9511
   -40.9511 -40.9511 -40.9505 -40.9505 -40.9505 -40.9317 -40.9278 -40.9275
   -40.8759 -40.8759 -40.8758 -40.8758 -40.8758 -40.8758 -40.8758 -40.8758
   -40.8758 -40.8758 -40.8756 -40.8756 -40.8752 -40.8752 -40.8752 -40.8751
   -40.8751 -40.8751 -40.8576 -40.8575 -40.8548 -40.8485 -40.8481 -40.8478
   -40.7856 -40.7833 -40.7833 -40.7827 -40.7555 -40.7511 -40.7496 -40.7496
   -40.7495 -40.7495 -40.7495 -40.7495 -40.7495 -40.7495 -40.7495 -40.7494
   -40.7493 -40.7493 -40.7487 -40.7487 -40.7487 -40.7487 -40.7487 -40.7487
   -40.7460 -40.7420 -40.7418 -40.7418 -40.7416 -40.7416 -40.7416 -40.7416
   -40.7416 -40.7416 -40.7414 -40.7414 -40.7412 -40.7410 -40.7410 -40.7409
   -40.7409 -40.7409 -40.7409 -40.7398 -40.7342 -40.7340 -40.7307 -40.7302
   -40.7265 -40.7263 -40.7257 -40.7147 -40.7146 -40.7146 -40.7145 -40.7145
   -40.7145 -40.7145 -40.7144 -40.7144 -40.7144 -40.7143 -40.7143 -40.7143
   -40.7136 -40.7136 -40.7136 -40.7136 -40.7136 -40.7136 -40.7070 -40.7051
   -40.7003 -40.7000 -40.6998 -40.6998 -40.6997 -40.6997 -40.6997 -40.6997
   -40.6997 -40.6996 -40.6996 -40.6996 -40.6996 -40.6996 -40.6996 -40.6993
   -40.6991 -40.6990 -40.6990 -40.6990 -40.6989 -40.6989 -40.6989 -40.6989
   -40.6989 -40.6989 -40.6988 -40.6977 -40.6968 -40.6958 -40.6956 -40.6954
   -40.6947 -40.6917 -40.6871 -40.6867 -40.6827 -40.6827 -40.6824 -40.6818
   -40.6361 -40.6361 -40.6361 -40.6361 -40.6361 -40.6361 -40.6352 -40.6352
   -40.6352 -40.6126 -40.6120 -40.6115 -40.5892 -40.5891 -40.5891 -40.5890
   -40.5890 -40.5890 -40.5890 -40.5890 -40.5890 -40.5889 -40.5888 -40.5887
   -40.5880 -40.5880 -40.5880 -40.5880 -40.5880 -40.5880 -40.5698 -40.5695
   -40.5635 -40.5629 -40.5624 -40.5529 -40.5414 -40.5414 -40.5414 -40.5413
   -40.5404 -40.5404 -40.5156 -40.5155 -20.3025 -20.1053 -20.0083 -19.8973
   -19.7659 -19.2840 -19.2826 -19.2532 -19.2531 -19.2463 -19.2374 -19.2242
   -19.2237 -19.2018 -19.2016 -19.1847 -19.1526 -19.1346 -19.1341 -19.1182
   -19.1180 -19.0996 -19.0471 -19.0377 -19.0376 -19.0321 -19.0320 -19.0242
   -18.9053 -18.8134 -18.7691 -18.6204 -18.5264 -18.5262 -18.4988 -18.4985
   -18.4956 -18.4690 -18.4544 -18.4087 -18.4085 -18.3991 -18.3990 -18.3677
   -18.3566 -18.3031 -18.2796 -18.2781 -18.2767 -18.2766 -18.2665 -18.2501
   -18.1869 -18.1861 -18.1827 -18.1825 -18.1810 -18.1740 -18.1359 -18.1333
   -18.1209 -18.1208 -18.1189 -18.1183 -18.1172 -18.1168 -18.0923 -18.0917
   -18.0829 -18.0829 -18.0827 -18.0795 -18.0761 -18.0741 -18.0739 -18.0530
   -18.0519 -18.0488 -18.0457 -18.0453 -18.0316 -18.0315 -18.0301 -18.0226
   -18.0078 -18.0050 -18.0047 -18.0019 -18.0015 -17.9868 -17.9866 -17.9833
   -17.9571 -17.9566 -17.9425 -17.9424 -17.9218 -17.9209 -17.9181 -17.9148
   -17.9144 -17.8941 -17.8926 -17.8923 -17.8848 -17.8755 -17.8687 -17.8680
   -17.8664 -17.8663 -17.8571 -17.8561 -17.8555 -17.8403 -17.8401 -17.8400
   -17.8312 -17.8280 -17.8235 -17.8233 -17.8195 -17.8191 -17.7970 -17.7965
   -17.7951 -17.7950 -17.7936 -17.7935 -12.1401 -12.1241 -12.1209 -11.9431
   -11.8440 -11.7996 -11.7995 -11.7800 -11.6843 -11.6842 -11.6705 -11.6311
   -11.5624 -11.5623 -11.5503 -11.3965 -11.3953 -11.3664 -11.2569 -11.2536
   -11.2371 -11.2371 -11.2359 -11.2098 -11.1972 -11.1901 -11.1354 -11.1325
   -11.1275 -11.1273 -11.1205 -11.1195 -11.0897 -11.0791 -11.0788 -11.0777
   -11.0753 -11.0594 -11.0594 -11.0586 -11.0440 -11.0438 -11.0229 -11.0223
   -11.0217 -11.0162 -10.9914 -10.9560 -10.9555 -10.9516 -10.9367 -10.9364
   -10.9273 -10.8912 -10.8907 -10.8889 -10.8763 -10.8758 -10.8676 -10.8596
   -10.8539 -10.8530 -10.8376 -10.8362 -10.8323 -10.8321 -10.8295 -10.8268
   -10.8268 -10.8246 -10.8222 -10.8110 -10.8106 -10.8046 -10.8040 -10.8038
   -10.7784 -10.7769 -10.7767 -10.7753 -10.7717 -10.7705 -10.7662 -10.7652
   -10.7564 -10.7371 -10.7370 -10.7363 -10.7350 -10.7348 -10.7348 -10.6907
   -10.6606 -10.6600 -10.6387 -10.5947 -10.5933 -10.5930 -10.5798 -10.5797
   -10.5569 -10.3449 -10.3236 -10.1691 -10.1449 -10.1387 -10.0445 -10.0367
   -10.0176  -9.9617  -9.8738  -9.8725  -9.8688  -9.8077  -9.8065  -9.8048
    -9.7924  -9.7924  -9.7799  -9.7741  -9.7739  -9.7724  -9.7636  -9.7635
    -9.7597  -9.7503  -9.7501  -9.7479  -9.7360  -9.7277  -9.7274  -9.7016
    -9.6995  -9.6927  -9.6736  -9.6685  -9.6321  -9.6235  -9.6232  -9.6219
    -9.6210  -9.6192  -9.6162  -9.6157  -9.6156  -9.6120  -9.6109  -9.6006
    -9.5879  -9.5627  -9.5451  -9.5441  -9.5410  -9.5410  -9.5407  -9.5404
    -9.5402  -9.5402  -9.5157  -9.5155  -9.5086  -9.4990  -9.4814  -9.4799
    -9.4683  -9.4672  -9.3820  -9.3768  -9.3699  -9.3602  -9.3446  -9.3433
    -9.3418  -9.3399  -9.3390  -9.3279  -9.3275  -9.3239  -9.2888  -9.2871
    -9.2414  -9.2395  -9.2333  -9.2205  -9.2004  -9.1991  -9.1896  -9.1895
    -9.1805  -9.1776  -9.1756  -9.1745  -9.1679  -9.1661  -9.1414  -9.1269
    -9.1102  -9.1082  -9.0525  -9.0435  -9.0410  -8.9813  -8.9812  -8.9788
    -8.9549  -8.9544  -8.9502  -8.9470  -8.9469  -8.9326  -8.9311  -8.9164
    -8.9164  -8.9161  -8.9056  -8.9052  -8.8898  -8.8893  -8.8839  -8.8664
    -8.8212  -8.8211  -8.8202  -8.8201  -8.8201  -8.8200  -8.7614  -8.7594
    -8.7520  -8.7447  -8.7343  -8.7337  -8.7043  -8.6746  -8.6734  -8.6585
    -8.6564  -8.6544  -8.6537  -8.5988  -8.5973  -8.5911  -8.5907  -8.5902
    -8.5891  -8.5558  -8.5509  -8.4717  -8.4070  -8.4020  -8.3658  -8.3658
    -8.3607  -8.3607  -8.3543  -8.3542  -8.3502  -8.3361  -8.3342  -8.2820
    -8.2752  -8.2752  -8.2747  -8.2747  -8.2741  -8.2663  -8.2496  -8.2494
    -8.2481  -8.2481  -8.2469  -8.2412  -8.2217  -8.2213  -8.2201  -8.2201
    -8.2196  -8.2178  -8.2065  -8.1911  -8.1830  -7.9632  -7.9604  -7.9169
    -7.9145  -7.8565  -7.8556  -7.8531  -7.7684  -7.7665  -7.7653  -7.7309
    -7.7175  -7.6898  -7.6809  -7.6802  -7.6446  -7.6411  -7.6409  -7.6041
    -7.6017  -7.6006  -7.5961  -7.5956  -7.5941  -7.5529  -7.5467  -7.5453
    -7.5377  -7.5340  -7.5339  -7.5299  -7.5296  -7.5291  -7.5203  -7.5087
    -7.5084  -7.5046  -7.5045  -7.5037  -7.4993  -7.4969  -7.4892  -7.4879
    -7.4816  -7.4814  -7.4810  -7.4799  -7.4796  -7.4785  -7.4695  -7.4679
    -7.4558  -7.4415  -7.4246  -7.4239  -7.4105  -7.4098  -7.3994  -7.3712
    -7.3601  -7.3598  -7.3516  -7.3454  -7.3416  -7.3232  -7.3221  -7.3042
    -7.3016  -7.2952  -7.2947  -7.2761  -7.2723  -7.2709  -7.2706  -7.2512
    -7.2491  -7.2490  -7.2305  -7.2304  -7.2128  -7.2128  -7.1820  -7.1399
    -7.1397  -7.1236  -7.1229  -7.0691  -7.0238  -7.0132  -7.0106  -6.9818
    -6.8996  -6.8977  -6.8754  -6.8729  -6.8523  -6.8083  -6.7785  -6.7782
    -6.7772  -6.7141  -6.7047  -6.7030  -6.6953  -6.6931  -6.6885  -6.6843
    -6.6830  -6.6218  -6.6215  -6.6206  -6.6125  -6.5843  -6.5832  -6.5787
    -6.5676  -6.5666  -6.5644  -6.5374  -6.5369  -6.5290  -6.5186  -6.5139
    -6.5130  -6.5116  -6.5082  -6.5076  -6.5054  -6.5045  -6.4973  -6.4968
    -6.4968  -6.4966  -6.4964  -6.4959  -6.4957  -6.4857  -6.4811  -6.4443
    -6.4442  -6.4437  -6.4097  -6.4093  -6.4090  -6.3730  -6.3700  -6.3567
    -6.3560  -6.3355  -6.3350  -6.3318  -6.3286  -6.3284  -6.3259  -6.3143
    -6.3139  -6.2972  -6.2883  -6.2881  -6.2868  -6.2833  -6.2830  -6.2624
    -6.2521  -6.2520  -6.2519  -6.2507  -6.2506  -6.2427  -6.2211  -6.0894
    -6.0862  -6.0786  -5.8603  -5.8574  -5.6571  -5.5319  -5.5303  -5.3833
    -5.2926  -5.2282  -5.1512  -4.0168  -3.9207  -3.9126  -3.8501  -3.8490
    -3.8472  -3.8307  -3.8306  -3.8257  -3.8256  -3.8227  -3.8222  -3.7917
    -3.7602  -3.7575  -3.6946  -3.6928  -3.6914  -3.6907  -3.6887  -3.6873
    -3.6729  -3.6716  -3.6676  -3.5678  -3.5394  -3.5379  -3.5218  -3.5042
    -3.5038  -3.4913  -3.4852  -3.4791  -3.4776  -3.4696  -3.4690  -3.4662
    -3.4643  -3.4640  -3.4585  -3.4579  -3.4412  -3.4412  -3.4408  -3.4408
    -3.4388  -3.4275  -3.4269  -3.4247  -3.4145  -3.4135  -3.4067  -3.4056
    -3.4051  -3.4015  -3.4012  -3.3977  -3.3845  -3.3840  -3.3837  -3.3591
    -3.3496  -3.3495  -3.3474  -3.3413  -3.3409  -3.3366  -3.3328  -3.3314
    -3.3108  -3.3105  -3.3083  -3.2894  -3.2877  -3.2801  -3.2796  -3.2699
    -3.2695  -3.2554  -3.2233  -3.2230  -3.2059  -3.2050  -3.1964  -3.0739
    -3.0727  -3.0665  -3.0588  -3.0566  -3.0565  -3.0542  -3.0447  -3.0439
    -3.0438  -3.0025  -3.0016  -2.9797  -2.9765  -2.9762  -2.9726  -2.9711
    -2.9701  -2.9687  -2.9664  -2.9664  -2.9615  -2.9611  -2.9585  -2.9585
    -2.9521  -2.9516  -2.9372  -2.9367  -2.9354  -2.9320  -2.9319  -2.9300
    -2.9295  -2.9292  -2.9291  -2.9272  -2.9266  -2.9024  -2.8863  -2.8852
    -2.8788  -2.8666  -2.8645  -2.8638  -2.8434  -2.8425  -2.8066  -2.8051
    -2.8050  -2.8050  -2.8048  -2.8047  -2.8039  -2.8026  -2.8025  -2.7898
    -2.7868  -2.7858  -2.7570  -2.7564  -2.7411  -2.7408  -2.7262  -2.7194
    -2.7185  -2.6719  -2.6702  -2.6378  -2.6373  -2.6242  -2.6240  -2.6222
    -2.6210  -2.6194  -2.6172  -2.6139  -2.5591  -2.5576  -2.5378  -2.5355
    -2.5343  -2.4522  -2.4485  -2.4443  -2.4418  -2.4406  -2.4353

          k = 0.0000-0.5773 0.0000 (386352 PWs)   bands (ev):

   -88.6270 -88.6220 -88.5476 -66.6177 -66.6176 -66.6175 -66.6173 -66.6163
   -66.6163 -66.6072 -66.6069 -66.6069 -66.6069 -66.6069 -66.6056 -66.6056
   -66.5984 -66.5925 -66.5918 -66.5918 -66.5918 -66.5918 -66.5918 -66.5918
   -66.5918 -66.5917 -66.5905 -66.5905 -66.5905 -66.5905 -66.5904 -66.5875
   -66.5874 -66.5874 -66.5871 -66.5861 -66.5860 -66.5858 -66.5814 -66.5812
   -66.5811 -66.5811 -66.5811 -66.5811 -66.5808 -66.5808 -66.5798 -66.5798
   -66.5798 -66.5797 -66.5796 -66.5772 -66.5767 -66.5766 -66.5766 -66.5766
   -66.5753 -66.5753 -66.5648 -66.5636 -66.5628 -66.5608 -66.5588 -66.5574
   -66.5537 -66.5518 -66.5474 -54.5610 -54.5156 -54.4708 -54.3778 -54.3653
   -54.3539 -54.3316 -54.2778 -54.2555 -40.9197 -40.9196 -40.9195 -40.9195
   -40.9195 -40.9195 -40.9194 -40.9192 -40.9189 -40.9189 -40.9189 -40.9189
   -40.9064 -40.8991 -40.8929 -40.8928 -40.8927 -40.8927 -40.8925 -40.8921
   -40.8920 -40.8905 -40.8807 -40.8806 -40.8806 -40.8806 -40.8800 -40.8800
   -40.8787 -40.8683 -40.8547 -40.8514 -40.8300 -40.8300 -40.8300 -40.8299
   -40.8299 -40.8299 -40.8299 -40.8299 -40.8292 -40.8292 -40.8292 -40.8292
   -40.8090 -40.8072 -40.8047 -40.8022 -40.7792 -40.7713 -40.7711 -40.7711
   -40.7709 -40.7705 -40.7705 -40.7679 -40.7617 -40.7617 -40.7617 -40.7616
   -40.7608 -40.7608 -40.7528 -40.7508 -40.7503 -40.7503 -40.7503 -40.7502
   -40.7496 -40.7496 -40.7429 -40.7365 -40.7317 -40.7272 -40.7215 -40.7207
   -40.7207 -40.7207 -40.7207 -40.7207 -40.7207 -40.7206 -40.7206 -40.7200
   -40.7200 -40.7200 -40.7200 -40.7121 -40.7119 -40.7119 -40.7117 -40.7112
   -40.7112 -40.7074 -40.7059 -40.7047 -40.7002 -40.7002 -40.7002 -40.7001
   -40.7000 -40.6998 -40.6996 -40.6996 -40.6996 -40.6996 -40.6994 -40.6993
   -40.6993 -40.6993 -40.6989 -40.6989 -40.6989 -40.6989 -40.6980 -40.6949
   -40.6910 -40.6909 -40.6909 -40.6909 -40.6905 -40.6902 -40.6902 -40.6894
   -40.6847 -40.6835 -40.6773 -40.6714 -40.6695 -40.6694 -40.6693 -40.6693
   -40.6693 -40.6692 -40.6690 -40.6690 -40.6684 -40.6684 -40.6683 -40.6683
   -40.6505 -40.6484 -40.6422 -40.6412 -40.6345 -40.6345 -40.6345 -40.6345
   -40.6345 -40.6345 -40.6344 -40.6344 -40.6336 -40.6336 -40.6336 -40.6336
   -40.6225 -40.6224 -40.6224 -40.6222 -40.6214 -40.6214 -40.6144 -40.6140
   -40.6088 -40.6061 -40.6032 -40.6031 -40.6030 -40.6028 -40.6021 -40.6021
   -40.6011 -40.5901 -40.5861 -40.5861 -40.5860 -40.5860 -40.5851 -40.5851
   -40.5813 -40.5725 -40.5647 -40.5559 -40.5555 -40.5554 -40.5554 -40.5552
   -40.5544 -40.5544 -40.5312 -40.5270 -20.2464 -19.8867 -19.8701 -19.8275
   -19.7772 -19.7356 -19.6666 -19.6458 -19.5663 -19.4604 -19.4327 -19.4090
   -19.3463 -19.3186 -19.2420 -19.2240 -19.1506 -18.8152 -18.7958 -18.7581
   -18.7519 -18.7409 -18.7226 -18.7119 -18.7098 -18.7088 -18.6863 -18.6598
   -18.6542 -18.6380 -18.6359 -18.6202 -18.5903 -18.5881 -18.5716 -18.5506
   -18.5502 -18.5475 -18.5318 -18.5240 -18.5116 -18.4851 -18.4820 -18.4748
   -18.4681 -18.4338 -18.4121 -18.4074 -18.4049 -18.3810 -18.3747 -18.3520
   -18.3326 -18.3166 -18.3112 -18.2846 -18.2656 -18.2497 -18.2450 -18.2389
   -18.2048 -18.1797 -18.1773 -18.1687 -18.1593 -18.1319 -18.1269 -18.1101
   -18.1037 -18.0989 -18.0970 -18.0956 -18.0904 -18.0736 -18.0692 -18.0685
   -18.0664 -18.0661 -18.0626 -18.0556 -18.0500 -18.0406 -18.0390 -18.0262
   -18.0097 -18.0072 -18.0048 -17.9997 -17.9996 -17.9979 -17.9931 -17.9881
   -17.9853 -17.9749 -17.9482 -17.9451 -17.9358 -17.9320 -17.9304 -17.9170
   -17.8904 -17.8903 -17.8817 -17.8729 -17.8506 -17.8477 -17.8417 -17.8395
   -17.8366 -17.8303 -17.8182 -17.8178 -17.8172 -17.8167 -17.8155 -17.8152
   -17.8023 -17.8020 -17.7824 -17.7814 -17.7585 -17.7576 -17.7394 -17.7382
   -17.7251 -17.7245 -17.7177 -17.7177 -12.0914 -12.0439 -12.0016 -11.7170
   -11.6933 -11.5974 -11.5275 -11.5167 -11.4993 -11.4948 -11.4921 -11.4798
   -11.4687 -11.4617 -11.4484 -11.4139 -11.3968 -11.3947 -11.3755 -11.3746
   -11.3619 -11.3397 -11.3332 -11.3143 -11.2999 -11.2890 -11.2743 -11.2735
   -11.2680 -11.2595 -11.2573 -11.2517 -11.2467 -11.2114 -11.2029 -11.1925
   -11.1874 -11.1746 -11.1733 -11.1658 -11.1656 -11.1534 -11.1457 -11.1453
   -11.1318 -11.1285 -11.0975 -11.0837 -11.0736 -11.0595 -11.0582 -11.0171
   -10.9905 -10.9849 -10.9402 -10.9299 -10.9218 -10.9114 -10.8993 -10.8951
   -10.8876 -10.8540 -10.8519 -10.8373 -10.8344 -10.8295 -10.8196 -10.8173
   -10.8098 -10.8093 -10.8078 -10.8065 -10.8059 -10.7966 -10.7943 -10.7928
   -10.7905 -10.7902 -10.7832 -10.7813 -10.7788 -10.7755 -10.7460 -10.7416
   -10.7410 -10.7407 -10.7303 -10.5922 -10.5386 -10.5309 -10.5263 -10.5103
   -10.4806 -10.4348 -10.4229 -10.3910 -10.3150 -10.2704 -10.2458 -10.2412
   -10.1747 -10.1623 -10.1377 -10.1311 -10.1242 -10.1138 -10.1010 -10.0909
   -10.0765 -10.0507 -10.0382 -10.0329 -10.0270 -10.0251 -10.0176 -10.0141
    -9.9950  -9.9690  -9.9642  -9.9566  -9.9279  -9.9238  -9.9124  -9.9030
    -9.8929  -9.8919  -9.8806  -9.8729  -9.8549  -9.8444  -9.8329  -9.8018
    -9.7937  -9.7746  -9.7692  -9.7605  -9.7499  -9.7373  -9.7287  -9.7032
    -9.6925  -9.6809  -9.6584  -9.6567  -9.6236  -9.6222  -9.6138  -9.6056
    -9.5972  -9.5654  -9.5636  -9.5537  -9.5401  -9.5387  -9.5358  -9.5193
    -9.4901  -9.4892  -9.4821  -9.4771  -9.4722  -9.4675  -9.4616  -9.4576
    -9.4549  -9.4379  -9.4319  -9.4302  -9.3870  -9.3746  -9.3691  -9.3422
    -9.2984  -9.2945  -9.2514  -9.2253  -9.2140  -9.2080  -9.2076  -9.1962
    -9.1904  -9.1680  -9.1563  -9.1490  -9.1329  -9.1299  -9.1197  -9.1052
    -9.0833  -9.0761  -9.0531  -9.0429  -9.0392  -9.0360  -9.0329  -9.0306
    -8.9967  -8.9903  -8.9857  -8.9799  -8.9545  -8.9518  -8.9401  -8.9379
    -8.9296  -8.9123  -8.9012  -8.8898  -8.8863  -8.8852  -8.8833  -8.8754
    -8.8743  -8.8733  -8.8671  -8.8656  -8.8651  -8.8569  -8.8486  -8.8468
    -8.8440  -8.8389  -8.8381  -8.8372  -8.8140  -8.8116  -8.7913  -8.7886
    -8.7873  -8.7860  -8.7853  -8.7822  -8.7615  -8.7579  -8.7399  -8.7330
    -8.7316  -8.7293  -8.7220  -8.7120  -8.7038  -8.6538  -8.6515  -8.6393
    -8.6052  -8.5912  -8.5227  -8.5023  -8.5001  -8.4581  -8.4371  -8.4324
    -8.3836  -8.3549  -8.3531  -8.3240  -8.2783  -8.2698  -8.2411  -8.1772
    -8.1549  -8.1258  -8.1257  -8.1169  -8.1165  -8.1056  -8.1053  -8.0861
    -8.0686  -8.0582  -8.0550  -7.9900  -7.9826  -7.9615  -7.9587  -7.8962
    -7.8719  -7.8557  -7.8480  -7.8384  -7.8314  -7.8293  -7.8202  -7.8134
    -7.8073  -7.8059  -7.8016  -7.7980  -7.7959  -7.7943  -7.7893  -7.7839
    -7.7826  -7.7795  -7.7794  -7.7747  -7.7677  -7.7669  -7.7631  -7.7621
    -7.7616  -7.7608  -7.7565  -7.7564  -7.7413  -7.7355  -7.7340  -7.7325
    -7.7281  -7.7225  -7.7170  -7.7125  -7.6948  -7.6945  -7.6938  -7.6927
    -7.6648  -7.6647  -7.6641  -7.6627  -7.6518  -7.6480  -7.6242  -7.6136
    -7.6098  -7.6066  -7.6044  -7.6017  -7.6011  -7.5983  -7.5920  -7.5843
    -7.5805  -7.5653  -7.5626  -7.5597  -7.5576  -7.5515  -7.5471  -7.4732
    -7.4705  -7.4602  -7.4591  -7.4584  -7.4440  -7.4292  -7.3887  -7.3866
    -7.3723  -7.2637  -7.2223  -7.1718  -7.1685  -7.1676  -7.1653  -7.1342
    -7.1276  -7.1235  -7.1150  -7.1053  -7.1001  -7.0983  -7.0758  -7.0605
    -7.0429  -7.0316  -7.0245  -7.0209  -7.0103  -7.0033  -6.9858  -6.9737
    -6.9560  -6.9366  -6.9129  -6.9032  -6.8952  -6.8846  -6.8806  -6.8601
    -6.8577  -6.8552  -6.8358  -6.8021  -6.7738  -6.7637  -6.7562  -6.7529
    -6.7401  -6.7013  -6.6786  -6.6599  -6.6552  -6.6392  -6.6205  -6.6115
    -6.6057  -6.6039  -6.6020  -6.6017  -6.5928  -6.5864  -6.5853  -6.5846
    -6.5829  -6.5776  -6.5773  -6.5771  -6.5768  -6.5758  -6.5334  -6.5196
    -6.5044  -6.4566  -6.4423  -6.4232  -6.4170  -6.3723  -6.3460  -6.3205
    -6.3156  -6.3156  -6.3135  -6.2964  -6.2880  -6.2788  -6.2750  -6.2744
    -6.2705  -6.2702  -6.2691  -6.2550  -6.2547  -6.2489  -6.2344  -6.2222
    -6.2038  -6.2036  -6.2018  -6.1937  -6.0949  -6.0912  -6.0849  -6.0759
    -5.9972  -5.9847  -5.9711  -5.9205  -5.9153  -5.8933  -5.8517  -5.8513
    -5.8145  -5.7471  -5.7309  -5.6868  -5.6628  -5.5988  -5.5908  -5.4986
    -5.4798  -5.3287  -5.2508  -4.1085  -4.1030  -4.0956  -4.0886  -4.0071
    -3.9669  -3.9432  -3.9246  -3.9153  -3.9139  -3.8492  -3.8393  -3.8381
    -3.8318  -3.8241  -3.8124  -3.8091  -3.8019  -3.7968  -3.7948  -3.7330
    -3.7061  -3.7034  -3.6851  -3.6277  -3.6271  -3.6004  -3.5980  -3.5972
    -3.5949  -3.5523  -3.5470  -3.5441  -3.5429  -3.5261  -3.5224  -3.5212
    -3.5107  -3.5048  -3.4945  -3.4874  -3.4766  -3.4754  -3.4723  -3.4697
    -3.4571  -3.4474  -3.4468  -3.4441  -3.4252  -3.4192  -3.4183  -3.4150
    -3.4029  -3.3960  -3.3742  -3.3506  -3.3503  -3.3436  -3.3427  -3.3373
    -3.3363  -3.3324  -3.3119  -3.3034  -3.2952  -3.2885  -3.2813  -3.2763
    -3.2756  -3.2744  -3.2735  -3.2693  -3.2569  -3.2418  -3.2403  -3.2325
    -3.2312  -3.2220  -3.2207  -3.2131  -3.2082  -3.2076  -3.1990  -3.1938
    -3.1831  -3.1754  -3.1743  -3.1687  -3.1623  -3.1610  -3.1586  -3.1585
    -3.1462  -3.1013  -3.0929  -3.0923  -3.0811  -3.0688  -3.0665  -3.0624
    -3.0566  -3.0237  -3.0214  -3.0201  -3.0195  -3.0182  -3.0167  -3.0088
    -3.0074  -3.0056  -3.0054  -3.0026  -3.0010  -2.9880  -2.9845  -2.9831
    -2.9807  -2.9717  -2.9673  -2.9651  -2.9623  -2.9599  -2.9542  -2.9451
    -2.9448  -2.9395  -2.9383  -2.9323  -2.9271  -2.9250  -2.9222  -2.8980
    -2.8934  -2.8813  -2.8801  -2.8728  -2.8714  -2.8651  -2.8403  -2.7961
    -2.7949  -2.7861  -2.7774  -2.7456  -2.7265  -2.7241  -2.7126  -2.6202
    -2.6152  -2.6074  -2.5833  -2.5712  -2.5641  -2.5455  -2.5450  -2.5325
    -2.5289  -2.5265  -2.5234  -2.5206  -2.5156  -2.4781  -2.4009  -2.3974
    -2.3927  -2.3854  -2.3820  -2.3735  -2.3684  -2.3400  -2.3389

          k =-0.5000-0.2887 0.0000 (386352 PWs)   bands (ev):

   -88.6270 -88.6220 -88.5476 -66.6177 -66.6176 -66.6175 -66.6173 -66.6163
   -66.6162 -66.6072 -66.6069 -66.6069 -66.6069 -66.6069 -66.6056 -66.6056
   -66.5987 -66.5919 -66.5918 -66.5918 -66.5918 -66.5918 -66.5918 -66.5918
   -66.5918 -66.5917 -66.5905 -66.5905 -66.5905 -66.5905 -66.5904 -66.5875
   -66.5874 -66.5873 -66.5871 -66.5861 -66.5860 -66.5859 -66.5814 -66.5813
   -66.5811 -66.5811 -66.5811 -66.5811 -66.5808 -66.5807 -66.5802 -66.5798
   -66.5798 -66.5798 -66.5797 -66.5769 -66.5767 -66.5767 -66.5766 -66.5766
   -66.5753 -66.5753 -66.5644 -66.5638 -66.5623 -66.5611 -66.5588 -66.5578
   -66.5541 -66.5511 -66.5475 -54.5610 -54.5156 -54.4708 -54.3778 -54.3653
   -54.3539 -54.3316 -54.2778 -54.2555 -40.9197 -40.9196 -40.9196 -40.9195
   -40.9195 -40.9195 -40.9193 -40.9192 -40.9189 -40.9189 -40.9189 -40.9188
   -40.9068 -40.8995 -40.8931 -40.8929 -40.8927 -40.8927 -40.8925 -40.8921
   -40.8920 -40.8899 -40.8806 -40.8806 -40.8806 -40.8806 -40.8800 -40.8800
   -40.8784 -40.8680 -40.8547 -40.8515 -40.8300 -40.8300 -40.8300 -40.8299
   -40.8299 -40.8299 -40.8299 -40.8299 -40.8292 -40.8292 -40.8292 -40.8292
   -40.8087 -40.8069 -40.8051 -40.8024 -40.7793 -40.7713 -40.7712 -40.7711
   -40.7709 -40.7705 -40.7705 -40.7673 -40.7617 -40.7617 -40.7616 -40.7616
   -40.7608 -40.7608 -40.7533 -40.7513 -40.7503 -40.7503 -40.7503 -40.7502
   -40.7496 -40.7496 -40.7429 -40.7344 -40.7322 -40.7286 -40.7216 -40.7207
   -40.7207 -40.7207 -40.7207 -40.7207 -40.7207 -40.7206 -40.7206 -40.7200
   -40.7200 -40.7200 -40.7200 -40.7121 -40.7119 -40.7119 -40.7117 -40.7112
   -40.7112 -40.7079 -40.7054 -40.7039 -40.7002 -40.7002 -40.7002 -40.7001
   -40.7000 -40.6998 -40.6997 -40.6996 -40.6996 -40.6996 -40.6994 -40.6993
   -40.6993 -40.6992 -40.6989 -40.6989 -40.6989 -40.6989 -40.6983 -40.6954
   -40.6910 -40.6909 -40.6909 -40.6909 -40.6905 -40.6902 -40.6902 -40.6894
   -40.6843 -40.6837 -40.6775 -40.6717 -40.6695 -40.6694 -40.6693 -40.6693
   -40.6692 -40.6692 -40.6690 -40.6690 -40.6684 -40.6684 -40.6683 -40.6683
   -40.6501 -40.6477 -40.6427 -40.6409 -40.6345 -40.6345 -40.6345 -40.6345
   -40.6345 -40.6345 -40.6345 -40.6345 -40.6336 -40.6336 -40.6336 -40.6336
   -40.6225 -40.6224 -40.6224 -40.6221 -40.6214 -40.6214 -40.6147 -40.6140
   -40.6089 -40.6061 -40.6032 -40.6031 -40.6030 -40.6028 -40.6021 -40.6021
   -40.6014 -40.5900 -40.5861 -40.5861 -40.5860 -40.5860 -40.5851 -40.5851
   -40.5812 -40.5721 -40.5645 -40.5561 -40.5555 -40.5554 -40.5554 -40.5552
   -40.5544 -40.5544 -40.5313 -40.5270 -20.2465 -19.8865 -19.8702 -19.8273
   -19.7772 -19.7353 -19.6667 -19.6457 -19.5670 -19.4606 -19.4327 -19.4092
   -19.3462 -19.3188 -19.2419 -19.2241 -19.1494 -18.8136 -18.7963 -18.7570
   -18.7536 -18.7409 -18.7225 -18.7115 -18.7101 -18.7090 -18.6864 -18.6597
   -18.6543 -18.6384 -18.6354 -18.6198 -18.5901 -18.5888 -18.5717 -18.5504
   -18.5503 -18.5477 -18.5324 -18.5244 -18.5113 -18.4850 -18.4828 -18.4751
   -18.4679 -18.4342 -18.4121 -18.4075 -18.4047 -18.3823 -18.3747 -18.3518
   -18.3325 -18.3166 -18.3120 -18.2841 -18.2656 -18.2497 -18.2449 -18.2389
   -18.2047 -18.1795 -18.1759 -18.1696 -18.1593 -18.1303 -18.1265 -18.1098
   -18.1037 -18.0989 -18.0971 -18.0957 -18.0905 -18.0733 -18.0688 -18.0686
   -18.0662 -18.0661 -18.0624 -18.0556 -18.0500 -18.0406 -18.0384 -18.0264
   -18.0096 -18.0071 -18.0048 -17.9997 -17.9995 -17.9978 -17.9933 -17.9880
   -17.9855 -17.9742 -17.9485 -17.9452 -17.9359 -17.9319 -17.9310 -17.9171
   -17.8909 -17.8906 -17.8822 -17.8726 -17.8510 -17.8477 -17.8421 -17.8380
   -17.8364 -17.8319 -17.8182 -17.8177 -17.8172 -17.8164 -17.8153 -17.8152
   -17.8026 -17.8021 -17.7827 -17.7816 -17.7586 -17.7577 -17.7390 -17.7380
   -17.7248 -17.7242 -17.7179 -17.7178 -12.0914 -12.0467 -11.9997 -11.7170
   -11.6930 -11.5932 -11.5272 -11.5160 -11.4993 -11.4955 -11.4915 -11.4798
   -11.4674 -11.4617 -11.4470 -11.4143 -11.3980 -11.3949 -11.3768 -11.3751
   -11.3613 -11.3399 -11.3343 -11.3152 -11.3000 -11.2892 -11.2743 -11.2741
   -11.2676 -11.2595 -11.2572 -11.2521 -11.2461 -11.2116 -11.2033 -11.1924
   -11.1876 -11.1750 -11.1728 -11.1659 -11.1656 -11.1533 -11.1461 -11.1454
   -11.1325 -11.1289 -11.0994 -11.0840 -11.0733 -11.0597 -11.0571 -11.0179
   -10.9919 -10.9860 -10.9401 -10.9294 -10.9213 -10.9127 -10.8988 -10.8934
   -10.8843 -10.8545 -10.8533 -10.8382 -10.8343 -10.8294 -10.8203 -10.8167
   -10.8098 -10.8091 -10.8077 -10.8064 -10.8056 -10.7967 -10.7943 -10.7932
   -10.7905 -10.7903 -10.7832 -10.7813 -10.7786 -10.7758 -10.7464 -10.7417
   -10.7410 -10.7408 -10.7317 -10.5954 -10.5387 -10.5309 -10.5262 -10.5108
   -10.4802 -10.4327 -10.4191 -10.3904 -10.3191 -10.2685 -10.2463 -10.2212
   -10.1791 -10.1754 -10.1404 -10.1305 -10.1242 -10.1130 -10.1009 -10.0920
   -10.0754 -10.0504 -10.0388 -10.0330 -10.0275 -10.0254 -10.0180 -10.0127
    -9.9948  -9.9703  -9.9658  -9.9565  -9.9277  -9.9243  -9.9122  -9.9022
    -9.8930  -9.8917  -9.8796  -9.8742  -9.8559  -9.8421  -9.8330  -9.8021
    -9.7943  -9.7744  -9.7695  -9.7599  -9.7496  -9.7368  -9.7288  -9.7035
    -9.6938  -9.6805  -9.6584  -9.6575  -9.6222  -9.6217  -9.6125  -9.6055
    -9.5944  -9.5654  -9.5635  -9.5538  -9.5407  -9.5395  -9.5342  -9.5190
    -9.4901  -9.4887  -9.4821  -9.4770  -9.4726  -9.4671  -9.4598  -9.4579
    -9.4553  -9.4357  -9.4320  -9.4295  -9.3861  -9.3727  -9.3698  -9.3414
    -9.2965  -9.2950  -9.2507  -9.2255  -9.2169  -9.2084  -9.2079  -9.1959
    -9.1882  -9.1668  -9.1566  -9.1494  -9.1329  -9.1303  -9.1210  -9.1034
    -9.0859  -9.0774  -9.0520  -9.0435  -9.0398  -9.0379  -9.0326  -9.0290
    -8.9985  -8.9929  -8.9859  -8.9793  -8.9544  -8.9516  -8.9415  -8.9414
    -8.9298  -8.9130  -8.9000  -8.8901  -8.8866  -8.8852  -8.8833  -8.8759
    -8.8751  -8.8729  -8.8672  -8.8662  -8.8655  -8.8568  -8.8487  -8.8462
    -8.8444  -8.8389  -8.8380  -8.8375  -8.8169  -8.8102  -8.7914  -8.7887
    -8.7873  -8.7854  -8.7852  -8.7823  -8.7616  -8.7576  -8.7401  -8.7322
    -8.7314  -8.7294  -8.7216  -8.7117  -8.7039  -8.6537  -8.6516  -8.6393
    -8.6064  -8.5916  -8.5196  -8.5024  -8.5004  -8.4574  -8.4379  -8.4332
    -8.3717  -8.3548  -8.3539  -8.3241  -8.2874  -8.2695  -8.2451  -8.1795
    -8.1527  -8.1258  -8.1257  -8.1169  -8.1165  -8.1056  -8.1053  -8.0866
    -8.0600  -8.0599  -8.0491  -7.9917  -7.9855  -7.9631  -7.9606  -7.8982
    -7.8739  -7.8550  -7.8477  -7.8385  -7.8317  -7.8284  -7.8198  -7.8138
    -7.8087  -7.8047  -7.8004  -7.7989  -7.7949  -7.7934  -7.7892  -7.7855
    -7.7818  -7.7798  -7.7790  -7.7751  -7.7677  -7.7670  -7.7630  -7.7620
    -7.7617  -7.7607  -7.7565  -7.7564  -7.7407  -7.7358  -7.7351  -7.7330
    -7.7281  -7.7221  -7.7174  -7.7147  -7.6949  -7.6945  -7.6937  -7.6931
    -7.6649  -7.6648  -7.6643  -7.6628  -7.6508  -7.6477  -7.6251  -7.6142
    -7.6106  -7.6066  -7.6033  -7.6019  -7.6010  -7.5988  -7.5918  -7.5842
    -7.5805  -7.5657  -7.5626  -7.5601  -7.5572  -7.5509  -7.5456  -7.4728
    -7.4647  -7.4600  -7.4589  -7.4583  -7.4420  -7.4282  -7.3868  -7.3811
    -7.3716  -7.2634  -7.2272  -7.1699  -7.1676  -7.1663  -7.1649  -7.1349
    -7.1338  -7.1250  -7.1150  -7.1057  -7.1027  -7.1004  -7.0758  -7.0574
    -7.0424  -7.0333  -7.0265  -7.0221  -7.0094  -7.0022  -6.9883  -6.9737
    -6.9572  -6.9372  -6.9130  -6.9033  -6.8943  -6.8844  -6.8814  -6.8590
    -6.8578  -6.8552  -6.8366  -6.8011  -6.7690  -6.7628  -6.7582  -6.7485
    -6.7338  -6.7029  -6.6787  -6.6635  -6.6583  -6.6382  -6.6201  -6.6112
    -6.6093  -6.6039  -6.6023  -6.6017  -6.5979  -6.5863  -6.5852  -6.5849
    -6.5846  -6.5794  -6.5773  -6.5772  -6.5768  -6.5764  -6.5304  -6.5167
    -6.5024  -6.4620  -6.4376  -6.4206  -6.4152  -6.3755  -6.3448  -6.3199
    -6.3156  -6.3152  -6.3128  -6.2992  -6.2887  -6.2858  -6.2748  -6.2745
    -6.2706  -6.2703  -6.2698  -6.2547  -6.2546  -6.2494  -6.2328  -6.2211
    -6.2040  -6.2036  -6.2020  -6.1929  -6.0979  -6.0913  -6.0857  -6.0747
    -5.9960  -5.9849  -5.9676  -5.9203  -5.9141  -5.8908  -5.8516  -5.8510
    -5.8133  -5.7453  -5.7319  -5.6869  -5.6626  -5.5988  -5.5909  -5.4993
    -5.4821  -5.3288  -5.2494  -4.1091  -4.1014  -4.0975  -4.0886  -4.0071
    -3.9642  -3.9468  -3.9237  -3.9150  -3.9147  -3.8489  -3.8393  -3.8375
    -3.8315  -3.8243  -3.8124  -3.8095  -3.8015  -3.7968  -3.7947  -3.7330
    -3.7057  -3.7049  -3.6847  -3.6294  -3.6266  -3.6001  -3.5985  -3.5975
    -3.5949  -3.5523  -3.5471  -3.5433  -3.5424  -3.5268  -3.5223  -3.5212
    -3.5112  -3.5051  -3.4938  -3.4869  -3.4771  -3.4750  -3.4722  -3.4699
    -3.4575  -3.4474  -3.4464  -3.4439  -3.4256  -3.4191  -3.4178  -3.4168
    -3.4033  -3.3947  -3.3726  -3.3505  -3.3500  -3.3438  -3.3427  -3.3369
    -3.3361  -3.3322  -3.3127  -3.3033  -3.2929  -3.2880  -3.2812  -3.2758
    -3.2756  -3.2744  -3.2734  -3.2693  -3.2552  -3.2410  -3.2406  -3.2327
    -3.2313  -3.2221  -3.2206  -3.2144  -3.2083  -3.2077  -3.1992  -3.1947
    -3.1836  -3.1752  -3.1740  -3.1690  -3.1616  -3.1605  -3.1585  -3.1585
    -3.1458  -3.1008  -3.0920  -3.0913  -3.0817  -3.0687  -3.0669  -3.0628
    -3.0564  -3.0241  -3.0212  -3.0200  -3.0197  -3.0184  -3.0167  -3.0089
    -3.0073  -3.0063  -3.0051  -3.0024  -3.0009  -2.9880  -2.9850  -2.9832
    -2.9804  -2.9726  -2.9669  -2.9654  -2.9624  -2.9600  -2.9540  -2.9452
    -2.9446  -2.9403  -2.9389  -2.9333  -2.9272  -2.9255  -2.9216  -2.8974
    -2.8945  -2.8806  -2.8799  -2.8731  -2.8714  -2.8627  -2.8402  -2.7965
    -2.7945  -2.7862  -2.7779  -2.7456  -2.7260  -2.7210  -2.7130  -2.6197
    -2.6193  -2.6072  -2.5825  -2.5702  -2.5469  -2.5450  -2.5415  -2.5310
    -2.5300  -2.5241  -2.5230  -2.5166  -2.5144  -2.4949  -2.4000  -2.3967
    -2.3908  -2.3830  -2.3813  -2.3725  -2.3710  -2.3406  -2.3398

          k =-0.5000-0.8660 0.0000 (386352 PWs)   bands (ev):

   -88.6270 -88.6220 -88.5476 -66.6177 -66.6176 -66.6176 -66.6173 -66.6163
   -66.6163 -66.6072 -66.6069 -66.6069 -66.6069 -66.6069 -66.6056 -66.6056
   -66.5984 -66.5924 -66.5918 -66.5918 -66.5918 -66.5918 -66.5918 -66.5918
   -66.5918 -66.5917 -66.5905 -66.5905 -66.5905 -66.5905 -66.5903 -66.5875
   -66.5874 -66.5874 -66.5871 -66.5861 -66.5860 -66.5858 -66.5814 -66.5812
   -66.5811 -66.5811 -66.5811 -66.5811 -66.5808 -66.5807 -66.5798 -66.5798
   -66.5798 -66.5797 -66.5797 -66.5771 -66.5767 -66.5766 -66.5766 -66.5766
   -66.5753 -66.5753 -66.5648 -66.5636 -66.5628 -66.5608 -66.5588 -66.5574
   -66.5537 -66.5518 -66.5474 -54.5610 -54.5156 -54.4708 -54.3778 -54.3653
   -54.3539 -54.3316 -54.2778 -54.2555 -40.9197 -40.9196 -40.9195 -40.9195
   -40.9195 -40.9195 -40.9193 -40.9192 -40.9189 -40.9189 -40.9189 -40.9189
   -40.9064 -40.8992 -40.8929 -40.8929 -40.8927 -40.8927 -40.8925 -40.8921
   -40.8920 -40.8905 -40.8806 -40.8806 -40.8806 -40.8806 -40.8800 -40.8800
   -40.8787 -40.8683 -40.8547 -40.8515 -40.8300 -40.8300 -40.8300 -40.8300
   -40.8299 -40.8299 -40.8299 -40.8299 -40.8292 -40.8292 -40.8292 -40.8292
   -40.8090 -40.8072 -40.8047 -40.8022 -40.7792 -40.7713 -40.7711 -40.7711
   -40.7709 -40.7705 -40.7705 -40.7679 -40.7617 -40.7617 -40.7617 -40.7616
   -40.7608 -40.7608 -40.7528 -40.7508 -40.7503 -40.7503 -40.7503 -40.7502
   -40.7496 -40.7496 -40.7429 -40.7365 -40.7316 -40.7272 -40.7215 -40.7207
   -40.7207 -40.7207 -40.7207 -40.7207 -40.7207 -40.7206 -40.7206 -40.7200
   -40.7200 -40.7200 -40.7200 -40.7121 -40.7119 -40.7119 -40.7117 -40.7112
   -40.7112 -40.7074 -40.7059 -40.7046 -40.7002 -40.7002 -40.7002 -40.7001
   -40.7000 -40.6998 -40.6996 -40.6996 -40.6996 -40.6996 -40.6994 -40.6993
   -40.6993 -40.6993 -40.6989 -40.6989 -40.6989 -40.6989 -40.6980 -40.6949
   -40.6910 -40.6909 -40.6909 -40.6909 -40.6905 -40.6902 -40.6902 -40.6894
   -40.6847 -40.6835 -40.6773 -40.6714 -40.6695 -40.6694 -40.6693 -40.6693
   -40.6692 -40.6692 -40.6690 -40.6690 -40.6684 -40.6684 -40.6683 -40.6683
   -40.6505 -40.6483 -40.6423 -40.6412 -40.6345 -40.6345 -40.6345 -40.6345
   -40.6345 -40.6345 -40.6344 -40.6344 -40.6336 -40.6336 -40.6336 -40.6336
   -40.6225 -40.6224 -40.6224 -40.6221 -40.6214 -40.6214 -40.6144 -40.6140
   -40.6088 -40.6061 -40.6032 -40.6031 -40.6030 -40.6028 -40.6021 -40.6021
   -40.6011 -40.5901 -40.5861 -40.5861 -40.5860 -40.5860 -40.5851 -40.5851
   -40.5813 -40.5725 -40.5647 -40.5559 -40.5555 -40.5554 -40.5554 -40.5552
   -40.5544 -40.5544 -40.5311 -40.5271 -20.2464 -19.8867 -19.8701 -19.8275
   -19.7772 -19.7356 -19.6666 -19.6458 -19.5663 -19.4603 -19.4327 -19.4090
   -19.3463 -19.3186 -19.2420 -19.2240 -19.1506 -18.8152 -18.7959 -18.7580
   -18.7519 -18.7409 -18.7226 -18.7119 -18.7098 -18.7088 -18.6863 -18.6597
   -18.6542 -18.6380 -18.6359 -18.6202 -18.5903 -18.5881 -18.5716 -18.5506
   -18.5502 -18.5475 -18.5318 -18.5240 -18.5115 -18.4852 -18.4820 -18.4748
   -18.4679 -18.4340 -18.4121 -18.4074 -18.4049 -18.3810 -18.3745 -18.3520
   -18.3327 -18.3166 -18.3112 -18.2846 -18.2656 -18.2497 -18.2450 -18.2389
   -18.2048 -18.1797 -18.1773 -18.1688 -18.1593 -18.1318 -18.1269 -18.1102
   -18.1037 -18.0990 -18.0972 -18.0957 -18.0905 -18.0734 -18.0690 -18.0684
   -18.0663 -18.0660 -18.0625 -18.0556 -18.0501 -18.0407 -18.0391 -18.0262
   -18.0096 -18.0071 -18.0047 -17.9996 -17.9996 -17.9979 -17.9931 -17.9879
   -17.9853 -17.9746 -17.9482 -17.9450 -17.9359 -17.9320 -17.9302 -17.9169
   -17.8907 -17.8905 -17.8818 -17.8727 -17.8506 -17.8478 -17.8419 -17.8397
   -17.8369 -17.8305 -17.8181 -17.8177 -17.8171 -17.8164 -17.8154 -17.8151
   -17.8026 -17.8023 -17.7828 -17.7817 -17.7587 -17.7577 -17.7390 -17.7379
   -17.7248 -17.7241 -17.7179 -17.7178 -12.0914 -12.0439 -12.0016 -11.7169
   -11.6933 -11.5973 -11.5275 -11.5166 -11.4993 -11.4948 -11.4921 -11.4798
   -11.4687 -11.4617 -11.4483 -11.4138 -11.3968 -11.3947 -11.3755 -11.3747
   -11.3619 -11.3397 -11.3333 -11.3144 -11.2999 -11.2890 -11.2743 -11.2735
   -11.2680 -11.2595 -11.2573 -11.2516 -11.2466 -11.2115 -11.2030 -11.1924
   -11.1874 -11.1746 -11.1733 -11.1658 -11.1656 -11.1534 -11.1458 -11.1455
   -11.1318 -11.1285 -11.0976 -11.0837 -11.0736 -11.0596 -11.0581 -11.0171
   -10.9906 -10.9851 -10.9403 -10.9298 -10.9218 -10.9112 -10.8994 -10.8951
   -10.8877 -10.8541 -10.8522 -10.8373 -10.8343 -10.8292 -10.8196 -10.8173
   -10.8097 -10.8091 -10.8076 -10.8063 -10.8058 -10.7967 -10.7943 -10.7928
   -10.7907 -10.7904 -10.7834 -10.7814 -10.7788 -10.7754 -10.7460 -10.7417
   -10.7411 -10.7408 -10.7303 -10.5920 -10.5385 -10.5309 -10.5263 -10.5104
   -10.4804 -10.4348 -10.4224 -10.3911 -10.3151 -10.2705 -10.2458 -10.2410
   -10.1750 -10.1623 -10.1377 -10.1311 -10.1243 -10.1138 -10.1009 -10.0907
   -10.0764 -10.0506 -10.0383 -10.0330 -10.0272 -10.0253 -10.0178 -10.0143
    -9.9952  -9.9689  -9.9643  -9.9568  -9.9278  -9.9239  -9.9125  -9.9025
    -9.8925  -9.8912  -9.8803  -9.8729  -9.8552  -9.8439  -9.8334  -9.8018
    -9.7940  -9.7741  -9.7693  -9.7607  -9.7498  -9.7377  -9.7290  -9.7034
    -9.6927  -9.6809  -9.6587  -9.6571  -9.6232  -9.6217  -9.6132  -9.6054
    -9.5971  -9.5654  -9.5634  -9.5540  -9.5402  -9.5389  -9.5359  -9.5194
    -9.4901  -9.4891  -9.4821  -9.4769  -9.4726  -9.4678  -9.4614  -9.4578
    -9.4551  -9.4378  -9.4318  -9.4301  -9.3869  -9.3744  -9.3691  -9.3423
    -9.2978  -9.2950  -9.2514  -9.2252  -9.2141  -9.2079  -9.2076  -9.1962
    -9.1904  -9.1679  -9.1563  -9.1489  -9.1329  -9.1299  -9.1199  -9.1053
    -9.0833  -9.0761  -9.0530  -9.0430  -9.0392  -9.0358  -9.0329  -9.0304
    -8.9967  -8.9903  -8.9857  -8.9798  -8.9544  -8.9518  -8.9401  -8.9380
    -8.9296  -8.9124  -8.9011  -8.8898  -8.8864  -8.8852  -8.8832  -8.8755
    -8.8744  -8.8736  -8.8671  -8.8657  -8.8652  -8.8570  -8.8488  -8.8470
    -8.8441  -8.8391  -8.8381  -8.8373  -8.8140  -8.8117  -8.7913  -8.7887
    -8.7872  -8.7859  -8.7852  -8.7822  -8.7615  -8.7579  -8.7399  -8.7330
    -8.7316  -8.7293  -8.7219  -8.7118  -8.7035  -8.6537  -8.6515  -8.6392
    -8.6048  -8.5912  -8.5225  -8.5025  -8.5003  -8.4579  -8.4372  -8.4325
    -8.3834  -8.3547  -8.3529  -8.3240  -8.2781  -8.2699  -8.2406  -8.1773
    -8.1551  -8.1258  -8.1257  -8.1169  -8.1165  -8.1056  -8.1053  -8.0859
    -8.0681  -8.0585  -8.0547  -7.9890  -7.9822  -7.9626  -7.9594  -7.8964
    -7.8716  -7.8561  -7.8485  -7.8385  -7.8315  -7.8293  -7.8204  -7.8133
    -7.8077  -7.8061  -7.8010  -7.7981  -7.7955  -7.7939  -7.7896  -7.7847
    -7.7827  -7.7797  -7.7794  -7.7747  -7.7677  -7.7669  -7.7631  -7.7620
    -7.7615  -7.7607  -7.7565  -7.7564  -7.7418  -7.7358  -7.7340  -7.7328
    -7.7280  -7.7225  -7.7167  -7.7123  -7.6948  -7.6945  -7.6938  -7.6927
    -7.6649  -7.6648  -7.6642  -7.6628  -7.6510  -7.6476  -7.6244  -7.6134
    -7.6098  -7.6066  -7.6050  -7.6024  -7.6010  -7.5984  -7.5922  -7.5842
    -7.5804  -7.5652  -7.5626  -7.5596  -7.5574  -7.5509  -7.5464  -7.4737
    -7.4701  -7.4604  -7.4593  -7.4589  -7.4434  -7.4293  -7.3886  -7.3871
    -7.3725  -7.2645  -7.2230  -7.1708  -7.1675  -7.1663  -7.1640  -7.1354
    -7.1289  -7.1241  -7.1153  -7.1054  -7.0994  -7.0975  -7.0752  -7.0602
    -7.0433  -7.0319  -7.0255  -7.0214  -7.0104  -7.0030  -6.9855  -6.9737
    -6.9558  -6.9364  -6.9129  -6.9031  -6.8950  -6.8843  -6.8807  -6.8601
    -6.8578  -6.8552  -6.8360  -6.8024  -6.7736  -6.7636  -6.7561  -6.7525
    -6.7399  -6.7015  -6.6796  -6.6603  -6.6552  -6.6390  -6.6203  -6.6119
    -6.6059  -6.6039  -6.6023  -6.6015  -6.5930  -6.5864  -6.5854  -6.5846
    -6.5829  -6.5776  -6.5772  -6.5771  -6.5768  -6.5756  -6.5332  -6.5197
    -6.5042  -6.4568  -6.4421  -6.4233  -6.4169  -6.3724  -6.3461  -6.3203
    -6.3155  -6.3151  -6.3132  -6.2970  -6.2883  -6.2789  -6.2747  -6.2741
    -6.2706  -6.2703  -6.2693  -6.2550  -6.2548  -6.2487  -6.2343  -6.2220
    -6.2040  -6.2038  -6.2020  -6.1936  -6.0946  -6.0914  -6.0849  -6.0759
    -5.9973  -5.9849  -5.9711  -5.9205  -5.9152  -5.8933  -5.8515  -5.8512
    -5.8146  -5.7474  -5.7305  -5.6866  -5.6628  -5.5989  -5.5909  -5.4983
    -5.4799  -5.3286  -5.2508  -4.1085  -4.1029  -4.0956  -4.0886  -4.0071
    -3.9667  -3.9433  -3.9245  -3.9153  -3.9138  -3.8492  -3.8393  -3.8380
    -3.8318  -3.8241  -3.8124  -3.8091  -3.8018  -3.7968  -3.7948  -3.7329
    -3.7062  -3.7034  -3.6851  -3.6279  -3.6271  -3.6004  -3.5981  -3.5973
    -3.5949  -3.5523  -3.5470  -3.5440  -3.5429  -3.5262  -3.5223  -3.5213
    -3.5108  -3.5049  -3.4945  -3.4873  -3.4766  -3.4754  -3.4723  -3.4697
    -3.4572  -3.4473  -3.4467  -3.4440  -3.4253  -3.4191  -3.4182  -3.4150
    -3.4029  -3.3958  -3.3741  -3.3506  -3.3503  -3.3436  -3.3427  -3.3372
    -3.3363  -3.3324  -3.3119  -3.3034  -3.2953  -3.2885  -3.2814  -3.2762
    -3.2755  -3.2743  -3.2735  -3.2692  -3.2568  -3.2418  -3.2405  -3.2327
    -3.2315  -3.2222  -3.2208  -3.2132  -3.2081  -3.2076  -3.1990  -3.1937
    -3.1831  -3.1751  -3.1742  -3.1688  -3.1622  -3.1609  -3.1586  -3.1585
    -3.1460  -3.1012  -3.0928  -3.0923  -3.0811  -3.0688  -3.0666  -3.0624
    -3.0565  -3.0236  -3.0214  -3.0202  -3.0195  -3.0185  -3.0167  -3.0085
    -3.0072  -3.0058  -3.0051  -3.0026  -3.0008  -2.9881  -2.9844  -2.9829
    -2.9808  -2.9717  -2.9672  -2.9650  -2.9623  -2.9599  -2.9543  -2.9449
    -2.9446  -2.9397  -2.9383  -2.9321  -2.9271  -2.9249  -2.9221  -2.8979
[...]
     atom  164 type  1   force =     0.00045905    0.00006596   -0.00201198
     atom  165 type  2   force =     0.00000015   -0.00000128   -0.00009864
     atom  166 type  2   force =    -0.00001317   -0.00000006    0.00005091
     atom  167 type  2   force =     0.00000026    0.00000019   -0.00009155
     atom  168 type  2   force =    -0.00000440   -0.00006213   -0.00423029
     atom  169 type  1   force =    -0.00000004   -0.00000004    0.00255972
     atom  170 type  1   force =     0.00000000   -0.00000006    0.00000621
     atom  171 type  2   force =    -0.00000003   -0.00000001   -0.00003428
     atom  172 type  2   force =    -0.00000000    0.00000000    0.00017168
     atom  173 type  2   force =    -0.00000000    0.00000001    0.00441411
     atom  174 type  2   force =     0.00000002    0.00000032    0.00009363
     atom  175 type  1   force =     0.00000353    0.00000195    0.00001077
     atom  176 type  1   force =    -0.00000001   -0.00007607   -0.00232432
     atom  177 type  2   force =     0.00000068   -0.00000003   -0.00009130
     atom  178 type  2   force =     0.00000087    0.00000344    0.00005710
     atom  179 type  2   force =    -0.00000012    0.00000061   -0.00009125
     atom  180 type  2   force =    -0.00045746   -0.00026432   -0.00422771
     atom  181 type  1   force =    -0.00000004    0.00000002    0.00255962
     atom  182 type  1   force =    -0.00000007   -0.00000000    0.00000622
     atom  183 type  2   force =    -0.00000002   -0.00000005   -0.00003427
     atom  184 type  2   force =    -0.00000000   -0.00000001    0.00017169
     atom  185 type  2   force =     0.00000001    0.00000002    0.00441412
     atom  186 type  2   force =    -0.00000022    0.00000037    0.00009326
     atom  187 type  1   force =    -0.00000168    0.00000194    0.00001158
     atom  188 type  1   force =    -0.00006570    0.00003821   -0.00232448
     atom  189 type  2   force =    -0.00000091    0.00000038   -0.00009875
     atom  190 type  2   force =     0.00000338   -0.00000027    0.00005716
     atom  191 type  2   force =     0.00000068   -0.00000091   -0.00009131
     atom  192 type  2   force =    -0.00005622    0.00002765   -0.00423039
     atom  193 type  3   force =    -0.00000153   -0.00025817   -0.00628667
     atom  194 type  3   force =    -0.00022462    0.00012743   -0.00628681
     atom  195 type  3   force =     0.00022594    0.00013021   -0.00628776

     Total force =     0.004416     Total SCF correction =     0.000350
     Energy error            =      3.3E-05 Ry
     Gradient error          =      9.4E-04 Ry/Bohr

     bfgs converged in  33 scf cycles and  32 bfgs steps
     (criteria: energy <  1.0E-04 Ry, force <  1.0E-03 Ry/Bohr)

     End of BFGS Geometry Optimization

     Final energy             =  -33329.5951112889 Ry

     File ./outdir/pwscf.bfgs deleted, as requested
Begin final coordinates

ATOMIC_POSITIONS (angstrom)
Mo            0.0000119917        1.8193638619       -9.1672481230    0   0   0
Mo            1.5756136568        0.9097075315       -3.0554901653    0   0   0
S             0.0000188998        1.8193822938       -4.6232556019    0   0   0
S             1.5756321638        0.9096773839       -7.6014065489    0   0   0
S             1.5756326175        0.9096785128      -10.7330757790    0   0   0
S             0.0000189190        1.8193860094       -1.4877129945    0   0   0
Mo           -0.0007345954        1.8242583040        3.0600852428
Mo            1.5742966606        0.9063453984        9.1761024598
S            -0.0052523149        1.8208143839        7.6094837479
S             1.5745948705        0.9145544935        4.6280442199
S             1.5751367552        0.9147015014        1.4923474105
S            -0.0090731307        1.7695742940       10.7709883966
Mo           -1.5756053507        4.5484193819       -9.1672481230    0   0   0
Mo            0.0000378379        3.6387394919       -3.0554952701    0   0   0
S            -1.5755913433        4.5484363582       -4.6232494962    0   0   0
S             0.0000148214        3.6387329039       -7.6014065489    0   0   0
S             0.0000152751        3.6387340328      -10.7330757790    0   0   0
S            -1.5755906502        4.5484413613       -1.4877305502    0   0   0
Mo           -1.5762381682        4.5531708473        3.0600643511
Mo           -0.0320086579        3.6317032704        9.1728516442
S            -1.5867955192        4.5604873189        7.6094579597
S            -0.0010973299        3.6433664111        4.6286551122
S             0.0000505354        3.6438489028        1.4926451178
S            -1.6331642467        4.5829917327       10.7707949161
Mo           -3.1512226931        7.2774749019       -9.1672481230    0   0   0
Mo           -1.5755910988        6.3678216792       -3.0555115988    0   0   0
S            -3.1512162438        7.2774954350       -4.6232578178    0   0   0
S            -1.5756025210        6.3677884239       -7.6014065489    0   0   0
S            -1.5756020673        6.3677895528      -10.7330757790    0   0   0
S            -3.1512127704        7.2774877076       -1.4877200710    0   0   0
Mo           -3.1518916506        7.2821773691        3.0599710254
Mo           -1.5892714281        6.3857458473        9.1759761690
S            -3.1536898164        7.2890060832        7.5965417949
S            -1.5764427519        6.3723736347        4.6280289394
S            -1.5759157468        6.3725553322        1.4923538690
S            -3.1625829879        7.2950693484       10.7409216729
Mo           -4.7268400355       10.0065304219       -9.1672481230    0   0   0
Mo           -3.1512405618        9.0968403586       -3.0554816746    0   0   0
S            -4.7268341792       10.0065523623       -4.6232463762    0   0   0
S            -3.1512198634        9.0968439439       -7.6014065489    0   0   0
S            -3.1512194097        9.0968450728      -10.7330757790    0   0   0
S            -4.7268370797       10.0065537885       -1.4877176751    0   0   0
Mo           -4.7276010797       10.0114245723        3.0599644441
Mo           -3.1531072552        9.1071653531        9.1672772322
S            -4.7276212384       10.0161427001        7.5966066562
S            -3.1520082353        9.1016502283        4.6275933707
S            -3.1522205371        9.1013611050        1.4919849454
S            -4.7268196401       10.0053315882       10.7409976087
Mo            3.1512517547        1.8193638619       -9.1672481230    0   0   0
Mo            4.7269020221        0.9097289540       -3.0554823951    0   0   0
S             3.1512612351        1.8193882564       -4.6232320683    0   0   0
S             4.7268719268        0.9096773839       -7.6014065489    0   0   0
S             4.7268723805        0.9096785128      -10.7330757790    0   0   0
S             3.1512592485        1.8193890201       -1.4877261251    0   0   0
Mo            3.1504947229        1.8241930917        3.0606921449
Mo            4.7292192828        0.9097058939        9.1727409691
S             3.1548265067        1.8208571600        7.6119235195
S             4.7265906725        0.9142620524        4.6277528527
S             4.7255085684        0.9143774772        1.4922081752
S             3.1564061031        1.7725250108       10.7721971777
Mo            1.5756344123        4.5484193819       -9.1672481230    0   0   0
Mo            3.1512756394        3.6387769522       -3.0554814834    0   0   0
S             1.5756504879        4.5484423799       -4.6232390542    0   0   0
S             3.1512545844        3.6387329039       -7.6014065489    0   0   0
S             3.1512550381        3.6387340328      -10.7330757790    0   0   0
S             1.5756466253        4.5484431864       -1.4877251801    0   0   0
Mo            1.5750850269        4.5533102412        3.0613990286
Mo            3.1832024160        3.6326036767        9.1711454657
S             1.5743138321        4.5591553886        7.6402144165
S             3.1510505862        3.6434738948        4.6292867613
S             3.1502889813        3.6435629290        1.4931565128
S             1.5773784913        4.5605350071       10.6789012117
Mo            0.0000170699        7.2774749019       -9.1672481230    0   0   0
Mo            1.5756764447        6.3678236689       -3.0554877708    0   0   0
S             0.0000381981        7.2774979204       -4.6232454413    0   0   0
S             1.5756372420        6.3677884239       -7.6014065489    0   0   0
S             1.5756376957        6.3677895528      -10.7330757790    0   0   0
S             0.0000328088        7.2774946042       -1.4877307940    0   0   0
Mo           -0.0006617277        7.2822533311        3.0606878458
Mo            1.5760479910        6.4156702040        9.1713132216
S            -0.0068000443        7.2973935568        7.6120748641
S             1.5751020875        6.3731636187        4.6292675680
S             1.5748830395        6.3721905480        1.4931254665
S            -0.0482703233        7.3229953894       10.7721435678
Mo           -1.5756002725       10.0065304219       -9.1672481230    0   0   0
Mo            0.0000873425        9.0968676911       -3.0554912329    0   0   0
S            -1.5755883952       10.0065504530       -4.6232240150    0   0   0
S             0.0000198996        9.0968439439       -7.6014065489    0   0   0
S             0.0000203533        9.0968450728      -10.7330757790    0   0   0
S            -1.5755859047       10.0065492576       -1.4877362381    0   0   0
Mo           -1.5764951659       10.0112136403        3.0598314303
Mo           -0.0085036625        9.1165220220        9.1727913804
S            -1.5768769673       10.0172691770        7.5990681101
S            -0.0006614068        9.1022616775        4.6277527053
S            -0.0009819917        9.1010202411        1.4921913533
S            -1.5815558947       10.0146566424       10.7455395057
Mo            6.3024915177        1.8193638619       -9.1672481230    0   0   0
Mo            7.8781001445        0.9096521684       -3.0554919963    0   0   0
S             6.3025008696        1.8193826232       -4.6232480596    0   0   0
S             7.8781116898        0.9096773839       -7.6014065489    0   0   0
S             7.8781121435        0.9096785128      -10.7330757790    0   0   0
S             6.3025042007        1.8193849068       -1.4877147524    0   0   0
Mo            6.3016809429        1.8240549328        3.0594488384
Mo            7.8769984978        0.9207153297        9.1688965415
S             6.3021579797        1.8269229370        7.5994391674
S             7.8771258695        0.9143906425        4.6270740584
S             7.8774482211        0.9144297641        1.4915722587
S             6.3037647075        1.8297969847       10.7365697965
Mo            4.7268741753        4.5484193819       -9.1672481230    0   0   0
Mo            6.3024679138        3.6387501714       -3.0554895197    0   0   0
S             4.7268748770        4.5484386753       -4.6232519432    0   0   0
S             6.3024943474        3.6387329039       -7.6014065489    0   0   0
S             6.3024948011        3.6387340328      -10.7330757790    0   0   0
S             4.7268770533        4.5484432419       -1.4877137856    0   0   0
Mo            4.7262249846        4.5531103353        3.0604846304
Mo            6.3134114697        3.6511206898        9.1695343700
S             4.7372311659        4.5623356351        7.6115660067
S             6.3019536391        3.6429711107        4.6278063219
S             6.3016463507        3.6437041361        1.4920716351
S             4.7845402587        4.5840424227       10.7723039542
Mo            3.1512568329        7.2774749019       -9.1672481230    0   0   0
Mo            4.7268384135        6.3678043337       -3.0554959052    0   0   0
S             3.1512606125        7.2774972547       -4.6232589675    0   0   0
S             4.7268770050        6.3677884239       -7.6014065489    0   0   0
S             4.7268774587        6.3677895528      -10.7330757790    0   0   0
S             3.1512629079        7.2774963749       -1.4877081835    0   0   0
Mo            3.1504899399        7.2823703654        3.0604220398
Mo            4.7406534332        6.3873907490        9.1783569583
S             3.1580876112        7.2966823486        7.6117744796
S             4.7263826841        6.3727963119        4.6278876211
S             4.7256890112        6.3721817838        1.4923026619
S             3.2005683960        7.3269513847       10.7723829014
Mo            1.5756394905       10.0065304219       -9.1672481230    0   0   0
Mo            3.1512330605        9.0968514907       -3.0554878870    0   0   0
S             1.5756499830       10.0065443759       -4.6232632674    0   0   0
S             3.1512596626        9.0968439439       -7.6014065489    0   0   0
S             3.1512601163        9.0968450728      -10.7330757790    0   0   0
S             1.5756503041       10.0065459699       -1.4877044377    0   0   0
Mo            1.5748251731       10.0113170333        3.0594423178
Mo            3.1577029015        9.1174520834        9.1695639849
S             1.5724487095       10.0201039549        7.5994411904
S             3.1501224517        9.1021151515        4.6277789730
S             3.1507195437        9.1013101098        1.4920250933
S             1.5757334759       10.0201886104       10.7365597311
Mo            9.4537312807        1.8193638619       -9.1672481230    0   0   0
Mo           11.0293863460        0.9096952246       -3.0554894007    0   0   0
S             9.4537395970        1.8193770750       -4.6232328036    0   0   0
S            11.0293514528        0.9096773839       -7.6014065489    0   0   0
S            11.0293519066        0.9096785128      -10.7330757790    0   0   0
S             9.4537393632        1.8193794783       -1.4877366147    0   0   0
Mo            9.4529352960        1.8241705716        3.0597219601
Mo           11.0244630294        0.9099193778        9.1684705996
S             9.4499200917        1.8285791479        7.5982647201
S            11.0283868580        0.9146621127        4.6277145447
S            11.0286889332        0.9144503512        1.4920963553
S             9.4525339129        1.8302098709       10.7342689053
Mo            7.8781139383        4.5484193819       -9.1672481230    0   0   0
Mo            9.4537539161        3.6387607911       -3.0554933032    0   0   0
S             7.8781175448        4.5484378232       -4.6232366318    0   0   0
S             9.4537341104        3.6387329039       -7.6014065489    0   0   0
S             9.4537345641        3.6387340328      -10.7330757790    0   0   0
S             7.8781194018        4.5484411585       -1.4877377057    0   0   0
Mo            7.8773817480        4.5530512455        3.0600101274
Mo            9.4416764595        3.6515238382        9.1684071123
S             7.8773469673        4.5596488414        7.5950186200
S             9.4530132872        3.6433939831        4.6277277849
S             9.4530698994        3.6435330590        1.4920772917
S             7.8776693171        4.5612224235       10.7425827970
Mo            6.3024965959        7.2774749019       -9.1672481230    0   0   0
Mo            7.8781361655        6.3678242352       -3.0555014130    0   0   0
S             6.3024973331        7.2774953556       -4.6232392528    0   0   0
S             7.8781167680        6.3677884239       -7.6014065489    0   0   0
S             7.8781172217        6.3677895528      -10.7330757790    0   0   0
S             6.3024989866        7.2774929744       -1.4877349119    0   0   0
Mo            6.3016521704        7.2822133649        3.0595861645
Mo            7.8794220591        6.3783966836        9.1674659334
S             6.3057702206        7.2907552877        7.6002456924
S             7.8771228446        6.3726683223        4.6273525019
S             7.8775599235        6.3722830654        1.4920956161
S             6.3171188539        7.2974037871       10.7399736271
Mo            4.7268792535       10.0065304219       -9.1672481230    0   0   0
Mo            6.3025111524        9.0968738021       -3.0554915260    0   0   0
S             4.7268840634       10.0065452125       -4.6232380477    0   0   0
S             6.3024994256        9.0968439439       -7.6014065489    0   0   0
S             6.3024998793        9.0968450728      -10.7330757790    0   0   0
S             4.7268847312       10.0065459141       -1.4877283294    0   0   0
Mo            4.7259835407       10.0114313934        3.0599861006
Mo            6.3028921779        9.1098622418        9.1674518510
S             4.7267793602       10.0172663984        7.5950278032
S             6.3016625625        9.1014992416        4.6273161719
S             6.3016739355        9.1018257975        1.4920950733
S             4.7283040176       10.0167464698       10.7425706490
Pd            1.5836394760        6.2402316477       12.2139290364
Pd            3.0357781370        3.7269197809       12.2145164285
Pd            0.1273811646        3.7242717326       12.2183697411
End final coordinates



     Writing all to output data dir ./outdir/pwscf.save/
 
     init_run     :    198.63s CPU    202.71s WALL (       1 calls)
     electrons    :  49198.84s CPU  49607.35s WALL (       4 calls)
     update_pot   :     16.26s CPU     16.38s WALL (       3 calls)
     forces       :    508.67s CPU    520.43s WALL (       4 calls)
     force_dftd3  :      3.11s CPU      3.32s WALL (       4 calls)

     Called by init_run:
     wfcinit      :    174.13s CPU    176.27s WALL (       1 calls)
     potinit      :      1.43s CPU      1.88s WALL (       1 calls)
     hinit0       :     16.19s CPU     16.21s WALL (       1 calls)

     Called by electrons:
     c_bands      :  45386.85s CPU  45636.68s WALL (      52 calls)
     sum_band     :   3586.77s CPU   3679.52s WALL (      52 calls)
     v_of_rho     :     27.08s CPU     27.61s WALL (      53 calls)
     newd         :    148.50s CPU    217.68s WALL (      53 calls)
     PAW_pot      :     37.91s CPU     37.92s WALL (      56 calls)
     mix_rho      :      6.72s CPU      6.73s WALL (      52 calls)
     energy_dftd3 :      1.48s CPU      1.48s WALL (       4 calls)

     Called by c_bands:
     init_us_2    :    131.28s CPU    131.59s WALL (     448 calls)
     init_us_2:cp :    131.28s CPU    131.58s WALL (     448 calls)
     cegterg      :  44951.96s CPU  45193.28s WALL (     231 calls)

     Called by *egterg:
     cdiaghg      :   2663.26s CPU   2671.64s WALL (    3371 calls)
     h_psi        :  23575.02s CPU  23650.13s WALL (    3419 calls)
     s_psi        :   5010.56s CPU   5029.98s WALL (    3419 calls)
     g_psi        :     46.73s CPU     46.70s WALL (    3184 calls)

     Called by h_psi:
     h_psi:calbec :   4957.78s CPU   4958.63s WALL (    3419 calls)
     vloc_psi     :  13397.19s CPU  13422.26s WALL (    3419 calls)
     add_vuspsi   :   5163.12s CPU   5181.33s WALL (    3419 calls)

     General routines
     calbec       :   6517.54s CPU   6518.64s WALL (    3703 calls)
     fft          :     32.93s CPU     33.58s WALL (     731 calls)
     ffts         :      1.40s CPU      1.40s WALL (     105 calls)
     fftw         :  10489.41s CPU  10507.39s WALL ( 1984942 calls)
     interpolate  :      2.81s CPU      2.84s WALL (      53 calls)
 
     Parallel routines
 
     PWSCF        :     13h54m CPU     14h 2m WALL

 
   This run was terminated on:  14: 4:27   8Nov2023            

=------------------------------------------------------------------------------=
   JOB DONE.
=------------------------------------------------------------------------------=
Application 11384871 resources: utime ~1803306s, stime ~15630s, Rss ~3517948, inblocks ~0, outblocks ~51863256
