
     Program PWSCF v.7.2 starts on  2Sep2023 at  7: 5:14 

     This program is part of the open-source Quantum ESPRESSO suite
     for quantum simulation of materials; please cite
         "P. Giannozzi et al., J. Phys.:Condens. Matter 21 395502 (2009);
         "P. Giannozzi et al., J. Phys.:Condens. Matter 29 465901 (2017);
         "P. Giannozzi et al., J. Chem. Phys. 152 154105 (2020);
          URL http://www.quantum-espresso.org", 
     in publications or presentations arising from this work. More details at
     http://www.quantum-espresso.org/quote

     Parallel version (MPI), running on    36 processors

     MPI processes distributed on     1 nodes
     769379 MiB available memory on the printing compute node when the environment starts
 
     Waiting for input...
     Reading input from standard input
Warning: card &CELL ignored
Warning: card / ignored

     Current dimensions of program PWSCF are:
     Max number of different atomic species (ntypx) = 10
     Max number of k-points (npk) =  40000
     Max angular momentum in pseudopotentials (lmaxx) =  4
     file Mo.pbe-spn-kjpaw_psl.1.0.0.UPF: wavefunction(s)  4S 4D renormalized
     file S.pbe-n-kjpaw_psl.1.0.0.UPF: wavefunction(s)  3S 3P renormalized
     file Pd.pbe-spn-kjpaw_psl.1.0.0.UPF: wavefunction(s)  4S 5S 4D renormalized
     file H.pbe-kjpaw_psl.1.0.0.UPF: wavefunction(s)  1S renormalized
 
     R & G space division:  proc/nbgrp/npool/nimage =      36
     Subspace diagonalization in iterative solution of the eigenvalue problem:
     one sub-group per band group will be used
     custom distributed-memory algorithm (size of sub-group:  6*  6 procs)

 
     Parallelization info
     --------------------
     sticks:   dense  smooth     PW     G-vecs:    dense   smooth      PW
     Min         585     334     89               198743    85850   11735
     Max         586     335     90               198750    85861   11748
     Sum       21073   12049   3205              7154885  3090769  422587
 
     Using Slab Decomposition
 


     bravais-lattice index     =            0
     lattice parameter (alat)  =      23.8199  a.u.
     unit-cell volume          =   33861.0370 (a.u.)^3
     number of atoms/cell      =          194
     number of atomic types    =            4
     number of electrons       =      1683.00
     number of Kohn-Sham states=         1010
     kinetic-energy cutoff     =      77.0000  Ry
     charge density cutoff     =     539.0000  Ry
     scf convergence threshold =      1.0E-06
     mixing beta               =       0.2000
     number of iterations used =            8  plain     mixing
     energy convergence thresh.=      1.0E-04
     force convergence thresh. =      1.0E-03
     Exchange-correlation= SLA  PW   PBX  PBC
                           (   1   4   3   4   0   0   0)
     nstep                     =         1000


     Effective Screening Medium Method
     =================================
     Boundary Conditions: Vacuum-Slab-Vacuum
     total charge in unit cell        =   0.0000
     grid points for fit at edges     =        4 
 

     celldm(1)=  23.819920  celldm(2)=   0.000000  celldm(3)=   0.000000
     celldm(4)=   0.000000  celldm(5)=   0.000000  celldm(6)=   0.000000

     crystal axes: (cart. coord. in units of alat)
               a(1) = (   1.000000   0.000000   0.000000 )  
               a(2) = (  -0.499999   0.866026   0.000000 )  
               a(3) = (   0.000000   0.000000   2.893000 )  

     reciprocal axes: (cart. coord. in units 2 pi/alat)
               b(1) = (  1.000000  0.577349  0.000000 )  
               b(2) = (  0.000000  1.154700  0.000000 )  
               b(3) = (  0.000000  0.000000  0.345662 )  


     PseudoPot. # 1 for Mo read from file:
     ./pseudo/Mo.pbe-spn-kjpaw_psl.1.0.0.UPF
     MD5 check sum: 317bf72632116215fd98f72de1686f13
     Pseudo is Projector augmented-wave + core cor, Zval = 14.0
     Generated using 'atomic' code by A. Dal Corso  v.7.2
     Shape of augmentation charge: PSQ
     Using radial grid of 1229 points,  6 beta functions with: 
                l(1) =   0
                l(2) =   0
                l(3) =   1
                l(4) =   1
                l(5) =   2
                l(6) =   2
     Q(r) pseudized with 0 coefficients 


     PseudoPot. # 2 for S  read from file:
     ./pseudo/S.pbe-n-kjpaw_psl.1.0.0.UPF
     MD5 check sum: 8b7b5302570d38d5e87fed6a1065abda
     Pseudo is Projector augmented-wave + core cor, Zval =  6.0
     Generated using 'atomic' code by A. Dal Corso  v.7.2
     Shape of augmentation charge: PSQ
     Using radial grid of 1151 points,  6 beta functions with: 
                l(1) =   0
                l(2) =   0
                l(3) =   1
                l(4) =   1
                l(5) =   2
                l(6) =   2
     Q(r) pseudized with 0 coefficients 


     PseudoPot. # 3 for Pd read from file:
     ./pseudo/Pd.pbe-spn-kjpaw_psl.1.0.0.UPF
     MD5 check sum: a60571a671f2502b8a6a4569d20a6edb
     Pseudo is Projector augmented-wave + core cor, Zval = 18.0
     Generated using 'atomic' code by A. Dal Corso  v.7.2
     Shape of augmentation charge: PSQ
     Using radial grid of 1235 points,  6 beta functions with: 
                l(1) =   0
                l(2) =   0
                l(3) =   1
                l(4) =   1
                l(5) =   2
                l(6) =   2
     Q(r) pseudized with 0 coefficients 


     PseudoPot. # 4 for H  read from file:
     ./pseudo/H.pbe-kjpaw_psl.1.0.0.UPF
     MD5 check sum: b3cb3c48ee3b58cc53e4d592112d0ca6
     Pseudo is Projector augmented-wave, Zval =  1.0
     Generated using 'atomic' code by A. Dal Corso  v.7.2
     Shape of augmentation charge: PSQ
     Using radial grid of  929 points,  2 beta functions with: 
                l(1) =   0
                l(2) =   0
     Q(r) pseudized with 0 coefficients 


     atomic species   valence    mass     pseudopotential
        Mo            14.00    95.95000     Mo( 1.00)
        S              6.00    32.06000     S ( 1.00)
        Pd            18.00   106.42000     Pd( 1.00)
        H              1.00     1.00800     H ( 1.00)

     No symmetry found



   Cartesian axes

     site n.     atom                  positions (alat units)
         1           Mo  tau(   1) = (   0.0000010   0.1443372  -0.7272732  )
         2           Mo  tau(   2) = (   0.1249995   0.0721706  -0.2424038  )
         3           S   tau(   3) = (   0.0000015   0.1443386  -0.3667807  )
         4           S   tau(   4) = (   0.1250010   0.0721682  -0.6030489  )
         5           S   tau(   5) = (   0.1250010   0.0721683  -0.8514963  )
         6           S   tau(   6) = (   0.0000015   0.1443389  -0.1180260  )
         7           Mo  tau(   7) = (   0.0000007   0.1443589   0.2424205  )
         8           Mo  tau(   8) = (   0.1250041   0.0720322   0.7266168  )
         9           S   tau(   9) = (   0.0000742   0.1444871   0.6020949  )
        10           S   tau(  10) = (   0.1250024   0.0721701   0.3667478  )
        11           S   tau(  11) = (   0.1250035   0.0721876   0.1180348  )
        12           S   tau(  12) = (  -0.0004118   0.1430864   0.8514340  )
        13           Mo  tau(  13) = (  -0.1249989   0.3608437  -0.7272732  )
        14           Mo  tau(  14) = (   0.0000030   0.2886752  -0.2424042  )
        15           S   tau(  15) = (  -0.1249977   0.3608450  -0.3667802  )
        16           S   tau(  16) = (   0.0000012   0.2886747  -0.6030489  )
        17           S   tau(  17) = (   0.0000012   0.2886748  -0.8514963  )
        18           S   tau(  18) = (  -0.1249977   0.3608454  -0.1180274  )
        19           Mo  tau(  19) = (  -0.1249729   0.3608584   0.2424608  )
        20           Mo  tau(  20) = (  -0.0007193   0.2876626   0.7275440  )
        21           S   tau(  21) = (  -0.1251115   0.3607789   0.6027257  )
        22           S   tau(  22) = (   0.0000621   0.2887099   0.3668377  )
        23           S   tau(  23) = (  -0.0000096   0.2886902   0.1180527  )
        24           S   tau(  24) = (  -0.1254673   0.3605734   0.8517408  )
        25           Mo  tau(  25) = (  -0.2499987   0.5773502  -0.7272732  )
        26           Mo  tau(  26) = (  -0.1249977   0.5051839  -0.2424055  )
        27           S   tau(  27) = (  -0.2499981   0.5773518  -0.3667809  )
        28           S   tau(  28) = (  -0.1249986   0.5051812  -0.6030489  )
        29           S   tau(  29) = (  -0.1249986   0.5051813  -0.8514963  )
        30           S   tau(  30) = (  -0.2499979   0.5773512  -0.1180266  )
        31           Mo  tau(  31) = (  -0.2499795   0.5773389   0.2424205  )
        32           Mo  tau(  32) = (  -0.1262356   0.5050639   0.7275441  )
        33           S   tau(  33) = (  -0.2498323   0.5773390   0.6020948  )
        34           S   tau(  34) = (  -0.1249376   0.5052159   0.3668377  )
        35           S   tau(  35) = (  -0.1249905   0.5051638   0.1180531  )
        36           S   tau(  36) = (  -0.2512883   0.5776183   0.8514340  )
        37           Mo  tau(  37) = (  -0.3749985   0.7938567  -0.7272732  )
        38           Mo  tau(  38) = (  -0.2500001   0.7216874  -0.2424031  )
        39           S   tau(  39) = (  -0.3749980   0.7938584  -0.3667800  )
        40           S   tau(  40) = (  -0.2499984   0.7216877  -0.6030489  )
        41           S   tau(  41) = (  -0.2499984   0.7216878  -0.8514963  )
        42           S   tau(  42) = (  -0.3749982   0.7938585  -0.1180264  )
        43           Mo  tau(  43) = (  -0.3749962   0.7938568   0.2423838  )
        44           Mo  tau(  44) = (  -0.2501148   0.7217588   0.7266170  )
        45           S   tau(  45) = (  -0.3749945   0.7938590   0.6021274  )
        46           S   tau(  46) = (  -0.2499958   0.7216877   0.3667488  )
        47           S   tau(  47) = (  -0.2499810   0.7216794   0.1180323  )
        48           S   tau(  48) = (  -0.3749953   0.7938585   0.8511588  )
        49           Mo  tau(  49) = (   0.2500010   0.1443372  -0.7272732  )
        50           Mo  tau(  50) = (   0.3750034   0.0721723  -0.2424032  )
        51           S   tau(  51) = (   0.2500017   0.1443391  -0.3667788  )
        52           S   tau(  52) = (   0.3750010   0.0721682  -0.6030489  )
        53           S   tau(  53) = (   0.3750010   0.0721683  -0.8514963  )
        54           S   tau(  54) = (   0.2500016   0.1443391  -0.1180271  )
        55           Mo  tau(  55) = (   0.2500054   0.1443594   0.2424211  )
        56           Mo  tau(  56) = (   0.3749279   0.0721263   0.7263991  )
        57           S   tau(  57) = (   0.2499344   0.1444864   0.6020948  )
        58           S   tau(  58) = (   0.3750316   0.0721860   0.3667597  )
        59           S   tau(  59) = (   0.3749924   0.0721644   0.1180346  )
        60           S   tau(  60) = (   0.2504199   0.1430865   0.8514340  )
        61           Mo  tau(  61) = (   0.1250012   0.3608437  -0.7272732  )
        62           Mo  tau(  62) = (   0.2500029   0.2886782  -0.2424031  )
        63           S   tau(  63) = (   0.1250024   0.3608455  -0.3667794  )
        64           S   tau(  64) = (   0.2500012   0.2886747  -0.6030489  )
        65           S   tau(  65) = (   0.2500012   0.2886748  -0.8514963  )
        66           S   tau(  66) = (   0.1250021   0.3608455  -0.1180270  )
        67           Mo  tau(  67) = (   0.1250038   0.3608653   0.2423963  )
        68           Mo  tau(  68) = (   0.2507284   0.2876625   0.7275438  )
        69           S   tau(  69) = (   0.1250046   0.3627170   0.6061948  )
        70           S   tau(  70) = (   0.2499461   0.2887116   0.3668373  )
        71           S   tau(  71) = (   0.2500171   0.2886900   0.1180543  )
        72           S   tau(  72) = (   0.1250046   0.3519103   0.8557806  )
        73           Mo  tau(  73) = (   0.0000014   0.5773502  -0.7272732  )
        74           Mo  tau(  74) = (   0.1250045   0.5051840  -0.2424036  )
        75           S   tau(  75) = (   0.0000030   0.5773520  -0.3667799  )
        76           S   tau(  76) = (   0.1250014   0.5051812  -0.6030489  )
        77           S   tau(  77) = (   0.1250014   0.5051813  -0.8514963  )
        78           S   tau(  78) = (   0.0000026   0.5773517  -0.1180274  )
        79           Mo  tau(  79) = (   0.0000222   0.5773400   0.2423964  )
        80           Mo  tau(  80) = (   0.1250047   0.5051836   0.7321380  )
        81           S   tau(  81) = (   0.0016251   0.5764170   0.6061946  )
        82           S   tau(  82) = (   0.1250047   0.5051815   0.3667777  )
        83           S   tau(  83) = (   0.1250048   0.5051819   0.1179962  )
        84           S   tau(  84) = (  -0.0077335   0.5818202   0.8557807  )
        85           Mo  tau(  85) = (  -0.1249984   0.7938567  -0.7272732  )
        86           Mo  tau(  86) = (   0.0000069   0.7216896  -0.2424039  )
        87           S   tau(  87) = (  -0.1249975   0.7938582  -0.3667782  )
        88           S   tau(  88) = (   0.0000016   0.7216877  -0.6030489  )
        89           S   tau(  89) = (   0.0000016   0.7216878  -0.8514963  )
        90           S   tau(  90) = (  -0.1249973   0.7938582  -0.1180279  )
        91           Mo  tau(  91) = (  -0.1249774   0.7938494   0.2424207  )
        92           Mo  tau(  92) = (  -0.0005116   0.7228241   0.7275438  )
        93           S   tau(  93) = (  -0.1249026   0.7937246   0.6020948  )
        94           S   tau(  94) = (   0.0000043   0.7216209   0.3668361  )
        95           S   tau(  95) = (   0.0000226   0.7216928   0.1180549  )
        96           S   tau(  96) = (  -0.1258721   0.7948451   0.8514341  )
        97           Mo  tau(  97) = (   0.5000010   0.1443372  -0.7272732  )
        98           Mo  tau(  98) = (   0.6250001   0.0721662  -0.2424040  )
        99           S   tau(  99) = (   0.5000017   0.1443386  -0.3667801  )
       100           S   tau( 100) = (   0.6250010   0.0721682  -0.6030489  )
       101           S   tau( 101) = (   0.6250010   0.0721683  -0.8514963  )
       102           S   tau( 102) = (   0.5000020   0.1443388  -0.1180261  )
       103           Mo  tau( 103) = (   0.5000075   0.1443411   0.2423793  )
       104           Mo  tau( 104) = (   0.6250042   0.0723339   0.7270464  )
       105           S   tau( 105) = (   0.5002366   0.1444733   0.6023595  )
       106           S   tau( 106) = (   0.6250029   0.0721787   0.3667562  )
       107           S   tau( 107) = (   0.6250040   0.0721260   0.1180315  )
       108           S   tau( 108) = (   0.4998752   0.1442648   0.8512770  )
       109           Mo  tau( 109) = (   0.3750012   0.3608437  -0.7272732  )
       110           Mo  tau( 110) = (   0.4999991   0.2886761  -0.2424038  )
       111           S   tau( 111) = (   0.3750012   0.3608452  -0.3667804  )
       112           S   tau( 112) = (   0.5000012   0.2886747  -0.6030489  )
       113           S   tau( 113) = (   0.5000012   0.2886748  -0.8514963  )
       114           S   tau( 114) = (   0.3750014   0.3608455  -0.1180261  )
       115           Mo  tau( 115) = (   0.3749795   0.3608597   0.2424601  )
       116           Mo  tau( 116) = (   0.5001461   0.2885951   0.7270464  )
       117           S   tau( 117) = (   0.3751205   0.3607791   0.6027254  )
       118           S   tau( 118) = (   0.5000105   0.2886721   0.3667569  )
       119           S   tau( 119) = (   0.4999655   0.2886989   0.1180297  )
       120           S   tau( 120) = (   0.3754765   0.3605739   0.8517402  )
       121           Mo  tau( 121) = (   0.2500014   0.5773502  -0.7272732  )
       122           Mo  tau( 122) = (   0.3749983   0.5051825  -0.2424043  )
       123           S   tau( 123) = (   0.2500017   0.5773519  -0.3667810  )
       124           S   tau( 124) = (   0.3750014   0.5051812  -0.6030489  )
       125           S   tau( 125) = (   0.3750014   0.5051813  -0.8514963  )
       126           S   tau( 126) = (   0.2500018   0.5773519  -0.1180256  )
       127           Mo  tau( 127) = (   0.2499863   0.5773402   0.2423965  )
       128           Mo  tau( 128) = (   0.3762454   0.5050642   0.7275433  )
       129           S   tau( 129) = (   0.2483844   0.5764169   0.6061944  )
       130           S   tau( 130) = (   0.3749442   0.5052158   0.3668400  )
       131           S   tau( 131) = (   0.3749972   0.5051650   0.1180510  )
       132           S   tau( 132) = (   0.2577438   0.5818204   0.8557797  )
       133           Mo  tau( 133) = (   0.1250016   0.7938567  -0.7272732  )
       134           Mo  tau( 134) = (   0.2499995   0.7216883  -0.2424036  )
       135           S   tau( 135) = (   0.1250024   0.7938578  -0.3667813  )
       136           S   tau( 136) = (   0.2500016   0.7216877  -0.6030489  )
       137           S   tau( 137) = (   0.2500016   0.7216878  -0.8514963  )
       138           S   tau( 138) = (   0.1250024   0.7938579  -0.1180253  )
       139           Mo  tau( 139) = (   0.1250047   0.7938294   0.2424606  )
       140           Mo  tau( 140) = (   0.2505220   0.7228241   0.7275433  )
       141           S   tau( 141) = (   0.1250053   0.7939926   0.6027252  )
       142           S   tau( 142) = (   0.2500048   0.7216200   0.3668387  )
       143           S   tau( 143) = (   0.2499864   0.7216915   0.1180524  )
       144           S   tau( 144) = (   0.1250054   0.7944033   0.8517402  )
       145           Mo  tau( 145) = (   0.7500010   0.1443372  -0.7272732  )
       146           Mo  tau( 146) = (   0.8750038   0.0721696  -0.2424038  )
       147           S   tau( 147) = (   0.7500016   0.1443382  -0.3667789  )
       148           S   tau( 148) = (   0.8750010   0.0721682  -0.6030489  )
       149           S   tau( 149) = (   0.8750010   0.0721683  -0.8514963  )
       150           S   tau( 150) = (   0.7500016   0.1443384  -0.1180279  )
       151           Mo  tau( 151) = (   0.7499986   0.1443409   0.2423802  )
       152           Mo  tau( 152) = (   0.8750804   0.0721266   0.7263988  )
       153           S   tau( 153) = (   0.7497713   0.1444738   0.6023592  )
       154           S   tau( 154) = (   0.8749758   0.0721848   0.3667595  )
       155           S   tau( 155) = (   0.8750127   0.0721632   0.1180342  )
       156           S   tau( 156) = (   0.7501331   0.1442647   0.8512770  )
       157           Mo  tau( 157) = (   0.6250012   0.3608437  -0.7272732  )
       158           Mo  tau( 158) = (   0.7500028   0.2886769  -0.2424041  )
       159           S   tau( 159) = (   0.6250015   0.3608451  -0.3667792  )
       160           S   tau( 160) = (   0.7500012   0.2886747  -0.6030489  )
       161           S   tau( 161) = (   0.7500012   0.2886748  -0.8514963  )
       162           S   tau( 162) = (   0.6250016   0.3608454  -0.1180280  )
       163           Mo  tau( 163) = (   0.6250032   0.3608391   0.2423797  )
       164           Mo  tau( 164) = (   0.7498627   0.2885951   0.7270467  )
       165           S   tau( 165) = (   0.6250046   0.3605769   0.6023590  )
       166           S   tau( 166) = (   0.7499943   0.2886711   0.3667569  )
       167           S   tau( 167) = (   0.7500399   0.2886970   0.1180318  )
       168           S   tau( 168) = (   0.6250043   0.3609947   0.8512770  )
       169           Mo  tau( 169) = (   0.5000014   0.5773502  -0.7272732  )
       170           Mo  tau( 170) = (   0.6250029   0.5051841  -0.2424047  )
       171           S   tau( 171) = (   0.5000014   0.5773518  -0.3667794  )
       172           S   tau( 172) = (   0.6250014   0.5051812  -0.6030489  )
       173           S   tau( 173) = (   0.6250014   0.5051813  -0.8514963  )
       174           S   tau( 174) = (   0.5000016   0.5773516  -0.1180277  )
       175           Mo  tau( 175) = (   0.4999855   0.5773383   0.2424207  )
       176           Mo  tau( 176) = (   0.6250049   0.5052713   0.7263986  )
       177           S   tau( 177) = (   0.4998428   0.5773389   0.6020941  )
       178           S   tau( 178) = (   0.6250030   0.5051500   0.3667588  )
       179           S   tau( 179) = (   0.6250025   0.5051935   0.1180351  )
       180           S   tau( 180) = (   0.5012979   0.5776190   0.8514332  )
       181           Mo  tau( 181) = (   0.3750016   0.7938567  -0.7272732  )
       182           Mo  tau( 182) = (   0.5000025   0.7216901  -0.2424039  )
       183           S   tau( 183) = (   0.3750019   0.7938578  -0.3667793  )
       184           S   tau( 184) = (   0.5000016   0.7216877  -0.6030489  )
       185           S   tau( 185) = (   0.5000016   0.7216878  -0.8514963  )
       186           S   tau( 186) = (   0.3750020   0.7938579  -0.1180272  )
       187           Mo  tau( 187) = (   0.3749848   0.7938487   0.2424206  )
       188           Mo  tau( 188) = (   0.5001249   0.7217591   0.7266160  )
       189           S   tau( 189) = (   0.3749125   0.7937251   0.6020942  )
       190           S   tau( 190) = (   0.5000021   0.7216868   0.3667472  )
       191           S   tau( 191) = (   0.4999874   0.7216780   0.1180346  )
       192           S   tau( 192) = (   0.3758826   0.7948451   0.8514332  )
       193           Pd  tau( 193) = (   0.1250063   0.5051842   0.9601361  )
       194           H   tau( 194) = (   0.2502587   0.3562487   0.9489519  )

     --------------------------------------------
     DFT-D3 Dispersion Correction (3-body terms):
     --------------------------------------------
       Reference C6 values for interpolation: 

         atom   Coordination number   C6
         H          0.912             6.05
         H          0.000            15.18
         S          0.000           268.01
         S          0.995           261.99
         S          1.990           251.62
         Mo         0.000          1691.79
         Mo         1.942          1004.01
         Mo        11.056           674.22
         Pd         0.000          1217.01
         Pd         1.863           573.90
         Pd         5.710           531.75

       Values used:

         atom   Coordination number  R0_AB[au]  C6      C8
         Mo        10.208            3.547    674.21  77634.20
         Mo        10.221            3.547    674.21  77634.20
         S          3.858            3.128    251.62  12327.25
         S          3.859            3.128    251.62  12327.25
         S          3.758            3.128    251.62  12327.25
         S          3.859            3.128    251.62  12327.25
         Mo        10.220            3.547    674.22  77634.20
         Mo        10.233            3.547    674.22  77634.20
         S          3.846            3.128    251.62  12327.25
         S          3.861            3.128    251.62  12327.25
         S          3.859            3.128    251.62  12327.25
         S          3.805            3.128    251.62  12327.25
         Mo        10.208            3.547    674.22  77634.20
         Mo        10.221            3.547    674.22  77634.20
         S          3.858            3.128    251.62  12327.25
         S          3.859            3.128    251.62  12327.25
         S          3.758            3.128    251.62  12327.25
         S          3.859            3.128    251.62  12327.25
         Mo        10.221            3.547    674.22  77634.20
         Mo        10.191            3.547    674.22  77634.20
         S          3.855            3.128    251.62  12327.25
         S          3.856            3.128    251.62  12327.25
         S          3.859            3.128    251.62  12327.25
         S          3.756            3.128    251.62  12327.25
         Mo        10.208            3.547    674.22  77634.20
         Mo        10.221            3.547    674.22  77634.20
         S          3.858            3.128    251.62  12327.25
         S          3.859            3.128    251.62  12327.25
         S          3.758            3.128    251.62  12327.25
         S          3.859            3.128    251.62  12327.25
         Mo        10.220            3.547    674.22  77634.20
         Mo        10.191            3.547    674.22  77634.20
         S          3.846            3.128    251.62  12327.25
         S          3.856            3.128    251.62  12327.25
         S          3.859            3.128    251.62  12327.25
         S          3.805            3.128    251.62  12327.25
         Mo        10.208            3.547    674.22  77634.20
         Mo        10.221            3.547    674.22  77634.20
         S          3.858            3.128    251.62  12327.25
         S          3.859            3.128    251.62  12327.25
         S          3.758            3.128    251.62  12327.25
         S          3.859            3.128    251.62  12327.25
         Mo        10.219            3.547    674.22  77634.20
         Mo        10.233            3.547    674.22  77634.20
         S          3.856            3.128    251.62  12327.25
         S          3.861            3.128    251.62  12327.25
         S          3.859            3.128    251.62  12327.25
         S          3.781            3.128    251.62  12327.25
         Mo        10.208            3.547    674.22  77634.20
         Mo        10.221            3.547    674.22  77634.20
         S          3.858            3.128    251.62  12327.25
         S          3.859            3.128    251.62  12327.25
         S          3.758            3.128    251.62  12327.25
         S          3.859            3.128    251.62  12327.25
         Mo        10.220            3.547    674.22  77634.20
         Mo        10.243            3.547    674.22  77634.20
         S          3.846            3.128    251.62  12327.25
         S          3.860            3.128    251.62  12327.25
         S          3.859            3.128    251.62  12327.25
         S          3.806            3.128    251.62  12327.25
         Mo        10.208            3.547    674.22  77634.20
         Mo        10.221            3.547    674.22  77634.20
         S          3.858            3.128    251.62  12327.25
         S          3.859            3.128    251.62  12327.25
         S          3.758            3.128    251.62  12327.25
         S          3.859            3.128    251.62  12327.25
         Mo        10.222            3.547    674.22  77634.20
         Mo        10.201            3.547    674.22  77634.20
         S          3.865            3.128    251.62  12327.25
         S          3.856            3.128    251.62  12327.25
         S          3.859            3.128    251.62  12327.25
         S          4.838            3.128    251.62  12327.25
         Mo        10.208            3.547    674.22  77634.20
         Mo        10.221            3.547    674.22  77634.20
         S          3.858            3.128    251.62  12327.25
         S          3.859            3.128    251.62  12327.25
         S          3.758            3.128    251.62  12327.25
         S          3.859            3.128    251.62  12327.25
         Mo        10.222            3.547    674.22  77634.20
         Mo        10.822            3.547    674.22  77634.20
         S          3.865            3.128    251.62  12327.25
         S          3.853            3.128    251.62  12327.25
         S          3.859            3.128    251.62  12327.25
         S          4.653            3.128    251.62  12327.25
         Mo        10.208            3.547    674.22  77634.20
         Mo        10.221            3.547    674.22  77634.20
         S          3.858            3.128    251.62  12327.25
         S          3.859            3.128    251.62  12327.25
         S          3.758            3.128    251.62  12327.25
         S          3.859            3.128    251.62  12327.25
         Mo        10.220            3.547    674.22  77634.20
         Mo        10.191            3.547    674.22  77634.20
         S          3.846            3.128    251.62  12327.25
         S          3.856            3.128    251.62  12327.25
         S          3.859            3.128    251.62  12327.25
         S          3.805            3.128    251.62  12327.25
         Mo        10.208            3.547    674.22  77634.20
         Mo        10.221            3.547    674.22  77634.20
         S          3.858            3.128    251.62  12327.25
         S          3.859            3.128    251.62  12327.25
         S          3.758            3.128    251.62  12327.25
         S          3.859            3.128    251.62  12327.25
         Mo        10.220            3.547    674.22  77634.20
         Mo        10.229            3.547    674.22  77634.20
         S          3.862            3.128    251.62  12327.25
         S          3.860            3.128    251.62  12327.25
         S          3.859            3.128    251.62  12327.25
         S          3.765            3.128    251.62  12327.25
         Mo        10.208            3.547    674.21  77634.20
         Mo        10.221            3.547    674.22  77634.20
         S          3.858            3.128    251.62  12327.25
         S          3.859            3.128    251.62  12327.25
         S          3.758            3.128    251.62  12327.25
         S          3.859            3.128    251.62  12327.25
         Mo        10.221            3.547    674.22  77634.20
         Mo        10.230            3.547    674.22  77634.20
         S          3.855            3.128    251.62  12327.25
         S          3.860            3.128    251.62  12327.25
         S          3.859            3.128    251.62  12327.25
         S          3.911            3.128    251.62  12327.25
         Mo        10.208            3.547    674.21  77634.20
         Mo        10.221            3.547    674.22  77634.20
         S          3.858            3.128    251.62  12327.25
         S          3.859            3.128    251.62  12327.25
         S          3.758            3.128    251.62  12327.25
         S          3.859            3.128    251.62  12327.25
         Mo        10.222            3.547    674.22  77634.20
         Mo        10.192            3.547    674.22  77634.20
         S          3.865            3.128    251.62  12327.25
         S          3.856            3.128    251.62  12327.25
         S          3.859            3.128    251.62  12327.25
         S          4.654            3.128    251.62  12327.25
         Mo        10.208            3.547    674.22  77634.20
         Mo        10.221            3.547    674.22  77634.20
         S          3.858            3.128    251.62  12327.25
         S          3.859            3.128    251.62  12327.25
         S          3.758            3.128    251.62  12327.25
         S          3.859            3.128    251.62  12327.25
         Mo        10.221            3.547    674.22  77634.20
         Mo        10.191            3.547    674.22  77634.20
         S          3.855            3.128    251.62  12327.25
         S          3.856            3.128    251.62  12327.25
         S          3.859            3.128    251.62  12327.25
         S          3.756            3.128    251.62  12327.25
         Mo        10.208            3.547    674.22  77634.20
         Mo        10.221            3.547    674.22  77634.20
         S          3.858            3.128    251.62  12327.25
         S          3.859            3.128    251.62  12327.25
         S          3.758            3.128    251.62  12327.25
         S          3.859            3.128    251.62  12327.25
         Mo        10.220            3.547    674.22  77634.20
         Mo        10.243            3.547    674.22  77634.20
         S          3.862            3.128    251.62  12327.25
         S          3.860            3.128    251.62  12327.25
         S          3.859            3.128    251.62  12327.25
         S          3.765            3.128    251.62  12327.25
         Mo        10.208            3.547    674.22  77634.20
         Mo        10.220            3.547    674.22  77634.20
         S          3.858            3.128    251.62  12327.25
         S          3.859            3.128    251.62  12327.25
         S          3.758            3.128    251.62  12327.25
         S          3.859            3.128    251.62  12327.25
         Mo        10.220            3.547    674.22  77634.20
         Mo        10.229            3.547    674.22  77634.20
         S          3.862            3.128    251.62  12327.25
         S          3.860            3.128    251.62  12327.25
         S          3.859            3.128    251.62  12327.25
         S          3.765            3.128    251.62  12327.25
         Mo        10.208            3.547    674.22  77634.20
         Mo        10.221            3.547    674.22  77634.20
         S          3.858            3.128    251.62  12327.25
         S          3.859            3.128    251.62  12327.25
         S          3.758            3.128    251.62  12327.25
         S          3.859            3.128    251.62  12327.25
         Mo        10.220            3.547    674.22  77634.20
         Mo        10.243            3.547    674.22  77634.20
         S          3.846            3.128    251.62  12327.25
         S          3.860            3.128    251.62  12327.25
         S          3.859            3.128    251.62  12327.25
         S          3.805            3.128    251.62  12327.25
         Mo        10.208            3.547    674.22  77634.20
         Mo        10.221            3.547    674.22  77634.20
         S          3.858            3.128    251.62  12327.25
         S          3.859            3.128    251.62  12327.25
         S          3.758            3.128    251.62  12327.25
         S          3.859            3.128    251.62  12327.25
         Mo        10.220            3.547    674.22  77634.20
         Mo        10.233            3.547    674.22  77634.20
         S          3.846            3.128    251.62  12327.25
         S          3.861            3.128    251.62  12327.25
         S          3.859            3.128    251.62  12327.25
         S          3.805            3.128    251.62  12327.25
         Pd         3.787            3.168    552.03  50578.52
         H          0.379            2.062     11.34    137.05

         Molecular C6 ( Ry / a.u.^6 ) =  13812062.52


     number of k points=     4  Gaussian smearing, width (Ry)=  0.0100
                       cart. coord. in units 2pi/alat
        k(    1) = (   0.0000000   0.0000000   0.0000000), wk =   0.5000000
        k(    2) = (   0.0000000  -0.5773499   0.0000000), wk =   0.5000000
        k(    3) = (  -0.5000000  -0.2886744   0.0000000), wk =   0.5000000
        k(    4) = (  -0.5000000  -0.8660242   0.0000000), wk =   0.5000000

     Dense  grid:  7154885 G-vectors     FFT dimensions: ( 180, 180, 512)

     Smooth grid:  3090769 G-vectors     FFT dimensions: ( 135, 135, 400)

     Estimated max dynamical RAM per process >       3.19 GB

     Estimated total dynamical RAM >     114.66 GB

     Atomic positions and unit cell read from directory:
     ./outdir/pwscf.save/
     Atomic positions from file used, from input discarded
 

     The initial density is read from file :
     ./outdir/pwscf.save/charge-density


     negative rho (up, down):  9.041E-04 0.000E+00
     Starting wfcs from file
     Checking if some PAW data can be deallocated... 
     Calculation restarted from scf iteration #     9

     total cpu time spent up to now is       27.3 secs

     Self-consistent Calculation

     iteration #  9     ecut=    77.00 Ry     beta= 0.20
     Calculation restarted from kpoint #     2
     Davidson diagonalization with overlap
     c_bands: 43 eigenvalues not converged
     c_bands: 40 eigenvalues not converged
     c_bands: 42 eigenvalues not converged
     ethr =  8.12E-11,  avg # of iterations = 93.0

     negative rho (up, down):  8.983E-04 0.000E+00

     total cpu time spent up to now is     4547.6 secs

     End of self-consistent calculation

          k = 0.0000 0.0000 0.0000 (386245 PWs)   bands (ev):

   -89.2969 -66.8178 -66.8008 -66.8006 -66.7943 -66.7938 -66.7925 -66.7904
   -66.7802 -66.7779 -66.7734 -66.7733 -66.7731 -66.7729 -66.7726 -66.7726
   -66.7725 -66.7725 -66.7725 -66.7725 -66.7725 -66.7725 -66.7724 -66.7712
   -66.7712 -66.7712 -66.7712 -66.7712 -66.7712 -66.7685 -66.7639 -66.7590
   -66.7581 -66.7522 -66.7520 -66.7518 -66.7518 -66.7518 -66.7515 -66.7513
   -66.7512 -66.7511 -66.7511 -66.7511 -66.7511 -66.7511 -66.7511 -66.7510
   -66.7510 -66.7510 -66.7509 -66.7509 -66.7498 -66.7498 -66.7498 -66.7498
   -66.7498 -66.7498 -66.7498 -66.7498 -66.7498 -66.7491 -66.7471 -66.7226
   -66.7189 -55.2775 -55.0084 -54.8945 -41.1324 -41.1229 -41.1225 -41.1222
   -41.1219 -41.1217 -41.1212 -41.1212 -41.1212 -41.1205 -41.1205 -41.1205
   -41.0592 -41.0564 -41.0498 -41.0470 -41.0469 -41.0466 -41.0466 -41.0464
   -41.0462 -41.0459 -41.0459 -41.0459 -41.0459 -41.0459 -41.0458 -41.0452
   -41.0452 -41.0452 -41.0452 -41.0452 -41.0452 -41.0439 -41.0427 -41.0408
   -40.9777 -40.9540 -40.9534 -40.9528 -40.9508 -40.9383 -40.9365 -40.9331
   -40.9319 -40.9248 -40.9226 -40.9206 -40.9204 -40.9204 -40.9203 -40.9202
   -40.9200 -40.9199 -40.9196 -40.9196 -40.9195 -40.9195 -40.9195 -40.9195
   -40.9188 -40.9187 -40.9187 -40.9187 -40.9187 -40.9187 -40.9187 -40.9173
   -40.9165 -40.9127 -40.9126 -40.9123 -40.9122 -40.9121 -40.9120 -40.9118
   -40.9117 -40.9117 -40.9117 -40.9116 -40.9116 -40.9116 -40.9110 -40.9110
   -40.9110 -40.9110 -40.9110 -40.9110 -40.9001 -40.8971 -40.8931 -40.8908
   -40.8904 -40.8856 -40.8855 -40.8854 -40.8852 -40.8851 -40.8850 -40.8850
   -40.8845 -40.8845 -40.8845 -40.8845 -40.8845 -40.8845 -40.8836 -40.8836
   -40.8836 -40.8836 -40.8836 -40.8836 -40.8832 -40.8813 -40.8789 -40.8765
   -40.8751 -40.8714 -40.8708 -40.8707 -40.8706 -40.8705 -40.8704 -40.8701
   -40.8700 -40.8698 -40.8697 -40.8697 -40.8697 -40.8697 -40.8697 -40.8697
   -40.8697 -40.8696 -40.8696 -40.8696 -40.8690 -40.8690 -40.8690 -40.8690
   -40.8690 -40.8690 -40.8689 -40.8689 -40.8689 -40.8660 -40.8593 -40.8527
   -40.8141 -40.8076 -40.8070 -40.8069 -40.8068 -40.8062 -40.8062 -40.8062
   -40.8052 -40.8052 -40.8052 -40.8035 -40.7723 -40.7667 -40.7649 -40.7601
   -40.7601 -40.7598 -40.7596 -40.7594 -40.7593 -40.7591 -40.7591 -40.7591
   -40.7590 -40.7590 -40.7590 -40.7580 -40.7580 -40.7580 -40.7580 -40.7580
   -40.7580 -40.7566 -40.7510 -40.7459 -40.7121 -40.7121 -40.7114 -40.7114
   -40.7104 -40.7104 -40.7097 -40.7076 -20.2978 -20.2332 -20.1385 -20.0490
   -19.4743 -19.4355 -19.4252 -19.4210 -19.4199 -19.4194 -19.3980 -19.3838
   -19.3690 -19.3574 -19.3562 -19.3550 -19.3076 -19.2976 -19.2843 -19.2684
   -19.2681 -19.2663 -19.2090 -19.2055 -19.2002 -19.1926 -19.1924 -19.1916
   -19.0651 -18.9388 -18.7908 -18.7103 -18.6899 -18.6638 -18.6505 -18.6410
   -18.6397 -18.6391 -18.5887 -18.5759 -18.5650 -18.5315 -18.5309 -18.5304
   -18.4662 -18.4505 -18.4473 -18.4216 -18.4211 -18.4167 -18.3749 -18.3590
   -18.3524 -18.3444 -18.3443 -18.3412 -18.3295 -18.3232 -18.2975 -18.2952
   -18.2939 -18.2927 -18.2893 -18.2878 -18.2693 -18.2645 -18.2623 -18.2602
   -18.2542 -18.2532 -18.2501 -18.2476 -18.2452 -18.2276 -18.2242 -18.2223
   -18.2199 -18.2148 -18.2132 -18.2120 -18.1973 -18.1968 -18.1880 -18.1801
   -18.1783 -18.1695 -18.1663 -18.1640 -18.1622 -18.1511 -18.1492 -18.1479
   -18.1226 -18.1203 -18.0952 -18.0880 -18.0845 -18.0832 -18.0821 -18.0803
   -18.0795 -18.0651 -18.0614 -18.0544 -18.0435 -18.0417 -18.0351 -18.0323
   -18.0310 -18.0292 -18.0269 -18.0254 -18.0227 -18.0112 -18.0107 -18.0095
   -17.9982 -17.9963 -17.9931 -17.9911 -17.9878 -17.9844 -17.9670 -17.9665
   -17.9653 -17.9647 -17.9631 -17.9614 -12.1596 -12.0343 -11.9969 -11.9961
   -11.9566 -11.9200 -11.9182 -11.9099 -11.8323 -11.8109 -11.8088 -11.7239
   -11.7155 -11.7146 -11.5958 -11.4599 -11.4213 -11.4148 -11.4128 -11.4106
   -11.4099 -11.3823 -11.3186 -11.3141 -11.3087 -11.3083 -11.3069 -11.2980
   -11.2812 -11.2674 -11.2576 -11.2423 -11.2411 -11.2369 -11.2355 -11.2337
   -11.2316 -11.2276 -11.2264 -11.2247 -11.1949 -11.1854 -11.1797 -11.1547
   -11.1499 -11.1470 -11.1249 -11.1135 -11.1079 -11.0851 -11.0824 -11.0800
   -11.0624 -11.0564 -11.0484 -11.0286 -11.0273 -11.0241 -11.0199 -11.0183
   -11.0152 -11.0109 -11.0007 -10.9982 -10.9952 -10.9911 -10.9877 -10.9780
   -10.9758 -10.9749 -10.9728 -10.9710 -10.9695 -10.9687 -10.9667 -10.9653
   -10.9463 -10.9453 -10.9395 -10.9377 -10.9367 -10.9299 -10.9142 -10.9080
   -10.9074 -10.9072 -10.9068 -10.9025 -10.9023 -10.8977 -10.8962 -10.8215
   -10.8172 -10.8163 -10.7678 -10.7510 -10.7490 -10.7423 -10.7416 -10.7402
   -10.4937 -10.4442 -10.3732 -10.3090 -10.2912 -10.1703 -10.1096 -10.1026
   -10.0092  -9.9837  -9.9784  -9.9770  -9.9715  -9.9704  -9.9615  -9.9443
    -9.9410  -9.9403  -9.9394  -9.9389  -9.9382  -9.9256  -9.9239  -9.9236
    -9.9194  -9.9177  -9.9170  -9.8976  -9.8970  -9.8855  -9.8278  -9.8044
    -9.8001  -9.7983  -9.7964  -9.7954  -9.7944  -9.7905  -9.7897  -9.7893
    -9.7879  -9.7859  -9.7851  -9.7766  -9.7752  -9.7515  -9.7370  -9.7305
    -9.7120  -9.7114  -9.7109  -9.7104  -9.7103  -9.7101  -9.7021  -9.6934
    -9.6893  -9.6867  -9.6844  -9.6815  -9.6701  -9.6637  -9.6219  -9.6176
    -9.6144  -9.6129  -9.5416  -9.5262  -9.5181  -9.5004  -9.4965  -9.4951
    -9.4934  -9.4868  -9.4784  -9.4758  -9.4727  -9.4705  -9.4147  -9.4051
    -9.3972  -9.3889  -9.3857  -9.3793  -9.3560  -9.3511  -9.3510  -9.3467
    -9.3454  -9.3436  -9.3127  -9.2971  -9.2909  -9.2836  -9.2722  -9.2707
    -9.2508  -9.2016  -9.1699  -9.1541  -9.1506  -9.1500  -9.1479  -9.1266
    -9.1219  -9.1203  -9.1033  -9.0980  -9.0935  -9.0917  -9.0912  -9.0862
    -9.0854  -9.0797  -9.0631  -9.0563  -9.0511  -9.0334  -9.0095  -9.0061
    -8.9908  -8.9904  -8.9904  -8.9899  -8.9899  -8.9894  -8.9497  -8.9107
    -8.9069  -8.9016  -8.9012  -8.8908  -8.8759  -8.8294  -8.8275  -8.8189
    -8.8170  -8.8047  -8.7986  -8.7609  -8.7592  -8.7569  -8.7561  -8.7512
    -8.7504  -8.7010  -8.5869  -8.5365  -8.5362  -8.5334  -8.5324  -8.5267
    -8.5251  -8.5233  -8.5023  -8.4577  -8.4520  -8.4517  -8.4498  -8.4488
    -8.4456  -8.4394  -8.4343  -8.4334  -8.4294  -8.4270  -8.4192  -8.4135
    -8.4105  -8.4091  -8.4039  -8.4009  -8.3907  -8.3888  -8.3884  -8.3875
    -8.3852  -8.3841  -8.3616  -8.2544  -8.1123  -8.0860  -8.0326  -8.0287
    -8.0126  -7.9559  -7.9449  -7.9196  -7.8677  -7.8633  -7.8442  -7.8124
    -7.8090  -7.8067  -7.8039  -7.7985  -7.7951  -7.7775  -7.7752  -7.7639
    -7.7512  -7.7229  -7.7181  -7.7171  -7.7144  -7.7120  -7.7103  -7.7074
    -7.7072  -7.7017  -7.7008  -7.6985  -7.6928  -7.6915  -7.6840  -7.6788
    -7.6764  -7.6755  -7.6740  -7.6706  -7.6695  -7.6580  -7.6522  -7.6517
    -7.6516  -7.6506  -7.6500  -7.6412  -7.6189  -7.6183  -7.5886  -7.5826
    -7.5801  -7.5778  -7.5747  -7.5723  -7.5707  -7.5700  -7.5682  -7.5597
    -7.5052  -7.4925  -7.4872  -7.4772  -7.4652  -7.4618  -7.4577  -7.4547
    -7.4521  -7.4508  -7.4494  -7.4409  -7.4261  -7.4240  -7.4158  -7.4115
    -7.3998  -7.3964  -7.3831  -7.3822  -7.3516  -7.3365  -7.2742  -7.2705
    -7.2581  -7.2332  -7.2161  -7.1539  -7.1131  -7.0509  -7.0292  -7.0084
    -7.0065  -7.0007  -6.9702  -6.9687  -6.9590  -6.9478  -6.9227  -6.9109
    -6.8977  -6.8727  -6.8588  -6.8339  -6.8294  -6.8023  -6.7962  -6.7834
    -6.7802  -6.7794  -6.7761  -6.7734  -6.7708  -6.7462  -6.7271  -6.7230
    -6.7110  -6.7073  -6.7049  -6.6885  -6.6878  -6.6843  -6.6812  -6.6797
    -6.6767  -6.6765  -6.6742  -6.6724  -6.6670  -6.6668  -6.6665  -6.6664
    -6.6662  -6.6655  -6.6465  -6.6429  -6.6377  -6.6089  -6.6051  -6.5957
    -6.5783  -6.5778  -6.5741  -6.5165  -6.5164  -6.5081  -6.5072  -6.5048
    -6.5041  -6.4909  -6.4901  -6.4793  -6.4764  -6.4693  -6.4679  -6.4535
    -6.4528  -6.4458  -6.4423  -6.4307  -6.4293  -6.4207  -6.4205  -6.4187
    -6.4174  -6.4060  -6.4041  -6.3830  -6.1844  -5.9275  -5.8320  -5.5097
    -5.3252  -4.8156  -4.0366  -4.0251  -4.0185  -4.0183  -4.0156  -4.0064
    -3.9995  -3.9968  -3.9950  -3.9918  -3.9909  -3.9862  -3.8963  -3.8739
    -3.8613  -3.8560  -3.8531  -3.8498  -3.8481  -3.8471  -3.8451  -3.8440
    -3.8410  -3.8134  -3.6942  -3.6777  -3.6734  -3.6696  -3.6628  -3.6611
    -3.6507  -3.6480  -3.6466  -3.6446  -3.6434  -3.6415  -3.6302  -3.6260
    -3.6233  -3.6194  -3.6175  -3.6166  -3.6140  -3.6127  -3.6109  -3.6039
    -3.6017  -3.5986  -3.5974  -3.5917  -3.5869  -3.5863  -3.5849  -3.5813
    -3.5802  -3.5751  -3.5734  -3.5728  -3.5701  -3.5540  -3.5234  -3.5180
    -3.5163  -3.5136  -3.5104  -3.5078  -3.5072  -3.5059  -3.5039  -3.5014
    -3.4969  -3.4804  -3.4550  -3.4532  -3.4516  -3.4496  -3.4459  -3.4434
    -3.3877  -3.3786  -3.3768  -3.3728  -3.3702  -3.3532  -3.2402  -3.2386
    -3.2352  -3.2348  -3.2314  -3.2290  -3.2166  -3.2134  -3.2104  -3.1689
    -3.1547  -3.1526  -3.1479  -3.1461  -3.1454  -3.1442  -3.1417  -3.1370
    -3.1351  -3.1332  -3.1297  -3.1295  -3.1284  -3.1242  -3.1214  -3.1160
    -3.1150  -3.1128  -3.1116  -3.1046  -3.1024  -3.1022  -3.1017  -3.1015
    -3.1012  -3.0992  -3.0991  -3.0954  -3.0489  -3.0458  -3.0404  -3.0288
    -3.0225  -3.0128  -3.0088  -2.9979  -2.9759  -2.9759  -2.9759  -2.9759
    -2.9759  -2.9759  -2.9737  -2.9719  -2.9712  -2.9648  -2.9607  -2.9353
    -2.9243  -2.9196  -2.9173  -2.9052  -2.9031  -2.8979  -2.8968  -2.8604
    -2.8460  -2.8336  -2.8080  -2.8060  -2.7974  -2.7951  -2.7889  -2.7885
    -2.7865  -2.7740  -2.7300  -2.7170  -2.7146  -2.7097  -2.7074  -2.6963
    -2.5840  -2.5774

          k = 0.0000-0.5773 0.0000 (386352 PWs)   bands (ev):

   -89.2969 -66.8172 -66.8023 -66.8008 -66.7884 -66.7882 -66.7880 -66.7876
   -66.7875 -66.7863 -66.7863 -66.7841 -66.7774 -66.7774 -66.7769 -66.7769
   -66.7756 -66.7756 -66.7749 -66.7715 -66.7693 -66.7626 -66.7625 -66.7622
   -66.7620 -66.7620 -66.7618 -66.7618 -66.7618 -66.7618 -66.7605 -66.7605
   -66.7605 -66.7605 -66.7596 -66.7590 -66.7580 -66.7577 -66.7574 -66.7573
   -66.7561 -66.7560 -66.7520 -66.7517 -66.7515 -66.7514 -66.7511 -66.7511
   -66.7511 -66.7511 -66.7510 -66.7498 -66.7498 -66.7498 -66.7498 -66.7492
   -66.7472 -66.7471 -66.7468 -66.7467 -66.7466 -66.7453 -66.7453 -66.7225
   -66.7189 -55.2775 -55.0084 -54.8945 -41.1025 -41.0971 -41.0942 -41.0907
   -41.0904 -41.0903 -41.0899 -41.0896 -41.0896 -41.0896 -41.0895 -41.0889
   -41.0889 -41.0889 -41.0889 -41.0828 -41.0767 -41.0649 -41.0636 -41.0634
   -41.0628 -41.0627 -41.0621 -41.0621 -41.0546 -41.0515 -41.0514 -41.0507
   -41.0507 -41.0500 -41.0500 -41.0453 -41.0060 -41.0047 -41.0008 -41.0008
   -41.0007 -41.0006 -41.0006 -41.0000 -41.0000 -41.0000 -41.0000 -40.9992
   -40.9992 -40.9992 -40.9992 -40.9981 -40.9737 -40.9533 -40.9446 -40.9419
   -40.9417 -40.9412 -40.9412 -40.9406 -40.9406 -40.9351 -40.9345 -40.9325
   -40.9323 -40.9323 -40.9317 -40.9317 -40.9309 -40.9309 -40.9225 -40.9210
   -40.9209 -40.9203 -40.9203 -40.9197 -40.9197 -40.9124 -40.9023 -40.8997
   -40.8916 -40.8916 -40.8913 -40.8912 -40.8909 -40.8907 -40.8907 -40.8907
   -40.8907 -40.8900 -40.8900 -40.8900 -40.8900 -40.8881 -40.8874 -40.8827
   -40.8824 -40.8820 -40.8820 -40.8813 -40.8813 -40.8784 -40.8760 -40.8751
   -40.8713 -40.8710 -40.8709 -40.8707 -40.8703 -40.8703 -40.8702 -40.8702
   -40.8699 -40.8698 -40.8697 -40.8697 -40.8697 -40.8696 -40.8694 -40.8694
   -40.8690 -40.8690 -40.8690 -40.8690 -40.8616 -40.8615 -40.8610 -40.8610
   -40.8603 -40.8603 -40.8598 -40.8564 -40.8522 -40.8500 -40.8403 -40.8401
   -40.8399 -40.8397 -40.8396 -40.8393 -40.8393 -40.8393 -40.8393 -40.8384
   -40.8384 -40.8384 -40.8384 -40.8309 -40.8129 -40.8101 -40.8068 -40.8053
   -40.8053 -40.8052 -40.8051 -40.8046 -40.8046 -40.8046 -40.8046 -40.8036
   -40.8036 -40.8036 -40.8036 -40.8034 -40.7932 -40.7930 -40.7924 -40.7924
   -40.7914 -40.7914 -40.7911 -40.7876 -40.7814 -40.7740 -40.7736 -40.7731
   -40.7731 -40.7721 -40.7721 -40.7684 -40.7568 -40.7567 -40.7561 -40.7561
   -40.7551 -40.7551 -40.7547 -40.7454 -40.7290 -40.7262 -40.7259 -40.7255
   -40.7254 -40.7244 -40.7244 -40.7180 -20.0676 -20.0560 -20.0090 -19.9872
   -19.9143 -19.8924 -19.8187 -19.8100 -19.6235 -19.6205 -19.5670 -19.5595
   -19.4798 -19.4711 -19.3911 -19.3875 -18.9975 -18.9666 -18.9278 -18.9127
   -18.9063 -18.9007 -18.8870 -18.8787 -18.8627 -18.8475 -18.8415 -18.8232
   -18.8038 -18.7914 -18.7850 -18.7703 -18.7453 -18.7411 -18.7243 -18.7152
   -18.7120 -18.7040 -18.6900 -18.6723 -18.6561 -18.6498 -18.6338 -18.6314
   -18.6201 -18.6050 -18.5757 -18.5715 -18.5628 -18.5395 -18.5161 -18.5090
   -18.4951 -18.4788 -18.4372 -18.4205 -18.4140 -18.4048 -18.3965 -18.3895
   -18.3523 -18.3418 -18.3202 -18.3025 -18.2893 -18.2811 -18.2768 -18.2733
   -18.2731 -18.2719 -18.2638 -18.2538 -18.2451 -18.2429 -18.2396 -18.2365
   -18.2331 -18.2190 -18.2148 -18.2133 -18.2068 -18.2044 -18.2013 -18.1963
   -18.1768 -18.1723 -18.1693 -18.1649 -18.1640 -18.1608 -18.1567 -18.1529
   -18.1512 -18.1408 -18.1127 -18.1056 -18.1018 -18.0935 -18.0872 -18.0832
   -18.0613 -18.0499 -18.0433 -18.0398 -18.0182 -18.0129 -18.0091 -18.0065
   -17.9937 -17.9905 -17.9889 -17.9874 -17.9868 -17.9861 -17.9816 -17.9791
   -17.9662 -17.9613 -17.9493 -17.9390 -17.9299 -17.9246 -17.9122 -17.9059
   -17.8973 -17.8929 -17.8883 -17.8878 -11.9175 -11.8903 -11.8192 -11.7020
   -11.6929 -11.6872 -11.6859 -11.6668 -11.6547 -11.6507 -11.6443 -11.6350
   -11.6081 -11.6067 -11.5999 -11.5651 -11.5486 -11.5336 -11.5072 -11.5030
   -11.4977 -11.4901 -11.4847 -11.4597 -11.4415 -11.4395 -11.4351 -11.4297
   -11.4253 -11.4229 -11.4088 -11.4056 -11.3826 -11.3655 -11.3622 -11.3522
   -11.3472 -11.3411 -11.3400 -11.3390 -11.3338 -11.3124 -11.3114 -11.3059
   -11.2806 -11.2778 -11.2408 -11.2301 -11.2263 -11.2245 -11.1521 -11.1250
   -11.1115 -11.0897 -11.0815 -11.0772 -11.0693 -11.0498 -11.0407 -11.0175
   -11.0084 -11.0030 -10.9945 -10.9890 -10.9853 -10.9850 -10.9816 -10.9805
   -10.9778 -10.9747 -10.9695 -10.9651 -10.9622 -10.9608 -10.9588 -10.9580
   -10.9568 -10.9555 -10.9491 -10.9454 -10.9443 -10.9277 -10.9116 -10.9111
   -10.9109 -10.9082 -10.7142 -10.7068 -10.6965 -10.6896 -10.6644 -10.6485
   -10.5936 -10.5493 -10.5446 -10.4845 -10.4135 -10.3956 -10.3217 -10.3160
   -10.3073 -10.3021 -10.2750 -10.2647 -10.2554 -10.2510 -10.2275 -10.2222
   -10.2210 -10.2009 -10.1936 -10.1848 -10.1843 -10.1800 -10.1689 -10.1544
   -10.1066 -10.0943 -10.0914 -10.0840 -10.0763 -10.0717 -10.0695 -10.0654
   -10.0530 -10.0308 -10.0135 -10.0097  -9.9764  -9.9658  -9.9549  -9.9434
    -9.9318  -9.9259  -9.9162  -9.9047  -9.8817  -9.8776  -9.8523  -9.8472
    -9.8405  -9.8242  -9.8137  -9.8027  -9.7793  -9.7770  -9.7651  -9.7366
    -9.7217  -9.7084  -9.7045  -9.7022  -9.7010  -9.7000  -9.6841  -9.6816
    -9.6580  -9.6558  -9.6372  -9.6358  -9.6306  -9.6269  -9.6227  -9.6199
    -9.6005  -9.5926  -9.5911  -9.5852  -9.5335  -9.5156  -9.4955  -9.4375
    -9.4215  -9.4070  -9.3911  -9.3753  -9.3662  -9.3548  -9.3505  -9.3425
    -9.3345  -9.3270  -9.3158  -9.2892  -9.2774  -9.2505  -9.2457  -9.2370
    -9.2302  -9.2113  -9.2096  -9.2040  -9.1928  -9.1889  -9.1832  -9.1806
    -9.1603  -9.1333  -9.1294  -9.1230  -9.1130  -9.1033  -9.0998  -9.0867
    -9.0766  -9.0587  -9.0568  -9.0534  -9.0517  -9.0481  -9.0414  -9.0387
    -9.0361  -9.0340  -9.0320  -9.0289  -9.0214  -9.0162  -9.0100  -9.0086
    -9.0050  -8.9986  -8.9916  -8.9889  -8.9799  -8.9692  -8.9635  -8.9526
    -8.9505  -8.9490  -8.9471  -8.9461  -8.9359  -8.9209  -8.9084  -8.8983
    -8.8973  -8.8898  -8.8758  -8.8630  -8.8323  -8.8172  -8.8069  -8.7862
    -8.7480  -8.7073  -8.6870  -8.6692  -8.6566  -8.6086  -8.5909  -8.5276
    -8.5145  -8.4832  -8.4437  -8.4126  -8.2978  -8.2973  -8.2911  -8.2904
    -8.2814  -8.2805  -8.2753  -8.2738  -8.2652  -8.2296  -8.2154  -8.1679
    -8.1418  -8.1322  -8.1092  -8.0564  -8.0438  -8.0169  -8.0136  -8.0125
    -8.0040  -7.9929  -7.9888  -7.9862  -7.9807  -7.9727  -7.9698  -7.9646
    -7.9620  -7.9598  -7.9590  -7.9546  -7.9528  -7.9515  -7.9483  -7.9450
    -7.9417  -7.9402  -7.9385  -7.9374  -7.9337  -7.9327  -7.9273  -7.9271
    -7.9218  -7.9183  -7.9134  -7.9051  -7.8936  -7.8925  -7.8868  -7.8818
    -7.8760  -7.8697  -7.8655  -7.8620  -7.8616  -7.8605  -7.8594  -7.8347
    -7.8342  -7.8321  -7.8318  -7.8167  -7.8075  -7.7847  -7.7827  -7.7762
    -7.7696  -7.7692  -7.7643  -7.7636  -7.7610  -7.7585  -7.7500  -7.7456
    -7.7380  -7.7317  -7.7307  -7.7180  -7.7141  -7.7073  -7.7012  -7.6414
    -7.6231  -7.6200  -7.6146  -7.6130  -7.5857  -7.5526  -7.4456  -7.4108
    -7.3556  -7.3503  -7.3375  -7.3343  -7.3277  -7.3194  -7.2929  -7.2834
    -7.2725  -7.2699  -7.2662  -7.2538  -7.2190  -7.2072  -7.1971  -7.1927
    -7.1845  -7.1814  -7.1589  -7.1509  -7.1386  -7.1202  -7.1173  -7.0959
    -7.0784  -7.0692  -7.0626  -7.0450  -7.0397  -7.0287  -7.0260  -7.0174
    -6.9949  -6.9860  -6.9762  -6.9373  -6.9287  -6.9081  -6.8722  -6.8530
    -6.8430  -6.8119  -6.8034  -6.7883  -6.7873  -6.7778  -6.7756  -6.7738
    -6.7716  -6.7625  -6.7583  -6.7577  -6.7552  -6.7523  -6.7485  -6.7476
    -6.7473  -6.7470  -6.7455  -6.7308  -6.6756  -6.6469  -6.6301  -6.5816
    -6.5707  -6.5266  -6.5004  -6.4992  -6.4962  -6.4879  -6.4689  -6.4626
    -6.4542  -6.4496  -6.4466  -6.4461  -6.4451  -6.4408  -6.4399  -6.4171
    -6.4126  -6.4044  -6.3988  -6.3928  -6.3742  -6.3685  -6.3663  -6.3637
    -6.3625  -6.2126  -6.1699  -6.1617  -6.1283  -6.1118  -6.0720  -6.0568
    -6.0234  -6.0120  -6.0092  -5.9693  -5.9055  -5.8254  -5.8188  -5.7538
    -5.7519  -4.8039  -4.2643  -4.2600  -4.2544  -4.2395  -4.1110  -4.1041
    -4.0914  -4.0839  -4.0738  -4.0403  -4.0133  -4.0108  -3.9996  -3.9960
    -3.9817  -3.9799  -3.9676  -3.9669  -3.9635  -3.9506  -3.8570  -3.8494
    -3.8426  -3.8065  -3.7840  -3.7757  -3.7707  -3.7678  -3.7674  -3.7597
    -3.7266  -3.7208  -3.7073  -3.6980  -3.6923  -3.6879  -3.6863  -3.6790
    -3.6555  -3.6521  -3.6467  -3.6425  -3.6399  -3.6392  -3.6364  -3.6186
    -3.6165  -3.6152  -3.6018  -3.5933  -3.5919  -3.5841  -3.5800  -3.5755
    -3.5287  -3.5192  -3.5169  -3.5155  -3.5138  -3.5114  -3.5083  -3.5051
    -3.4858  -3.4789  -3.4674  -3.4596  -3.4580  -3.4545  -3.4494  -3.4482
    -3.4461  -3.4450  -3.4266  -3.4152  -3.4138  -3.4073  -3.4039  -3.4017
    -3.3921  -3.3866  -3.3779  -3.3768  -3.3704  -3.3628  -3.3509  -3.3498
    -3.3450  -3.3411  -3.3402  -3.3363  -3.3287  -3.3287  -3.3282  -3.3239
    -3.2734  -3.2649  -3.2390  -3.2370  -3.2335  -3.2294  -3.2272  -3.2167
    -3.1941  -3.1923  -3.1918  -3.1907  -3.1896  -3.1880  -3.1828  -3.1792
    -3.1776  -3.1722  -3.1696  -3.1634  -3.1580  -3.1545  -3.1479  -3.1425
    -3.1397  -3.1355  -3.1328  -3.1277  -3.1268  -3.1176  -3.1141  -3.1127
    -3.1118  -3.1066  -3.1048  -3.0969  -3.0939  -3.0836  -3.0612  -3.0577
    -3.0568  -3.0519  -3.0426  -3.0379  -3.0356  -2.9968  -2.9595  -2.9556
    -2.9537  -2.9443  -2.8859  -2.8823  -2.8779  -2.8588  -2.7872  -2.7796
    -2.7529  -2.7433  -2.7382  -2.7315  -2.7145  -2.7097  -2.6939  -2.6927
    -2.6917  -2.6884  -2.6866  -2.6788  -2.6060  -2.5771  -2.5633  -2.5612
    -2.5445  -2.5372

          k =-0.5000-0.2887 0.0000 (386352 PWs)   bands (ev):

   -89.2969 -66.8172 -66.8020 -66.8010 -66.7884 -66.7882 -66.7879 -66.7876
   -66.7876 -66.7863 -66.7863 -66.7842 -66.7775 -66.7774 -66.7769 -66.7769
   -66.7756 -66.7756 -66.7746 -66.7715 -66.7698 -66.7627 -66.7625 -66.7621
   -66.7620 -66.7618 -66.7618 -66.7618 -66.7618 -66.7618 -66.7605 -66.7605
   -66.7605 -66.7605 -66.7595 -66.7589 -66.7580 -66.7577 -66.7574 -66.7574
   -66.7560 -66.7560 -66.7523 -66.7519 -66.7518 -66.7516 -66.7511 -66.7511
   -66.7511 -66.7511 -66.7510 -66.7498 -66.7498 -66.7498 -66.7498 -66.7480
   -66.7473 -66.7472 -66.7471 -66.7467 -66.7467 -66.7453 -66.7453 -66.7225
   -66.7189 -55.2775 -55.0084 -54.8945 -41.1028 -41.0962 -41.0938 -41.0906
   -41.0905 -41.0902 -41.0900 -41.0896 -41.0896 -41.0896 -41.0896 -41.0889
   -41.0889 -41.0889 -41.0889 -41.0845 -41.0767 -41.0647 -41.0636 -41.0634
   -41.0628 -41.0628 -41.0621 -41.0621 -41.0550 -41.0514 -41.0514 -41.0507
   -41.0507 -41.0500 -41.0500 -41.0444 -41.0071 -41.0033 -41.0008 -41.0008
   -41.0007 -41.0006 -41.0001 -41.0000 -41.0000 -41.0000 -41.0000 -40.9992
   -40.9992 -40.9992 -40.9992 -40.9983 -40.9738 -40.9524 -40.9454 -40.9419
   -40.9417 -40.9412 -40.9412 -40.9406 -40.9406 -40.9359 -40.9348 -40.9325
   -40.9324 -40.9318 -40.9317 -40.9317 -40.9309 -40.9309 -40.9220 -40.9210
   -40.9209 -40.9203 -40.9203 -40.9197 -40.9197 -40.9125 -40.9016 -40.9000
   -40.8918 -40.8916 -40.8915 -40.8911 -40.8910 -40.8907 -40.8907 -40.8907
   -40.8907 -40.8900 -40.8900 -40.8900 -40.8900 -40.8885 -40.8876 -40.8827
   -40.8825 -40.8820 -40.8820 -40.8813 -40.8813 -40.8776 -40.8768 -40.8748
   -40.8714 -40.8710 -40.8709 -40.8706 -40.8704 -40.8702 -40.8702 -40.8701
   -40.8699 -40.8698 -40.8697 -40.8697 -40.8697 -40.8696 -40.8694 -40.8694
   -40.8690 -40.8690 -40.8690 -40.8690 -40.8616 -40.8615 -40.8610 -40.8610
   -40.8603 -40.8603 -40.8601 -40.8556 -40.8530 -40.8485 -40.8403 -40.8402
   -40.8400 -40.8397 -40.8395 -40.8393 -40.8393 -40.8393 -40.8393 -40.8384
   -40.8384 -40.8384 -40.8384 -40.8325 -40.8132 -40.8102 -40.8062 -40.8054
   -40.8053 -40.8052 -40.8051 -40.8046 -40.8046 -40.8046 -40.8046 -40.8041
   -40.8036 -40.8036 -40.8036 -40.8036 -40.7932 -40.7930 -40.7924 -40.7924
   -40.7914 -40.7914 -40.7898 -40.7890 -40.7799 -40.7741 -40.7734 -40.7731
   -40.7731 -40.7721 -40.7721 -40.7686 -40.7568 -40.7567 -40.7561 -40.7561
   -40.7554 -40.7551 -40.7551 -40.7445 -40.7276 -40.7263 -40.7260 -40.7254
   -40.7254 -40.7244 -40.7244 -40.7197 -20.0678 -20.0557 -20.0087 -19.9872
   -19.9139 -19.8932 -19.8186 -19.8105 -19.6258 -19.6188 -19.5698 -19.5562
   -19.4814 -19.4679 -19.3915 -19.3862 -18.9977 -18.9743 -18.9276 -18.9103
   -18.9065 -18.9003 -18.8878 -18.8781 -18.8623 -18.8462 -18.8407 -18.8245
   -18.7995 -18.7929 -18.7838 -18.7694 -18.7469 -18.7413 -18.7253 -18.7151
   -18.7125 -18.7032 -18.6895 -18.6711 -18.6563 -18.6497 -18.6343 -18.6333
   -18.6198 -18.6057 -18.5760 -18.5720 -18.5634 -18.5399 -18.5139 -18.5100
   -18.4962 -18.4785 -18.4317 -18.4234 -18.4158 -18.4032 -18.3959 -18.3896
   -18.3520 -18.3388 -18.3194 -18.3023 -18.2879 -18.2811 -18.2762 -18.2748
   -18.2730 -18.2727 -18.2623 -18.2564 -18.2448 -18.2440 -18.2394 -18.2368
   -18.2328 -18.2186 -18.2146 -18.2128 -18.2072 -18.2054 -18.2000 -18.1981
   -18.1767 -18.1734 -18.1691 -18.1645 -18.1638 -18.1618 -18.1553 -18.1535
   -18.1517 -18.1432 -18.1149 -18.1062 -18.1020 -18.0957 -18.0865 -18.0842
   -18.0619 -18.0498 -18.0425 -18.0397 -18.0183 -18.0115 -18.0083 -18.0046
   -17.9924 -17.9893 -17.9889 -17.9873 -17.9866 -17.9848 -17.9809 -17.9767
   -17.9658 -17.9601 -17.9480 -17.9405 -17.9306 -17.9242 -17.9139 -17.9065
   -17.8980 -17.8951 -17.8883 -17.8881 -11.9166 -11.8902 -11.8113 -11.7038
   -11.7028 -11.6872 -11.6864 -11.6663 -11.6537 -11.6516 -11.6408 -11.6363
   -11.6167 -11.6063 -11.6001 -11.5622 -11.5460 -11.5342 -11.5113 -11.5037
   -11.4992 -11.4895 -11.4857 -11.4509 -11.4420 -11.4398 -11.4343 -11.4300
   -11.4245 -11.4237 -11.4064 -11.4038 -11.3831 -11.3627 -11.3612 -11.3520
   -11.3465 -11.3429 -11.3398 -11.3388 -11.3341 -11.3121 -11.3112 -11.3072
   -11.2819 -11.2763 -11.2442 -11.2301 -11.2274 -11.2221 -11.1607 -11.1168
   -11.1124 -11.0904 -11.0825 -11.0755 -11.0716 -11.0485 -11.0378 -11.0214
   -11.0080 -11.0032 -10.9947 -10.9913 -10.9848 -10.9839 -10.9810 -10.9805
   -10.9783 -10.9754 -10.9718 -10.9636 -10.9623 -10.9604 -10.9583 -10.9579
   -10.9570 -10.9553 -10.9501 -10.9476 -10.9460 -10.9260 -10.9117 -10.9114
   -10.9111 -10.9072 -10.7139 -10.7088 -10.6976 -10.6869 -10.6644 -10.6491
   -10.5946 -10.5489 -10.5273 -10.4794 -10.4146 -10.4085 -10.3219 -10.3191
   -10.3083 -10.3018 -10.2761 -10.2677 -10.2546 -10.2504 -10.2288 -10.2242
   -10.2195 -10.2004 -10.1943 -10.1879 -10.1836 -10.1795 -10.1659 -10.1533
   -10.1053 -10.0938 -10.0872 -10.0842 -10.0793 -10.0708 -10.0677 -10.0657
   -10.0548 -10.0271 -10.0096 -10.0077  -9.9798  -9.9638  -9.9527  -9.9445
    -9.9323  -9.9263  -9.9156  -9.9060  -9.8810  -9.8773  -9.8514  -9.8465
    -9.8419  -9.8250  -9.8141  -9.8024  -9.7799  -9.7785  -9.7657  -9.7377
    -9.7194  -9.7094  -9.7031  -9.7015  -9.7001  -9.6999  -9.6839  -9.6808
    -9.6587  -9.6561  -9.6383  -9.6350  -9.6302  -9.6275  -9.6226  -9.6191
    -9.6005  -9.5930  -9.5905  -9.5850  -9.5371  -9.5143  -9.4965  -9.4393
    -9.4216  -9.4095  -9.3928  -9.3779  -9.3678  -9.3546  -9.3482  -9.3394
    -9.3351  -9.3270  -9.3150  -9.2916  -9.2777  -9.2541  -9.2440  -9.2414
    -9.2294  -9.2109  -9.2058  -9.2032  -9.1907  -9.1872  -9.1858  -9.1774
    -9.1613  -9.1334  -9.1298  -9.1222  -9.1111  -9.1045  -9.1016  -9.0881
    -9.0760  -9.0589  -9.0578  -9.0528  -9.0504  -9.0454  -9.0427  -9.0387
    -9.0344  -9.0325  -9.0308  -9.0293  -9.0226  -9.0169  -9.0112  -9.0084
    -9.0069  -9.0021  -8.9977  -8.9906  -8.9813  -8.9673  -8.9636  -8.9528
    -8.9497  -8.9486  -8.9479  -8.9435  -8.9357  -8.9191  -8.9111  -8.8994
    -8.8979  -8.8893  -8.8766  -8.8616  -8.8350  -8.8173  -8.8076  -8.7860
    -8.7454  -8.7033  -8.6863  -8.6687  -8.6548  -8.6089  -8.5885  -8.5278
    -8.5135  -8.4767  -8.4446  -8.4102  -8.2989  -8.2972  -8.2932  -8.2901
    -8.2850  -8.2819  -8.2766  -8.2750  -8.2672  -8.2292  -8.2177  -8.1742
    -8.1466  -8.1309  -8.1146  -8.0507  -8.0403  -8.0148  -8.0133  -8.0106
    -7.9961  -7.9887  -7.9857  -7.9839  -7.9783  -7.9709  -7.9696  -7.9653
    -7.9638  -7.9593  -7.9576  -7.9563  -7.9524  -7.9518  -7.9474  -7.9429
    -7.9420  -7.9391  -7.9386  -7.9379  -7.9332  -7.9308  -7.9273  -7.9260
    -7.9245  -7.9201  -7.9136  -7.9047  -7.8966  -7.8926  -7.8880  -7.8808
    -7.8757  -7.8689  -7.8660  -7.8629  -7.8615  -7.8602  -7.8556  -7.8346
    -7.8341  -7.8318  -7.8310  -7.8152  -7.8050  -7.7867  -7.7863  -7.7773
    -7.7724  -7.7697  -7.7646  -7.7623  -7.7608  -7.7560  -7.7510  -7.7477
    -7.7372  -7.7320  -7.7315  -7.7217  -7.7134  -7.7054  -7.7017  -7.6384
    -7.6260  -7.6204  -7.6148  -7.6132  -7.5858  -7.5506  -7.4496  -7.4145
    -7.3604  -7.3436  -7.3395  -7.3360  -7.3304  -7.3129  -7.2922  -7.2836
    -7.2744  -7.2732  -7.2686  -7.2530  -7.2200  -7.2094  -7.1982  -7.1923
    -7.1862  -7.1833  -7.1593  -7.1499  -7.1405  -7.1242  -7.1137  -7.0983
    -7.0781  -7.0689  -7.0625  -7.0480  -7.0394  -7.0286  -7.0258  -7.0170
    -6.9916  -6.9869  -6.9737  -6.9371  -6.9298  -6.9121  -6.8709  -6.8491
    -6.8385  -6.8161  -6.8098  -6.7870  -6.7856  -6.7780  -6.7754  -6.7746
    -6.7720  -6.7622  -6.7581  -6.7576  -6.7552  -6.7515  -6.7479  -6.7476
    -6.7472  -6.7469  -6.7426  -6.7249  -6.6754  -6.6463  -6.6307  -6.5784
    -6.5722  -6.5242  -6.4999  -6.4977  -6.4961  -6.4854  -6.4700  -6.4633
    -6.4511  -6.4492  -6.4470  -6.4448  -6.4443  -6.4403  -6.4396  -6.4180
    -6.4141  -6.4035  -6.4006  -6.3929  -6.3739  -6.3683  -6.3670  -6.3652
    -6.3625  -6.2116  -6.1696  -6.1623  -6.1267  -6.1153  -6.0709  -6.0600
    -6.0229  -6.0127  -6.0084  -5.9703  -5.9054  -5.8254  -5.8196  -5.7537
    -5.7528  -4.8051  -4.2639  -4.2617  -4.2555  -4.2392  -4.1112  -4.1039
    -4.0906  -4.0856  -4.0760  -4.0388  -4.0131  -4.0113  -3.9989  -3.9967
    -3.9810  -3.9802  -3.9672  -3.9668  -3.9628  -3.9514  -3.8555  -3.8495
    -3.8440  -3.8060  -3.7805  -3.7742  -3.7704  -3.7684  -3.7673  -3.7606
    -3.7248  -3.7214  -3.7049  -3.6948  -3.6927  -3.6888  -3.6855  -3.6799
    -3.6543  -3.6520  -3.6474  -3.6426  -3.6395  -3.6388  -3.6374  -3.6188
    -3.6166  -3.6151  -3.6023  -3.5934  -3.5906  -3.5863  -3.5799  -3.5771
    -3.5271  -3.5211  -3.5163  -3.5155  -3.5138  -3.5121  -3.5107  -3.5047
    -3.4886  -3.4782  -3.4675  -3.4594  -3.4561  -3.4548  -3.4499  -3.4489
    -3.4474  -3.4430  -3.4269  -3.4151  -3.4115  -3.4088  -3.4055  -3.4013
    -3.3950  -3.3801  -3.3789  -3.3769  -3.3730  -3.3594  -3.3508  -3.3495
    -3.3451  -3.3403  -3.3365  -3.3357  -3.3287  -3.3287  -3.3284  -3.3202
    -3.2740  -3.2651  -3.2378  -3.2376  -3.2338  -3.2303  -3.2279  -3.2164
    -3.1948  -3.1932  -3.1912  -3.1906  -3.1897  -3.1882  -3.1820  -3.1812
    -3.1780  -3.1730  -3.1695  -3.1640  -3.1589  -3.1535  -3.1476  -3.1428
    -3.1409  -3.1360  -3.1316  -3.1280  -3.1264  -3.1169  -3.1157  -3.1128
    -3.1116  -3.1075  -3.1033  -3.0972  -3.0942  -3.0850  -3.0613  -3.0583
    -3.0569  -3.0524  -3.0430  -3.0395  -3.0369  -3.0003  -2.9582  -2.9566
    -2.9537  -2.9498  -2.8846  -2.8811  -2.8773  -2.8561  -2.7858  -2.7787
    -2.7527  -2.7414  -2.7394  -2.7303  -2.7135  -2.7105  -2.6936  -2.6930
    -2.6904  -2.6888  -2.6841  -2.6762  -2.6043  -2.5974  -2.5746  -2.5600
    -2.5524  -2.5421

          k =-0.5000-0.8660 0.0000 (386352 PWs)   bands (ev):

   -89.2969 -66.8172 -66.8023 -66.8008 -66.7886 -66.7882 -66.7879 -66.7876
   -66.7875 -66.7863 -66.7863 -66.7823 -66.7778 -66.7774 -66.7774 -66.7769
   -66.7769 -66.7756 -66.7756 -66.7726 -66.7662 -66.7624 -66.7623 -66.7623
   -66.7623 -66.7623 -66.7618 -66.7618 -66.7618 -66.7618 -66.7605 -66.7605
   -66.7605 -66.7605 -66.7594 -66.7588 -66.7580 -66.7577 -66.7574 -66.7573
   -66.7561 -66.7560 -66.7534 -66.7518 -66.7517 -66.7514 -66.7513 -66.7511
   -66.7511 -66.7511 -66.7510 -66.7498 -66.7498 -66.7498 -66.7498 -66.7480
   -66.7471 -66.7471 -66.7468 -66.7467 -66.7467 -66.7453 -66.7453 -66.7226
   -66.7189 -55.2775 -55.0084 -54.8945 -41.1104 -41.0992 -41.0906 -41.0905
   -41.0902 -41.0900 -41.0896 -41.0896 -41.0895 -41.0895 -41.0889 -41.0889
   -41.0889 -41.0889 -41.0860 -41.0797 -41.0754 -41.0636 -41.0634 -41.0628
   -41.0627 -41.0621 -41.0621 -41.0584 -41.0532 -41.0526 -41.0515 -41.0514
   -41.0507 -41.0507 -41.0500 -41.0500 -41.0078 -41.0062 -41.0017 -41.0008
   -41.0008 -41.0007 -41.0006 -41.0000 -41.0000 -41.0000 -41.0000 -40.9992
   -40.9992 -40.9992 -40.9992 -40.9986 -40.9729 -40.9567 -40.9420 -40.9416
   -40.9412 -40.9412 -40.9411 -40.9406 -40.9406 -40.9364 -40.9335 -40.9325
   -40.9324 -40.9317 -40.9317 -40.9309 -40.9309 -40.9291 -40.9243 -40.9210
   -40.9209 -40.9203 -40.9203 -40.9197 -40.9197 -40.9127 -40.9072 -40.8941
   -40.8917 -40.8914 -40.8914 -40.8913 -40.8912 -40.8907 -40.8907 -40.8907
   -40.8907 -40.8900 -40.8900 -40.8900 -40.8900 -40.8887 -40.8855 -40.8828
   -40.8824 -40.8820 -40.8820 -40.8813 -40.8813 -40.8806 -40.8791 -40.8772
   -40.8710 -40.8709 -40.8706 -40.8705 -40.8702 -40.8702 -40.8700 -40.8700
   -40.8697 -40.8697 -40.8696 -40.8696 -40.8694 -40.8694 -40.8693 -40.8690
   -40.8690 -40.8690 -40.8690 -40.8672 -40.8616 -40.8615 -40.8610 -40.8610
   -40.8603 -40.8603 -40.8590 -40.8559 -40.8550 -40.8492 -40.8401 -40.8400
   -40.8400 -40.8399 -40.8393 -40.8393 -40.8393 -40.8393 -40.8384 -40.8384
   -40.8384 -40.8384 -40.8370 -40.8312 -40.8119 -40.8106 -40.8076 -40.8053
   -40.8053 -40.8052 -40.8052 -40.8046 -40.8046 -40.8046 -40.8046 -40.8036
   -40.8036 -40.8036 -40.8036 -40.7996 -40.7958 -40.7933 -40.7929 -40.7924
   -40.7924 -40.7914 -40.7914 -40.7849 -40.7832 -40.7738 -40.7737 -40.7731
   -40.7731 -40.7721 -40.7721 -40.7642 -40.7568 -40.7568 -40.7561 -40.7561
   -40.7560 -40.7551 -40.7551 -40.7478 -40.7337 -40.7263 -40.7259 -40.7255
   -40.7254 -40.7244 -40.7244 -40.7140 -20.0693 -20.0550 -20.0103 -19.9853
   -19.9152 -19.8903 -19.8191 -19.8088 -19.6234 -19.6213 -19.5658 -19.5619
   -19.4782 -19.4740 -19.3905 -19.3887 -19.0049 -18.9461 -18.9372 -18.9133
   -18.9053 -18.9012 -18.8869 -18.8789 -18.8621 -18.8486 -18.8428 -18.8176
   -18.8126 -18.7903 -18.7860 -18.7730 -18.7450 -18.7404 -18.7207 -18.7160
   -18.7111 -18.7052 -18.6908 -18.6741 -18.6531 -18.6487 -18.6303 -18.6284
   -18.6187 -18.6039 -18.5753 -18.5716 -18.5580 -18.5393 -18.5178 -18.5082
   -18.4932 -18.4796 -18.4466 -18.4185 -18.4127 -18.4068 -18.3952 -18.3911
   -18.3542 -18.3451 -18.3178 -18.3058 -18.2896 -18.2797 -18.2769 -18.2757
   -18.2737 -18.2717 -18.2651 -18.2538 -18.2466 -18.2428 -18.2413 -18.2366
   -18.2318 -18.2212 -18.2141 -18.2101 -18.2095 -18.2052 -18.2009 -18.1968
   -18.1779 -18.1724 -18.1695 -18.1655 -18.1628 -18.1621 -18.1539 -18.1530
   -18.1506 -18.1423 -18.1112 -18.1048 -18.1017 -18.0970 -18.0845 -18.0829
   -18.0574 -18.0529 -18.0417 -18.0387 -18.0153 -18.0137 -18.0104 -18.0043
   -17.9923 -17.9897 -17.9883 -17.9879 -17.9873 -17.9852 -17.9797 -17.9774
   -17.9660 -17.9610 -17.9478 -17.9414 -17.9284 -17.9260 -17.9112 -17.9090
   -17.8972 -17.8962 -17.8883 -17.8882 -11.9202 -11.8882 -11.8277 -11.7030
   -11.6870 -11.6853 -11.6852 -11.6703 -11.6544 -11.6508 -11.6434 -11.6348
   -11.6050 -11.6037 -11.5974 -11.5631 -11.5509 -11.5344 -11.5024 -11.5010
   -11.4973 -11.4919 -11.4832 -11.4582 -11.4448 -11.4424 -11.4373 -11.4299
   -11.4236 -11.4229 -11.4142 -11.4103 -11.3813 -11.3677 -11.3637 -11.3559
   -11.3496 -11.3397 -11.3390 -11.3384 -11.3329 -11.3131 -11.3119 -11.3056
   -11.2811 -11.2808 -11.2389 -11.2276 -11.2239 -11.2230 -11.1480 -11.1197
   -11.1120 -11.0838 -11.0781 -11.0757 -11.0661 -11.0552 -11.0393 -11.0192
   -11.0076 -11.0050 -10.9958 -10.9886 -10.9855 -10.9836 -10.9824 -10.9811
   -10.9750 -10.9716 -10.9678 -10.9625 -10.9615 -10.9604 -10.9602 -10.9593
   -10.9581 -10.9570 -10.9501 -10.9442 -10.9413 -10.9291 -10.9116 -10.9111
   -10.9106 -10.9086 -10.7192 -10.7063 -10.6979 -10.6925 -10.6649 -10.6472
   -10.5860 -10.5707 -10.5500 -10.4834 -10.4190 -10.3870 -10.3158 -10.3138
   -10.3085 -10.3015 -10.2742 -10.2615 -10.2548 -10.2534 -10.2279 -10.2235
   -10.2209 -10.1985 -10.1976 -10.1887 -10.1822 -10.1738 -10.1687 -10.1543
   -10.1088 -10.0946 -10.0909 -10.0854 -10.0752 -10.0715 -10.0671 -10.0655
   -10.0544 -10.0278 -10.0115 -10.0087  -9.9709  -9.9696  -9.9551  -9.9466
    -9.9314  -9.9310  -9.9144  -9.9051  -9.8798  -9.8791  -9.8541  -9.8461
    -9.8400  -9.8252  -9.8132  -9.8020  -9.7771  -9.7764  -9.7663  -9.7414
    -9.7224  -9.7052  -9.7049  -9.7014  -9.6998  -9.6974  -9.6826  -9.6786
    -9.6560  -9.6552  -9.6406  -9.6351  -9.6344  -9.6288  -9.6265  -9.6230
    -9.5949  -9.5925  -9.5896  -9.5831  -9.5421  -9.5169  -9.4792  -9.4498
    -9.4212  -9.4171  -9.4057  -9.3781  -9.3679  -9.3537  -9.3522  -9.3366
    -9.3356  -9.3267  -9.3080  -9.2942  -9.2798  -9.2709  -9.2468  -9.2314
    -9.2259  -9.2133  -9.2049  -9.1990  -9.1927  -9.1916  -9.1883  -9.1786
    -9.1631  -9.1356  -9.1250  -9.1211  -9.1095  -9.1017  -9.1000  -9.0930
    -9.0774  -9.0599  -9.0556  -9.0533  -9.0526  -9.0427  -9.0407  -9.0400
    -9.0343  -9.0320  -9.0299  -9.0278  -9.0207  -9.0139  -9.0090  -9.0078
    -9.0048  -8.9998  -8.9920  -8.9899  -8.9790  -8.9716  -8.9678  -8.9571
    -8.9505  -8.9486  -8.9482  -8.9459  -8.9328  -8.9300  -8.9213  -8.9016
    -8.8986  -8.8888  -8.8870  -8.8591  -8.8553  -8.8195  -8.8062  -8.7756
    -8.7429  -8.6919  -8.6807  -8.6592  -8.6444  -8.5928  -8.5809  -8.5153
    -8.5122  -8.4719  -8.4531  -8.4138  -8.2978  -8.2968  -8.2914  -8.2888
    -8.2821  -8.2766  -8.2747  -8.2663  -8.2442  -8.2306  -8.2065  -8.1757
    -8.1520  -8.1304  -8.1271  -8.0596  -8.0406  -8.0224  -8.0138  -8.0127
    -7.9996  -7.9938  -7.9863  -7.9830  -7.9748  -7.9734  -7.9681  -7.9649
    -7.9634  -7.9611  -7.9587  -7.9557  -7.9530  -7.9505  -7.9477  -7.9439
    -7.9425  -7.9397  -7.9390  -7.9360  -7.9350  -7.9300  -7.9279  -7.9271
    -7.9267  -7.9181  -7.9162  -7.9095  -7.8954  -7.8935  -7.8925  -7.8880
    -7.8748  -7.8666  -7.8645  -7.8642  -7.8628  -7.8612  -7.8435  -7.8346
    -7.8339  -7.8321  -7.8242  -7.8158  -7.8072  -7.7902  -7.7826  -7.7759
    -7.7746  -7.7716  -7.7652  -7.7641  -7.7627  -7.7606  -7.7517  -7.7480
    -7.7321  -7.7318  -7.7301  -7.7194  -7.7109  -7.7104  -7.7014  -7.6456
    -7.6248  -7.6223  -7.6200  -7.6148  -7.5836  -7.5449  -7.4439  -7.4157
    -7.3674  -7.3426  -7.3402  -7.3342  -7.3314  -7.3070  -7.2933  -7.2881
    -7.2736  -7.2730  -7.2684  -7.2514  -7.2287  -7.2124  -7.1951  -7.1895
    -7.1850  -7.1845  -7.1565  -7.1492  -7.1331  -7.1210  -7.1143  -7.0993
    -7.0893  -7.0667  -7.0628  -7.0489  -7.0352  -7.0294  -7.0259  -7.0176
    -7.0081  -6.9827  -6.9717  -6.9447  -6.9344  -6.9074  -6.8937  -6.8492
    -6.8423  -6.8070  -6.8041  -6.7874  -6.7826  -6.7789  -6.7761  -6.7720
    -6.7718  -6.7630  -6.7584  -6.7559  -6.7554  -6.7507  -6.7477  -6.7473
    -6.7472  -6.7464  -6.7343  -6.7037  -6.6829  -6.6388  -6.6304  -6.5969
    -6.5755  -6.5325  -6.5022  -6.4979  -6.4940  -6.4894  -6.4653  -6.4605
    -6.4569  -6.4516  -6.4460  -6.4458  -6.4417  -6.4406  -6.4400  -6.4138
    -6.4055  -6.4051  -6.3999  -6.3920  -6.3718  -6.3680  -6.3670  -6.3630
    -6.3623  -6.1732  -6.1682  -6.1661  -6.1331  -6.1201  -6.0766  -6.0603
    -6.0183  -6.0152  -6.0096  -5.9749  -5.8922  -5.8406  -5.8236  -5.7580
    -5.7533  -4.8084  -4.2629  -4.2600  -4.2535  -4.2499  -4.1082  -4.1018
    -4.0886  -4.0825  -4.0706  -4.0623  -4.0162  -4.0099  -4.0009  -3.9938
    -3.9820  -3.9774  -3.9670  -3.9659  -3.9625  -3.9259  -3.8646  -3.8465
    -3.8379  -3.8366  -3.7807  -3.7718  -3.7708  -3.7695  -3.7649  -3.7313
    -3.7231  -3.7215  -3.6981  -3.6973  -3.6926  -3.6904  -3.6863  -3.6790
    -3.6597  -3.6520  -3.6460  -3.6446  -3.6390  -3.6364  -3.6352  -3.6344
    -3.6160  -3.6139  -3.5997  -3.5948  -3.5922  -3.5866  -3.5738  -3.5494
    -3.5367  -3.5256  -3.5179  -3.5162  -3.5153  -3.5129  -3.5105  -3.5100
    -3.4884  -3.4752  -3.4678  -3.4581  -3.4567  -3.4530  -3.4505  -3.4492
    -3.4474  -3.4424  -3.4323  -3.4164  -3.4108  -3.4081  -3.4029  -3.3997
    -3.3950  -3.3917  -3.3792  -3.3766  -3.3758  -3.3704  -3.3557  -3.3525
    -3.3428  -3.3401  -3.3381  -3.3353  -3.3287  -3.3287  -3.3277  -3.3071
    -3.2748  -3.2673  -3.2390  -3.2358  -3.2326  -3.2298  -3.2235  -3.2115
    -3.1941  -3.1935  -3.1922  -3.1914  -3.1888  -3.1868  -3.1856  -3.1798
    -3.1758  -3.1698  -3.1690  -3.1655  -3.1584  -3.1574  -3.1458  -3.1442
    -3.1405  -3.1375  -3.1333  -3.1311  -3.1245  -3.1184  -3.1128  -3.1122
    -3.1101  -3.1062  -3.1036  -3.0973  -3.0910  -3.0868  -3.0629  -3.0592
    -3.0564  -3.0519  -3.0453  -3.0370  -3.0341  -3.0167  -2.9595  -2.9565
    -2.9551  -2.9486  -2.8937  -2.8825  -2.8766  -2.8648  -2.7816  -2.7790
    -2.7493  -2.7421  -2.7377  -2.7347  -2.7134  -2.7095  -2.7003  -2.6937
    -2.6925  -2.6855  -2.6841  -2.6820  -2.6024  -2.5753  -2.5682  -2.5584
    -2.5512  -2.5430

     the Fermi energy is    -4.8083 ev

!    total energy              =  -32306.77856517 Ry
     total all-electron energy =   -630579.938756 Ry
     estimated scf accuracy    <       0.00000065 Ry
     smearing contrib. (-TS)   =      -0.00563561 Ry
     internal energy E=F+TS    =  -32306.77292956 Ry

     The total energy is F=E-TS. E is the sum of the following terms:
     one-electron contribution = 1102011.48989986 Ry
     hartree contribution      = -551153.51115636 Ry
     xc contribution           =   -1935.61857928 Ry
     ewald contribution        = -560511.72752461 Ry
     DFT-D3 Dispersion         =      -5.39677266 Ry
     one-center paw contrib.   =  -20712.00879651 Ry

     convergence has been achieved in   9 iterations

     negative rho (up, down):  8.983E-04 0.000E+00

     Forces acting on atoms (cartesian axes, Ry/au):

     atom    1 type  1   force =     0.00000029   -0.00000005    0.00068723
     atom    2 type  1   force =     0.00002344   -0.00001349   -0.00002199
     atom    3 type  2   force =     0.00000198    0.00000185    0.00000112
     atom    4 type  2   force =     0.00000022    0.00000147    0.00161576
     atom    5 type  2   force =    -0.00000021    0.00000091   -0.00235963
     atom    6 type  2   force =    -0.00000069    0.00000194   -0.00005929
     atom    7 type  1   force =     0.00002497    0.00001467   -0.00005539
     atom    8 type  1   force =     0.00107586   -0.00101497   -0.00006802
     atom    9 type  2   force =    -0.00084823   -0.00168063    0.00013418
     atom   10 type  2   force =     0.00013448   -0.00008733   -0.00003623
     atom   11 type  2   force =     0.00013231    0.00001417   -0.00014301
     atom   12 type  2   force =     0.00069374    0.00172559   -0.00311138
     atom   13 type  1   force =     0.00000023    0.00000219    0.00068781
     atom   14 type  1   force =    -0.00001389    0.00001234   -0.00003600
     atom   15 type  2   force =     0.00000363    0.00000305    0.00000372
     atom   16 type  2   force =     0.00000020    0.00000167    0.00161621
     atom   17 type  2   force =    -0.00000019    0.00000112   -0.00235991
     atom   18 type  2   force =     0.00000375   -0.00000715   -0.00006649
     atom   19 type  1   force =     0.00005505   -0.00002382   -0.00015536
     atom   20 type  1   force =     0.00179950    0.00070197    0.00520221
     atom   21 type  2   force =    -0.00395672    0.00101167   -0.00096477
     atom   22 type  2   force =    -0.00002576    0.00001088   -0.00005955
     atom   23 type  2   force =     0.00004570    0.00013972   -0.00013738
     atom   24 type  2   force =     0.00060507    0.00029470    0.00057304
     atom   25 type  1   force =     0.00000285    0.00000189    0.00068806
     atom   26 type  1   force =    -0.00000074   -0.00000905   -0.00000943
     atom   27 type  2   force =     0.00000229    0.00000444    0.00000088
     atom   28 type  2   force =     0.00000015    0.00000203    0.00161566
     atom   29 type  2   force =     0.00000002    0.00000145   -0.00235950
     atom   30 type  2   force =     0.00000020   -0.00000656   -0.00006294
     atom   31 type  1   force =    -0.00001954   -0.00003686   -0.00005878
     atom   32 type  1   force =    -0.00062992    0.00096253    0.00035010
     atom   33 type  2   force =    -0.00083529   -0.00218722    0.00304163
     atom   34 type  2   force =     0.00011122    0.00001210   -0.00006677
     atom   35 type  2   force =    -0.00023178    0.00000044   -0.00005233
     atom   36 type  2   force =     0.00108675    0.00057826   -0.00032256
     atom   37 type  1   force =     0.00000332   -0.00000024    0.00068713
     atom   38 type  1   force =     0.00002880    0.00002261   -0.00003414
     atom   39 type  2   force =     0.00000175    0.00000232    0.00000449
     atom   40 type  2   force =     0.00000034    0.00000187    0.00161551
     atom   41 type  2   force =     0.00000013    0.00000120   -0.00235934
     atom   42 type  2   force =    -0.00000311   -0.00000218   -0.00006592
     atom   43 type  1   force =    -0.00008746   -0.00004236   -0.00014171
     atom   44 type  1   force =     0.00010568   -0.00021566   -0.00140769
     atom   45 type  2   force =     0.00056828   -0.00070255   -0.00169780
     atom   46 type  2   force =    -0.00006895    0.00005946   -0.00001854
     atom   47 type  2   force =    -0.00010052   -0.00025612   -0.00002297
     atom   48 type  2   force =     0.00147774   -0.00142683   -0.00124115
     atom   49 type  1   force =     0.00000307   -0.00000110    0.00068726
     atom   50 type  1   force =    -0.00002084   -0.00003360   -0.00002294
     atom   51 type  2   force =     0.00000184    0.00000302    0.00000555
     atom   52 type  2   force =     0.00000016    0.00000123    0.00161564
     atom   53 type  2   force =    -0.00000008    0.00000076   -0.00235938
     atom   54 type  2   force =    -0.00000850    0.00000250   -0.00005297
     atom   55 type  1   force =     0.00003891   -0.00011712   -0.00013606
     atom   56 type  1   force =    -0.00027279   -0.00009109   -0.00073604
     atom   57 type  2   force =    -0.00062980    0.00439622    0.00207292
     atom   58 type  2   force =    -0.00015098   -0.00006333   -0.00012684
     atom   59 type  2   force =    -0.00002975    0.00002297   -0.00016339
     atom   60 type  2   force =    -0.00070294   -0.00057056    0.00168800
     atom   61 type  1   force =     0.00000074    0.00000299    0.00068733
     atom   62 type  1   force =    -0.00001363   -0.00001663   -0.00003239
     atom   63 type  2   force =     0.00000397    0.00000488    0.00000038
[...]
     atom  164 type  1   force =     0.00008400    0.00004476   -0.00247964
     atom  165 type  2   force =     0.00000393   -0.00000840   -0.00017589
     atom  166 type  2   force =    -0.00000632   -0.00000864    0.00004760
     atom  167 type  2   force =     0.00000054    0.00000041   -0.00010380
     atom  168 type  2   force =    -0.00000717    0.00002397   -0.00439785
     atom  169 type  1   force =    -0.00000002   -0.00000003    0.00255984
     atom  170 type  1   force =     0.00000008    0.00000007    0.00003269
     atom  171 type  2   force =    -0.00000003   -0.00000000   -0.00003112
     atom  172 type  2   force =    -0.00000001    0.00000000    0.00017185
     atom  173 type  2   force =     0.00000000   -0.00000000    0.00441516
     atom  174 type  2   force =    -0.00000025   -0.00000026    0.00010839
     atom  175 type  1   force =     0.00000741    0.00000191   -0.00001511
     atom  176 type  1   force =    -0.00000521    0.00000575   -0.00249009
     atom  177 type  2   force =     0.00000049    0.00001259   -0.00013763
     atom  178 type  2   force =     0.00000226   -0.00000085    0.00004372
     atom  179 type  2   force =     0.00000026    0.00000105   -0.00010422
     atom  180 type  2   force =    -0.00032913   -0.00007232   -0.00428747
     atom  181 type  1   force =    -0.00000004   -0.00000003    0.00255982
     atom  182 type  1   force =    -0.00000010    0.00000005    0.00003259
     atom  183 type  2   force =    -0.00000002   -0.00000002   -0.00003112
     atom  184 type  2   force =     0.00000000    0.00000001    0.00017184
     atom  185 type  2   force =    -0.00000000   -0.00000000    0.00441518
     atom  186 type  2   force =    -0.00000016   -0.00000040    0.00010833
     atom  187 type  1   force =     0.00000345    0.00000875   -0.00000946
     atom  188 type  1   force =    -0.00008392   -0.00005114   -0.00246596
     atom  189 type  2   force =    -0.00000639    0.00000048   -0.00013482
     atom  190 type  2   force =     0.00001263    0.00001013    0.00003700
     atom  191 type  2   force =     0.00000036    0.00000062   -0.00010428
     atom  192 type  2   force =    -0.00019247   -0.00023359   -0.00429562
     atom  193 type  3   force =    -0.00005537    0.00003222   -0.00639028
     atom  194 type  4   force =     0.00005603   -0.00003473   -0.00091452

     Total force =     0.003159     Total SCF correction =     0.000341
     SCF correction compared to forces is large: reduce conv_thr to get better values
     Energy error            =      2.2E-05 Ry
     Gradient error          =      9.8E-04 Ry/Bohr

     bfgs converged in  47 scf cycles and  46 bfgs steps
     (criteria: energy <  1.0E-04 Ry, force <  1.0E-03 Ry/Bohr)

     End of BFGS Geometry Optimization

     Final energy             =  -32306.7868608916 Ry

     File ./outdir/pwscf.bfgs deleted, as requested
Begin final coordinates

ATOMIC_POSITIONS (angstrom)
Mo            0.0000119917        1.8193638619       -9.1672481230    0   0   0
Mo            1.5756136568        0.9097075315       -3.0554901653    0   0   0
S             0.0000188998        1.8193822938       -4.6232556019    0   0   0
S             1.5756321638        0.9096773839       -7.6014065489    0   0   0
S             1.5756326175        0.9096785128      -10.7330757790    0   0   0
S             0.0000189190        1.8193860094       -1.4877129945    0   0   0
Mo           -0.0008968730        1.8149315876        3.0467249767
Mo            1.5904131038        0.8841199745        9.1418006937
S             0.0145492253        1.7966237152        7.5722472513
S             1.5747415153        0.9051278490        4.6141060480
S             1.5746604870        0.9052205398        1.4792870707
S             0.0096967013        1.7778324441       10.7143570872
Mo           -1.5756053507        4.5484193819       -9.1672481230    0   0   0
Mo            0.0000378379        3.6387394919       -3.0554952701    0   0   0
S            -1.5755913433        4.5484363582       -4.6232494962    0   0   0
S             0.0000148214        3.6387329039       -7.6014065489    0   0   0
S             0.0000152751        3.6387340328      -10.7330757790    0   0   0
S            -1.5755906502        4.5484413613       -1.4877305502    0   0   0
Mo           -1.5763107615        4.5441609697        3.0469541441
Mo           -0.0004835921        3.6028713244        9.1493617144
S            -1.5642839272        4.5271510314        7.5807020898
S            -0.0003659805        3.6344194648        4.6146347889
S            -0.0011803707        3.6343735463        1.4790208964
S            -1.5703315795        4.5147463676       10.7245011406
Mo           -3.1512226931        7.2774749019       -9.1672481230    0   0   0
Mo           -1.5755910988        6.3678216792       -3.0555115988    0   0   0
S            -3.1512162438        7.2774954350       -4.6232578178    0   0   0
S            -1.5756025210        6.3677884239       -7.6014065489    0   0   0
S            -1.5756020673        6.3677895528      -10.7330757790    0   0   0
S            -3.1512127704        7.2774877076       -1.4877200710    0   0   0
Mo           -3.1520003375        7.2728165421        3.0468308623
Mo           -1.5689540238        6.3371810751        9.1617283379
S            -3.1303145295        7.2520448472        7.5795033893
S            -1.5756402579        6.3635727570        4.6144986253
S            -1.5768388751        6.3633674333        1.4788909883
S            -3.1507133419        7.2570086642       10.7185962381
Mo           -4.7268400355       10.0065304219       -9.1672481230    0   0   0
Mo           -3.1512405618        9.0968403586       -3.0554816746    0   0   0
S            -4.7268341792       10.0065523623       -4.6232463762    0   0   0
S            -3.1512198634        9.0968439439       -7.6014065489    0   0   0
S            -3.1512194097        9.0968450728      -10.7330757790    0   0   0
S            -4.7268370797       10.0065537885       -1.4877176751    0   0   0
Mo           -4.7276669043       10.0019074225        3.0469140027
Mo           -3.1346466200        9.0736163854        9.1449634289
S            -4.7095850897        9.9807063554        7.5736689489
S            -3.1517619977        9.0919317082        4.6142752418
S            -3.1521460888        9.0924400567        1.4794151911
S            -4.7113787401        9.9825750729       10.7116859850
Mo            3.1512517547        1.8193638619       -9.1672481230    0   0   0
Mo            4.7269020221        0.9097289540       -3.0554823951    0   0   0
S             3.1512612351        1.8193882564       -4.6232320683    0   0   0
S             4.7268719268        0.9096773839       -7.6014065489    0   0   0
S             4.7268723805        0.9096785128      -10.7330757790    0   0   0
S             3.1512592485        1.8193890201       -1.4877261251    0   0   0
Mo            3.1502245242        1.8150525678        3.0469720114
Mo            4.7418336475        0.8877444551        9.1421807737
S             3.1652799233        1.8029089942        7.5766721934
S             4.7259719704        0.9050204660        4.6143812931
S             4.7259219444        0.9053314360        1.4795093394
S             3.1681205670        1.7762724039       10.7194096438
Mo            1.5756344123        4.5484193819       -9.1672481230    0   0   0
Mo            3.1512756394        3.6387769522       -3.0554814834    0   0   0
S             1.5756504879        4.5484423799       -4.6232390542    0   0   0
S             3.1512545844        3.6387329039       -7.6014065489    0   0   0
S             3.1512550381        3.6387340328      -10.7330757790    0   0   0
S             1.5756466253        4.5484431864       -1.4877251801    0   0   0
Mo            1.5746121415        4.5442957578        3.0461981011
Mo            3.1677797180        3.6067015556        9.1626795082
S             1.5885884886        4.5497251285        7.6228107142
S             3.1493005112        3.6346158390        4.6150776324
S             3.1504247500        3.6343871791        1.4793495279
S             1.5785407753        4.4395553189       10.7615970299
Mo            0.0000170699        7.2774749019       -9.1672481230    0   0   0
Mo            1.5756764447        6.3678236689       -3.0554877708    0   0   0
S             0.0000381981        7.2774979204       -4.6232454413    0   0   0
S             1.5756372420        6.3677884239       -7.6014065489    0   0   0
S             1.5756376957        6.3677895528      -10.7330757790    0   0   0
S             0.0000328088        7.2774946042       -1.4877307940    0   0   0
Mo           -0.0006824354        7.2728262148        3.0458440468
Mo            1.5866650287        6.3456223007        9.2184108197
S             0.0339056601        7.2413560990        7.6276111830
S             1.5744078960        6.3632377995        4.6134311793
S             1.5746643908        6.3635054832        1.4780570980
S            -0.0705720693        7.3017476123       10.7796513530
Mo           -1.5756002725       10.0065304219       -9.1672481230    0   0   0
Mo            0.0000873425        9.0968676911       -3.0554912329    0   0   0
S            -1.5755883952       10.0065504530       -4.6232240150    0   0   0
S             0.0000198996        9.0968439439       -7.6014065489    0   0   0
S             0.0000203533        9.0968450728      -10.7330757790    0   0   0
S            -1.5755859047       10.0065492576       -1.4877362381    0   0   0
Mo           -1.5763321850       10.0018945639        3.0469800078
Mo            0.0177714888        9.0818979204        9.1608008565
S            -1.5531862509        9.9794711581        7.5796041265
S            -0.0007060594        9.0911690765        4.6145195243
S            -0.0008096889        9.0929217924        1.4792039171
S            -1.5666648670        9.9953103840       10.7174112894
Mo            6.3024915177        1.8193638619       -9.1672481230    0   0   0
Mo            7.8781001445        0.9096521684       -3.0554919963    0   0   0
S             6.3025008696        1.8193826232       -4.6232480596    0   0   0
S             7.8781116898        0.9096773839       -7.6014065489    0   0   0
S             7.8781121435        0.9096785128      -10.7330757790    0   0   0
S             6.3025042007        1.8193849068       -1.4877147524    0   0   0
Mo            6.3014854774        1.8149757837        3.0470150940
Mo            7.8893197042        0.8906567457        9.1438577091
S             6.3153638056        1.8007570985        7.5742838715
S             7.8772709350        0.9051084946        4.6142202681
S             7.8770300650        0.9052373819        1.4795154514
S             6.3159812907        1.7979836408       10.7147552906
Mo            4.7268741753        4.5484193819       -9.1672481230    0   0   0
Mo            6.3024679138        3.6387501714       -3.0554895197    0   0   0
S             4.7268748770        4.5484386753       -4.6232519432    0   0   0
S             6.3024943474        3.6387329039       -7.6014065489    0   0   0
S             6.3024948011        3.6387340328      -10.7330757790    0   0   0
S             4.7268770533        4.5484432419       -1.4877137856    0   0   0
Mo            4.7254121928        4.5441041259        3.0475156189
Mo            6.3164956619        3.6170251249        9.1473390266
S             4.7360783569        4.5280555673        7.5880189758
S             6.3012581047        3.6343083796        4.6145333502
S             6.3010886030        3.6346111462        1.4796914643
S             4.7469652064        4.5216175960       10.7255235524
Mo            3.1512568329        7.2774749019       -9.1672481230    0   0   0
Mo            4.7268384135        6.3678043337       -3.0554959052    0   0   0
S             3.1512606125        7.2774972547       -4.6232589675    0   0   0
S             4.7268770050        6.3677884239       -7.6014065489    0   0   0
S             4.7268774587        6.3677895528      -10.7330757790    0   0   0
S             3.1512629079        7.2774963749       -1.4877081835    0   0   0
Mo            3.1499029816        7.2728388945        3.0463311513
Mo            4.7503355294        6.3455686842        9.1626243486
S             3.1442526795        7.2394578543        7.6207783842
S             4.7250733427        6.3635951173        4.6149108631
S             4.7258573778        6.3632411681        1.4794049163
S             3.2354787247        7.3095037565       10.7558381270
Mo            1.5756394905       10.0065304219       -9.1672481230    0   0   0
Mo            3.1512330605        9.0968514907       -3.0554878870    0   0   0
S             1.5756499830       10.0065443759       -4.6232632674    0   0   0
S             3.1512596626        9.0968439439       -7.6014065489    0   0   0
S             3.1512601163        9.0968450728      -10.7330757790    0   0   0
S             1.5756503041       10.0065459699       -1.4877044377    0   0   0
Mo            1.5748109271       10.0018152175        3.0472846181
Mo            3.1686923259        9.0911191584        9.1449978155
S             1.5853348691        9.9837244627        7.5778955278
S             3.1503125813        9.0913750758        4.6150649120
S             3.1503062481        9.0927127983        1.4793637212
S             1.5959549906        9.9952629061       10.7203786767
Mo            9.4537312807        1.8193638619       -9.1672481230    0   0   0
Mo           11.0293863460        0.9096952246       -3.0554894007    0   0   0
S             9.4537395970        1.8193770750       -4.6232328036    0   0   0
S            11.0293514528        0.9096773839       -7.6014065489    0   0   0
S            11.0293519066        0.9096785128      -10.7330757790    0   0   0
S             9.4537393632        1.8193794783       -1.4877366147    0   0   0
Mo            9.4528112375        1.8149683098        3.0468223319
Mo           11.0430343467        0.8859490941        9.1375108618
S             9.4637918030        1.7991475778        7.5734770427
S            11.0285446942        0.9051594674        4.6141555305
S            11.0282288412        0.9050688641        1.4794226203
S             9.4672349177        1.7958406676       10.7099239324
Mo            7.8781139383        4.5484193819       -9.1672481230    0   0   0
Mo            9.4537539161        3.6387607911       -3.0554933032    0   0   0
S             7.8781175448        4.5484378232       -4.6232366318    0   0   0
S             9.4537341104        3.6387329039       -7.6014065489    0   0   0
S             9.4537345641        3.6387340328      -10.7330757790    0   0   0
S             7.8781194018        4.5484411585       -1.4877377057    0   0   0
Mo            7.8770747112        4.5439650629        3.0470167293
Mo            9.4626612355        3.6164583500        9.1458142518
S             7.8893758443        4.5268932547        7.5751252685
S             9.4530943122        3.6343360772        4.6141894684
S             9.4526929897        3.6345635625        1.4793663971
S             7.8909990754        4.5271465280       10.7159192147
Mo            6.3024965959        7.2774749019       -9.1672481230    0   0   0
Mo            7.8781361655        6.3678242352       -3.0555014130    0   0   0
S             6.3024973331        7.2774953556       -4.6232392528    0   0   0
S             7.8781167680        6.3677884239       -7.6014065489    0   0   0
S             7.8781172217        6.3677895528      -10.7330757790    0   0   0
S             6.3024989866        7.2774929744       -1.4877349119    0   0   0
Mo            6.3014286397        7.2727847165        3.0469897733
Mo            7.8916591753        6.3458313640        9.1436127271
S             6.3106623711        7.2517150707        7.5781724529
S             7.8773300000        6.3631764821        4.6144465091
S             7.8769786217        6.3632828099        1.4793585650
S             6.3329655375        7.2620011059       10.7211797869
Mo            4.7268792535       10.0065304219       -9.1672481230    0   0   0
Mo            6.3025111524        9.0968738021       -3.0554915260    0   0   0
S             4.7268840634       10.0065452125       -4.6232380477    0   0   0
S             6.3024994256        9.0968439439       -7.6014065489    0   0   0
S             6.3024998793        9.0968450728      -10.7330757790    0   0   0
S             4.7268847312       10.0065459141       -1.4877283294    0   0   0
Mo            4.7259208813       10.0018048917        3.0471725895
Mo            6.3180075927        9.0741201493        9.1426094607
S             4.7416383163        9.9821813348        7.5704272735
S             6.3018103137        9.0918752001        4.6142690544
S             6.3014384305        9.0922998973        1.4794992142
S             4.7508925318        9.9948292801       10.7126433216
Pd            1.6543100330        6.3246190527       12.1820308271
H             2.5001091519        5.8800886201       13.4514490540
End final coordinates



     Writing all to output data dir ./outdir/pwscf.save/
 
     init_run     :     24.93s CPU     26.87s WALL (       1 calls)
     electrons    : 148481.24s CPU 150804.74s WALL (      19 calls)
     update_pot   :    107.92s CPU    108.41s WALL (      18 calls)
     forces       :   2293.88s CPU   2350.71s WALL (      19 calls)
     force_dftd3  :     14.60s CPU     15.65s WALL (      19 calls)

     Called by init_run:
     wfcinit      :      0.26s CPU      0.27s WALL (       1 calls)
     potinit      :      1.40s CPU      1.95s WALL (       1 calls)
     hinit0       :     16.43s CPU     16.48s WALL (       1 calls)

     Called by electrons:
     c_bands      : 134088.98s CPU 135799.87s WALL (     208 calls)
     sum_band     :  13519.48s CPU  13872.17s WALL (     208 calls)
     v_of_rho     :    103.94s CPU    106.12s WALL (     210 calls)
     newd         :    572.04s CPU    845.53s WALL (     210 calls)
     PAW_pot      :    152.97s CPU    153.02s WALL (     228 calls)
     mix_rho      :     24.10s CPU     24.12s WALL (     208 calls)
     energy_dftd3 :      6.96s CPU      6.94s WALL (      19 calls)

     Called by c_bands:
     init_us_2    :    521.94s CPU    522.12s WALL (    1811 calls)
     init_us_2:cp :    521.93s CPU    522.12s WALL (    1811 calls)
     cegterg      : 132362.76s CPU 133177.58s WALL (     850 calls)

     Called by *egterg:
     cdiaghg      :   8549.34s CPU   8576.64s WALL (   11630 calls)
     h_psi        :  69064.06s CPU  69313.27s WALL (   11770 calls)
     s_psi        :  14360.58s CPU  14412.17s WALL (   11770 calls)
     g_psi        :    127.64s CPU    127.61s WALL (   10920 calls)

     Called by h_psi:
     h_psi:calbec :  14781.94s CPU  14784.77s WALL (   11770 calls)
     vloc_psi     :  39683.53s CPU  39765.62s WALL (   11770 calls)
     add_vuspsi   :  14447.80s CPU  14499.34s WALL (   11770 calls)

     General routines
     calbec       :  20997.58s CPU  21001.45s WALL (   12978 calls)
     fft          :    108.62s CPU    111.24s WALL (    2936 calls)
     ffts         :      5.27s CPU      5.42s WALL (     418 calls)
     fftw         :  32389.46s CPU  32459.18s WALL ( 6246128 calls)
     interpolate  :     10.84s CPU     10.95s WALL (     210 calls)
     davcio       :      0.02s CPU      4.01s WALL (       4 calls)
 
     Parallel routines
 
     PWSCF        :   1d18h 6m CPU   1d18h47m WALL

 
   This run was terminated on:   1:53:11   4Sep2023            

=------------------------------------------------------------------------------=
   JOB DONE.
=------------------------------------------------------------------------------=
Application 11123145 resources: utime ~5487359s, stime ~56197s, Rss ~3507604, inblocks ~0, outblocks ~57019168
