145
Lattice="12.615322175253082 0.0 0.0 -6.307673702948716 10.925197002145726 0.0 0.0 0.0 30.30125956094956" Properties=species:S:1:pos:R:3:forces:R:3 energy=-331395.5687935098 free_energy=-331395.5687935098 pbc="T T T"
Mo       1.57689383       2.73128033       6.08503471      -0.00010670      -0.12059014      -0.09222110
Mo       1.57692032       0.91044023      -6.08723735       0.00000386       0.00004782       0.04898620
Mo      -0.00002397       1.82086659      -0.00094741       0.00029465      -0.00048748       0.00060447
S        0.00000505       0.00000757      -7.65063278      -0.00005476      -0.00002160      -0.08414758
S        1.57689256       0.91043771      -1.56640797      -0.00003780      -0.00000566       0.00057747
S       -0.00002018       1.82085019       4.51935212      -0.01536440      -0.00517769      -0.00434799
S        0.00000505       0.00000631      -4.52222842      -0.00001543      -0.00003085       0.03872518
S        1.57689256       0.91043645       1.56625532      -0.00006736      -0.00000360      -0.00170850
S       -0.00001892       1.82085019       7.65396953       0.03436357       0.02541510       0.00468995
Mo      -0.00002649       5.46257958       6.08503471      -0.10435722       0.06027129      -0.09216736
Mo       0.00000126       3.64173948      -6.08723735       0.00000591       0.00008279       0.04906076
Mo      -1.57692663       4.55215322      -0.00093858      -0.00073096       0.00070320       0.00053582
S       -1.57691401       2.73130682      -7.65063278      -0.00004345      -0.00005631      -0.08415838
S       -0.00002145       3.64173191      -1.56640292      -0.00005708      -0.00006068       0.00076979
S       -1.57694050       4.55214692       4.51935086      -0.01211298      -0.01071044      -0.00440661
S       -1.57691275       2.73130556      -4.52222842      -0.00002211      -0.00002057       0.03874344
S       -0.00002145       3.64173065       1.56625659       0.00102844       0.00051833      -0.00004731
S       -1.57694050       4.55214818       7.65396827       0.03924300       0.01706107       0.00473392
Mo      -1.57694681       8.19388009       6.08503471       0.01436604       0.01646586       0.01042839
Mo      -1.57691779       6.37303873      -6.08723735       0.00002211      -0.00001928       0.04897386
Mo      -3.15385451       7.28345878      -0.00094236       0.00018281      -0.00014604      -0.00021134
S       -3.15383307       5.46260607      -7.65063278       0.00002777      -0.00000231      -0.08411004
S       -1.57693924       6.37302738      -1.56639283       0.00001234       0.00003959       0.00057824
S       -3.15385956       7.28344617       4.51935086       0.00441458      -0.00249448      -0.00322956
S       -3.15383181       5.46260481      -4.52222842       0.00001286      -0.00000360       0.03878201
S       -1.57694176       6.37302864       1.56625280       0.00000489       0.00003214      -0.00162828
S       -3.15385956       7.28344617       7.65396953       0.00609506      -0.00347253      -0.00326273
Mo       3.15381162      -0.00001766       6.08503597       0.02137692       0.00416647       0.01044536
Mo      -3.15383559       9.10433798      -6.08723735      -0.00002725       0.00004037       0.04905202
Mo      -4.73078997      10.01478326      -0.00094741       0.00026919      -0.00006222      -0.00023320
S       -4.73075086       8.19390532      -7.65063278       0.00000180       0.00000103      -0.08411673
S       -3.15386082       9.10433041      -1.56639283       0.00000489       0.00006453       0.00074613
S       -4.73077483      10.01474542       4.51935086       0.00000103       0.00501956      -0.00317840
S       -4.73075086       8.19390406      -4.52222842       0.00003857       0.00001543       0.03877121
S       -3.15386587       9.10433168       1.56624776       0.00019026       0.00009025      -0.00144727
S       -4.73077483      10.01474415       7.65396701      -0.00000437       0.00699571      -0.00326684
Mo       4.73072185       2.73128033       6.08503219      -0.00613234       0.00360057       0.03294869
Mo       4.73075086       0.91044023      -6.08723735      -0.00002854      -0.00003368       0.04891575
Mo       3.15379648       1.82087290      -0.00094615      -0.00000617      -0.00055536       0.00066206
S        3.15383559       0.00000757      -7.65063278       0.00011544      -0.00001234      -0.08411261
S        4.73072311       0.91043392      -1.56639914      -0.00003008      -0.00002494       0.00067157
S        3.15380910       1.82085019       4.51935086       0.01537854      -0.00515069      -0.00439376
S        3.15383559       0.00000631      -4.52222842       0.00003240      -0.00005425       0.03870693
S        4.73072311       0.91043771       1.56625280       0.00027716      -0.00022034      -0.00163934
S        3.15381036       1.82084893       7.65396953      -0.03435842       0.02545289       0.00476811
Mo       3.15380657       5.46257958       6.08503471       0.10434154       0.06034636      -0.09224090
Mo       3.15383181       3.64173948      -6.08723735      -0.00004808      -0.00001080       0.04904765
Mo       1.57688752       4.55217088      -0.00094236       0.00008716      -0.00014552      -0.00135266
S        1.57691653       2.73130682      -7.65063278       0.00004139      -0.00000129      -0.08422934
S        3.15380153       3.64173318      -1.56640419      -0.00001877      -0.00005374       0.00076285
S        1.57689130       4.55214692       4.51935086       0.00001131       0.00002083       0.05055252
S        1.57691779       2.73130556      -4.52222842      -0.00000514      -0.00000051       0.03878098
S        3.15380279       3.64173318       1.56625532      -0.00106752       0.00055947      -0.00005348
S        1.57689130       4.55214692       7.65396827       0.00003008      -0.00002597       0.55835953
Mo       1.57688500       8.19388009       6.08503597       0.00008742      -0.00698543       0.03284199
Mo       1.57691275       6.37303873      -6.08723735      -0.00012444       0.00008433       0.04906230
Mo      -0.00001388       7.28345878      -0.00094110      -0.00082815       0.00022240       0.00061372
S       -0.00000252       5.46260607      -7.65063278      -0.00002854       0.00001157      -0.08416069
S        1.57688752       6.37302864      -1.56640292      -0.00002391       0.00010387       0.00077082
S       -0.00002902       7.28344490       4.51935212       0.00324499       0.01589842      -0.00442024
S       -0.00000126       5.46260481      -4.52222842      -0.00003420       0.00002391       0.03879872
S        1.57689004       6.37302864       1.56625911      -0.00000180      -0.00116985      -0.00008022
S       -0.00002775       7.28344617       7.65396953       0.00488741      -0.04250856       0.00477942
Mo       6.30763964      -0.00001766       6.08503471      -0.00154883      -0.00102484      -0.00053145
Mo      -0.00000505       9.10433798      -6.08723735       0.00005656       0.00000000       0.04896640
Mo      -1.57693924      10.01476939      -0.00093858       0.00030082       0.00014347      -0.00061964
S       -1.57692032       8.19390532      -7.65063278       0.00004037       0.00005399      -0.08417123
S       -0.00003028       9.10432789      -1.56639914       0.00000180      -0.00002160       0.00068571
S       -1.57694807      10.01474668       4.51934834       0.00285855       0.00162828       0.00444647
S       -1.57692032       8.19390406      -4.52222842       0.00001646       0.00001954       0.03879178
S       -0.00002775       9.10433041       1.56625406       0.00002623       0.00033861      -0.00166068
S       -1.57694681      10.01474542       7.65397332       0.00294211       0.00164936      -0.00907085
Mo       7.88455491       2.73128411       6.08503597      -0.00000643       0.00215407      -0.00051705
Mo       7.88458141       0.91044023      -6.08723735       0.00000900       0.00012033       0.04910087
Mo       6.30764216       1.82086406      -0.00094741       0.00023757      -0.00011519      -0.00013704
S        6.30766613       0.00000757      -7.65063278      -0.00001543       0.00001157      -0.08410104
S        7.88455744       0.91043519      -1.56640545       0.00007302      -0.00002108       0.00065717
S        6.30763838       1.82085019       4.51935086      -0.00055536       0.00033836      -0.00206151
S        6.30766613       0.00000631      -4.52222842       0.00002777       0.00000180       0.03876632
S        7.88455618       0.91043519       1.56625532       0.00002417      -0.00004088      -0.00140305
S        6.30763964       1.82084893       7.65396827      -0.00417239       0.00241349       0.00034247
Mo       6.30763712       5.46258084       6.08503724       0.00722506      -0.02066061       0.01043765
Mo       6.30766235       3.64173948      -6.08723735       0.00001543       0.00000309       0.04902734
Mo       4.73070040       4.55216458      -0.00094489       0.00073405       0.00059392       0.00057696
S        4.73074708       2.73130682      -7.65063278       0.00006711      -0.00001517      -0.08420800
S        6.30763333       3.64173444      -1.56639662      -0.00003214       0.00001003       0.00065692
S        4.73072311       4.55214692       4.51935086       0.01208753      -0.01073538      -0.00435596
S        4.73074834       2.73130556      -4.52222842       0.00000746      -0.00002571       0.03875629
S        6.30763207       3.64173318       1.56625028       0.00030030      -0.00020157      -0.00168819
S        4.73072185       4.55214565       7.65396827      -0.03922526       0.01703099       0.00470358
Mo       4.73072059       8.19387883       6.08503471      -0.01438969       0.01639104       0.01046979
Mo       4.73074329       6.37303873      -6.08723735       0.00006633      -0.00001980       0.04900111
Mo       3.15379396       7.28346257      -0.00094363       0.00073122       0.00004962       0.00049879
S        3.15382802       5.46260607      -7.65063278       0.00004037      -0.00001491      -0.08418075
S        4.73071554       6.37302864      -1.56640166      -0.00003702       0.00004654       0.00064098
S        3.15380279       7.28344617       4.51935212      -0.00322673       0.01590536      -0.00431765
S        3.15382928       5.46260481      -4.52222842       0.00001388      -0.00000746       0.03880335
S        4.73071680       6.37302990       1.56625280      -0.00002160       0.00005502      -0.00176660
S        3.15380279       7.28344490       7.65396827      -0.00486041      -0.04251756       0.00471900
Mo       9.46147271      -0.00001514       6.08503724       0.00157146      -0.00098730      -0.00049031
Mo       3.15382550       9.10433798      -6.08723735      -0.00017509      -0.00007328       0.04898389
Mo       1.57689004      10.01476812      -0.00094867      -0.00024246       0.00026200      -0.00010542
S        1.57691023       8.19390532      -7.65063278       0.00002443       0.00005116      -0.08410875
S        3.15380153       9.10432789      -1.56640545       0.00000540       0.00004217       0.00070474
S        1.57688373      10.01474668       4.51934960       0.00001491      -0.00069985      -0.00198901
S        1.57691023       8.19390406      -4.52222842      -0.00000334       0.00003471       0.03863160
S        3.15380027       9.10432915       1.56625532       0.00005399       0.00038772      -0.00173138
S        1.57688247      10.01474668       7.65397332       0.00001748      -0.00483753       0.00029362
Mo      -1.57693672       2.73128285       6.08503471       0.00619662       0.00345376       0.03293018
Mo      11.03841195       0.91044023      -6.08723735      -0.00010259       0.00011030       0.04887410
Mo       9.46147775       1.82085650      -0.00094489      -0.00053093       0.00011261      -0.00022163
S        9.46149668       0.00000757      -7.65063278       0.00001697       0.00003831      -0.08411647
S       11.03838672       0.91043519      -1.56640797      -0.00000797      -0.00003548       0.00064252
S        9.46147019       1.82085019       4.51935212       0.00063969       0.00033244      -0.00211139
S        9.46149668       0.00000631      -4.52222842      -0.00001903      -0.00000926       0.03875192
S       11.03838798       0.91043519       1.56625659      -0.00028514      -0.00025505      -0.00157583
S        9.46147019       1.82085145       7.65396827       0.00419810       0.00236824       0.00034299
Mo      -3.15385451       5.46258210       6.08503345      -0.00727005      -0.02082054       0.01049370
Mo       9.46149289       3.64173948      -6.08723735      -0.00010156      -0.00005785       0.04892861
Mo       7.88454861       4.55215953      -0.00094236       0.00003728      -0.00029465      -0.00049854
S        7.88457762       2.73130682      -7.65063278       0.00003240      -0.00003985      -0.08406890
S        9.46147019       3.64173065      -1.56639535       0.00001543      -0.00001646       0.00069805
S        7.88455113       4.55214944       4.51935086       0.00003677      -0.00332392       0.00455548
S        7.88457888       2.73130556      -4.52222842       0.00001568      -0.00002828       0.03871850
S        9.46146766       3.64173065       1.56625154      -0.00027562      -0.00024246      -0.00158200
S        7.88455365       4.55214818       7.65397079       0.00002443      -0.00336532      -0.00919632
Mo      -4.73077231       8.19388009       6.08503471      -0.00013627      -0.00004988      -0.00056179
Mo       7.88457384       6.37303873      -6.08723735      -0.00009873      -0.00001877       0.04895329
Mo       6.30762198       7.28346761      -0.00094867      -0.00015607      -0.00037204      -0.00021032
S        6.30765856       5.46260607      -7.65063278       0.00003651      -0.00001080      -0.08410773
S        7.88454861       6.37302990      -1.56639409       0.00002108      -0.00001748       0.00073842
S        6.30763586       7.28344490       4.51935212      -0.00434182      -0.00245849      -0.00319999
S        6.30765983       5.46260481      -4.52222842       0.00003188      -0.00000154       0.03872313
S        7.88454482       6.37303116       1.56624776       0.00001260      -0.00019078      -0.00148147
S        6.30763712       7.28344490       7.65396953      -0.00608529      -0.00344065      -0.00334346
Mo      -0.00001514      -0.00001640       6.08503471      -0.02151808       0.00420632       0.01055129
Mo       6.30765604       9.10433798      -6.08723735       0.00007328      -0.00007713       0.04891112
Mo       4.73070671      10.01477443      -0.00094489      -0.00024477      -0.00007945      -0.00050651
S        4.73074077       8.19390532      -7.65063278       0.00001311       0.00006248      -0.08413601
S        6.30762703       9.10433168      -1.56640166      -0.00003394       0.00011133       0.00076799
S        4.73071554      10.01474668       4.51935086      -0.00281947       0.00167327       0.00449480
S        4.73074077       8.19390406      -4.52222842      -0.00000746       0.00005656       0.03874215
S        6.30762829       9.10433168       1.56625028      -0.00029979       0.00016506      -0.00148301
S        4.73071554      10.01474542       7.65397079      -0.00289121       0.00171493      -0.00916393
Pd       1.57699979       4.55200058       9.85399972      -0.00001234       0.00004885      -0.49121620
145
Lattice="12.615322175253082 0.0 0.0 -6.307673702948716 10.925197002145726 0.0 0.0 0.0 30.30125956094956" Properties=species:S:1:pos:R:3:forces:R:3 energy=-331395.57814647065 free_energy=-331395.57814647065 pbc="T T T"
Mo       1.57689181       2.72879861       6.08313632       0.00006865      -0.01870040       0.00708493
Mo       1.57691975       0.91044071      -6.08723678      -0.00002751      -0.00003162       0.04863524
Mo      -0.00001728       1.82085695      -0.00093461      -0.00219367       0.00324550      -0.00387979
S        0.00000445       0.00000775      -7.65063236      -0.00000591      -0.00001517      -0.08474227
S        1.57689200       0.91043767      -1.56639574       0.00005425       0.00017638      -0.00115700
S       -0.00033693       1.82074417       4.51926262      -0.02166180      -0.01244260      -0.01331420
S        0.00000532       0.00000685      -4.52222824       0.00000026      -0.00003780       0.03862491
S        1.57689085       0.91043680       1.56622039       0.00002597      -0.00041806       0.00100916
S        0.00068801       1.82137342       7.65406592       0.03009219       0.01588916       0.00001466
Mo      -0.00217481       5.46382054       6.08313799      -0.01613753       0.00933773       0.00699957
Mo       0.00000118       3.64173995      -6.08723678      -0.00001748      -0.00002725       0.04859899
Mo      -1.57694212       4.55216760      -0.00092711       0.00437216      -0.00425158      -0.00294983
S       -1.57691412       2.73130699      -7.65063236      -0.00001748      -0.00003780      -0.08471656
S       -0.00002276       3.64173085      -1.56638693      -0.00063532      -0.00026380      -0.00070680
S       -1.57718967       4.55192696       4.51926037      -0.02155639      -0.01257269      -0.01324864
S       -1.57691325       2.73130609      -4.52222824      -0.00000334      -0.00003522       0.03860948
S       -0.00000028       3.64174101       1.56625604      -0.00002468       0.00011724       0.00029645
S       -1.57613290       4.55249878       7.65406560       0.02882952       0.01807974      -0.00002005
Mo      -1.57665062       8.19421836       6.08524956       0.00906751       0.00821493       0.00601072
Mo      -1.57691739       6.37303920      -6.08723678       0.00000180       0.00001311       0.04860671
Mo      -3.15385121       7.28345593      -0.00094609      -0.00107241       0.00110403       0.00104181
S       -3.15383269       5.46260624      -7.65063236       0.00003780      -0.00001491      -0.08476464
S       -1.57693912       6.37302775      -1.56638062       0.00018358      -0.00014475      -0.00122359
S       -3.15376913       7.28339502       4.51928432       0.00379958      -0.00222812       0.00130458
S       -3.15383182       5.46260533      -4.52222824       0.00000309       0.00000411       0.03867351
S       -1.57694114       6.37302885       1.56621947      -0.00023783       0.00009873       0.00102227
S       -3.15373395       7.28337425       7.65390266       0.00515712      -0.00301950      -0.00171544
Mo       3.15425141       0.00006866       6.08525158       0.01171780       0.00368696       0.00590608
Mo      -3.15383596       9.10433844      -6.08723678       0.00000437       0.00000977       0.04862959
Mo      -4.73078414      10.01478245      -0.00095179      -0.00171595       0.00031342       0.00127732
S       -4.73075126       8.19390548      -7.65063236       0.00001028      -0.00001106      -0.08475102
S       -3.15386067       9.10433200      -1.56637756      -0.00003060      -0.00017715      -0.00134263
S       -4.73077448      10.01484880       4.51928576      -0.00003754       0.00439839       0.00122847
S       -4.73075039       8.19390457      -4.52222824       0.00001286       0.00000154       0.03870899
S       -3.15386161       9.10433356       1.56621858      -0.00003342      -0.00003008       0.00088343
S       -4.73077490      10.01488862       7.65390040      -0.00005374       0.00598244      -0.00162725
Mo       4.73059626       2.73135486       6.08571087      -0.00924569       0.00538338       0.02077528
Mo       4.73075032       0.91044071      -6.08723678      -0.00009076      -0.00001825       0.04860388
Mo       3.15379577       1.82086093      -0.00093203       0.00045509       0.00365122      -0.00430506
S        3.15383502       0.00000775      -7.65063236       0.00003034      -0.00003008      -0.08473533
S        4.73072247       0.91043376      -1.56638543      -0.00012470       0.00032524      -0.00123696
S        3.15412615       1.82074356       4.51925991       0.02156873      -0.01240866      -0.01324067
S        3.15383590       0.00000685      -4.52222824      -0.00000566      -0.00005476       0.03865551
S        4.73072824       0.91043322       1.56621933       0.00015272      -0.00014372       0.00085926
S        3.15310273       1.82137327       7.65406813      -0.03009142       0.01591024      -0.00004679
Mo       3.15595367       5.46382137       6.08313561       0.01630902       0.00938581       0.00709136
Mo       3.15383175       3.64173995      -6.08723678      -0.00002263      -0.00002623       0.04856917
Mo       1.57688974       4.55216735      -0.00097038      -0.00056256       0.00075410       0.00629252
S        1.57691645       2.73130699      -7.65063236       0.00001131      -0.00003548      -0.08479370
S        3.15380157       3.64173225      -1.56638788       0.00069188      -0.00031753      -0.00072454
S        1.57689157       4.55214721       4.52039189      -0.00000231      -0.00004988       0.05818021
S        1.57691733       2.73130609      -4.52222824      -0.00001003      -0.00002880       0.03870513
S        3.15378051       3.64174428       1.56625455       0.00005939       0.00006016       0.00033604
S        1.57689225       4.55214637       7.66546025       0.00004319      -0.00005836       0.14605589
Mo       1.57688672       8.19373621       6.08571210       0.00006608      -0.01081020       0.02079560
Mo       1.57691318       6.37303920      -6.08723678      -0.00002314      -0.00001646       0.04857457
Mo      -0.00003086       7.28346390      -0.00092789       0.00506970      -0.00126241      -0.00351547
S       -0.00000212       5.46260624      -7.65063236      -0.00002777      -0.00001337      -0.08479935
S        1.57688763       6.37303114      -1.56638738      -0.00002340       0.00059675      -0.00072402
S        0.00003810       7.28377273       4.51926054       0.00005965       0.02484868      -0.01322730
S       -0.00000124       5.46260533      -4.52222824      -0.00001363      -0.00000360       0.03873290
S        1.57688960       6.37300468       1.56625789       0.00000463      -0.00000489       0.00025634
S        0.00007221       7.28257065       7.65406818      -0.00127141      -0.03400207      -0.00010362
Mo       6.30760827      -0.00003909       6.08502376      -0.00147761      -0.00077776      -0.00118554
Mo      -0.00000539       9.10433844      -6.08723678      -0.00003548      -0.00005091       0.04861853
Mo      -1.57693332      10.01477203      -0.00095109      -0.00226643      -0.00117011       0.00305678
S       -1.57692069       8.19390548      -7.65063236       0.00001003      -0.00000103      -0.08475693
S       -0.00002967       9.10432764      -1.56638463       0.00017792      -0.00026559      -0.00125393
S       -1.57688949      10.01478074       4.51943988       0.00374044       0.00214764       0.00338589
S       -1.57691981       8.19390457      -4.52222824      -0.00001723       0.00001157       0.03865885
S       -0.00002680       9.10433712       1.56622043      -0.00007071       0.00014990       0.00086081
S       -1.57688612      10.01477941       7.65378609       0.00464495       0.00265878      -0.00266289
Mo       7.88455438       2.73132791       6.08502503       0.00007816       0.00167790      -0.00131846
Mo       7.88458089       0.91044071      -6.08723678       0.00000411      -0.00002237       0.04858974
Mo       6.30764728       1.82086222      -0.00094971      -0.00175272       0.00079396      -0.00006891
S        6.30766559       0.00000775      -7.65063236      -0.00002134      -0.00002211      -0.08475333
S        7.88455920       0.91043465      -1.56639177      -0.00011261      -0.00002828      -0.00111200
S        6.30762748       1.82085711       4.51930833      -0.00252842       0.00144522       0.00172367
S        6.30766647       0.00000685      -4.52222824      -0.00002314      -0.00003831       0.03866322
S        7.88455664       0.91043388       1.56622674       0.00001363      -0.00001234       0.00156426
S        6.30755398       1.82089898       7.65397583      -0.00295548       0.00168484       0.00375947
Mo       6.30778586       5.46215540       6.08525235       0.00264669      -0.01193326       0.00595750
Mo       6.30766232       3.64173995      -6.08723678      -0.00006171       0.00001774       0.04856094
Mo       4.73071551       4.55217660      -0.00093260      -0.00427832      -0.00383686      -0.00325399
S        4.73074702       2.73130699      -7.65063236       0.00003574      -0.00002674      -0.08475230
S        6.30763264       3.64173451      -1.56638353      -0.00023654      -0.00004679      -0.00125624
S        4.73097179       4.55192613       4.51926135       0.02156898      -0.01252050      -0.01327461
S        4.73074790       2.73130609      -4.52222824      -0.00000309      -0.00003625       0.03862620
S        6.30763794       3.64172964       1.56621574       0.00015632      -0.00005451       0.00092200
S        4.72991489       4.55249567       7.65406497      -0.02883081       0.01813322       0.00002494
Mo       4.73042397       8.19421667       6.08525070      -0.00905285       0.00842319       0.00599916
Mo       4.73074375       6.37303920      -6.08723678      -0.00000463       0.00002545       0.04859436
Mo       3.15380893       7.28346313      -0.00093311      -0.00477480      -0.00018101      -0.00295008
S        3.15382845       5.46260624      -7.65063236       0.00003188      -0.00001928      -0.08478136
S        4.73071475       6.37303020      -1.56638891      -0.00016249      -0.00015555      -0.00129121
S        3.15373665       7.28377291       4.51926280      -0.00005194       0.02492556      -0.01332474
S        3.15382933       5.46260533      -4.52222824       0.00000360      -0.00001286       0.03871747
S        4.73071627       6.37303094       1.56621632       0.00023423       0.00011416       0.00103101
S        3.15370336       7.28256998       7.65406540       0.00129455      -0.03401312      -0.00000823
Mo       9.46150543      -0.00003558       6.08502728       0.00178512      -0.00098268      -0.00136371
Mo       3.15382518       9.10433844      -6.08723678       0.00002751      -0.00004011       0.04862008
Mo       1.57688520      10.01477380      -0.00095069       0.00158097      -0.00194941      -0.00002597
S        1.57690988       8.19390548      -7.65063236       0.00000746       0.00002031      -0.08472068
S        3.15380106       9.10432895      -1.56639053      -0.00023911      -0.00030493      -0.00120842
S        1.57688383      10.01473255       4.51930895       0.00003162      -0.00295445       0.00165399
S        1.57691076       8.19390457      -4.52222824       0.00000309       0.00000823       0.03864291
S        3.15380113       9.10433712       1.56621947      -0.00008330       0.00008613       0.00084152
S        1.57688340      10.01464735       7.65397889       0.00002391      -0.00342548       0.00376050
Mo      -1.57680881       2.73135371       6.08571214       0.00934493       0.00541526       0.02082311
Mo      11.03841147       0.91044071      -6.08723678       0.00005811      -0.00000874       0.04861853
Mo       9.46146623       1.82085856      -0.00094903       0.00362834      -0.00063326       0.00067054
S        9.46149617       0.00000775      -7.65063236       0.00001028      -0.00000540      -0.08476490
S       11.03838716       0.91043427      -1.56639468       0.00018409       0.00031213      -0.00100633
S        9.46148309       1.82085747       4.51930899       0.00254745       0.00144573       0.00170464
S        9.46149704       0.00000685      -4.52222824       0.00002237      -0.00004808       0.03863828
S       11.03838236       0.91042968       1.56622473      -0.00016686      -0.00004577       0.00065255
S        9.46155658       1.82090015       7.65397593       0.00287706       0.00163522       0.00374198
Mo      -3.15400446       5.46215393       6.08524940      -0.00264669      -0.01195306       0.00599710
Mo       9.46149290       3.64173995      -6.08723678       0.00006916       0.00002288       0.04857791
Mo       7.88454955       4.55215370      -0.00095253      -0.00017432       0.00213093       0.00221912
S        7.88457760       2.73130699      -7.65063236       0.00001003      -0.00002237      -0.08476130
S        9.46147043       3.64173068      -1.56638101       0.00028411       0.00003034      -0.00126910
S        7.88455137       4.55208046       4.51944437      -0.00001208      -0.00440867       0.00344939
S        7.88457847       2.73130609      -4.52222824       0.00000566       0.00000000       0.03865911
S        9.46146184       3.64172553       1.56621938      -0.00013884      -0.00003317       0.00082481
S        7.88455392       4.55207899       7.65378114       0.00001183      -0.00542426      -0.00270223
Mo      -4.73077509       8.19387942       6.08502293       0.00010876      -0.00000514      -0.00166505
Mo       7.88457433       6.37303920      -6.08723678      -0.00000437       0.00001003       0.04856120
Mo       6.30761818       7.28346011      -0.00095262       0.00107961       0.00257496       0.00111894
S        6.30765903       5.46260624      -7.65063236       0.00000900      -0.00001877      -0.08477081
S        7.88454916       6.37302950      -1.56637900      -0.00001337       0.00008510      -0.00136011
S        6.30754622       7.28339386       4.51928652      -0.00383917      -0.00221783       0.00129352
S        6.30765990       5.46260533      -4.52222824       0.00000874       0.00001388       0.03868945
S        7.88454562       6.37302681       1.56621739      -0.00001311       0.00007688       0.00100967
S        6.30751157       7.28337431       7.65390080      -0.00515146      -0.00296191      -0.00168407
Mo      -0.00045825       0.00007022       6.08525211      -0.01185536       0.00362988       0.00590660