
     Program PWSCF v.7.2 starts on  8Apr2024 at 14:41:30 

     This program is part of the open-source Quantum ESPRESSO suite
     for quantum simulation of materials; please cite
         "P. Giannozzi et al., J. Phys.:Condens. Matter 21 395502 (2009);
         "P. Giannozzi et al., J. Phys.:Condens. Matter 29 465901 (2017);
         "P. Giannozzi et al., J. Chem. Phys. 152 154105 (2020);
          URL http://www.quantum-espresso.org", 
     in publications or presentations arising from this work. More details at
     http://www.quantum-espresso.org/quote

     Parallel version (MPI), running on    36 processors

     MPI processes distributed on     1 nodes
     766644 MiB available memory on the printing compute node when the environment starts
 
     Waiting for input...
     Reading input from standard input
Warning: card &CELL ignored
Warning: card / ignored

     Current dimensions of program PWSCF are:
     Max number of different atomic species (ntypx) = 10
     Max number of k-points (npk) =  40000
     Max angular momentum in pseudopotentials (lmaxx) =  4
     file Mo.pbe-spn-kjpaw_psl.1.0.0.UPF: wavefunction(s)  4S 4D renormalized
     file C.pbe-n-kjpaw_psl.1.0.0.UPF: wavefunction(s)  2S 2P renormalized
     Found identity + (  0.0000 -0.5000  0.0000) symmetry
     This is a supercell, fractional translations are disabled
 
     R & G space division:  proc/nbgrp/npool/nimage =      36
     Subspace diagonalization in iterative solution of the eigenvalue problem:
     one sub-group per band group will be used
     custom distributed-memory algorithm (size of sub-group:  6*  6 procs)

 
     Parallelization info
     --------------------
     sticks:   dense  smooth     PW     G-vecs:    dense   smooth      PW
     Min         531     303     79               115215    49767    6677
     Max         532     304     80               115224    49780    6684
     Sum       19129   10931   2861              4147881  1791799  240489
 
     Using Slab Decomposition
 


     bravais-lattice index     =            0
     lattice parameter (alat)  =      22.7468  a.u.
     unit-cell volume          =   19629.3349 (a.u.)^3
     number of atoms/cell      =           96
     number of atomic types    =            2
     number of electrons       =      1024.00
     number of Kohn-Sham states=          614
     kinetic-energy cutoff     =      77.0000  Ry
     charge density cutoff     =     539.0000  Ry
     scf convergence threshold =      1.0E-06
     mixing beta               =       0.2000
     number of iterations used =            8  plain     mixing
     energy convergence thresh.=      1.0E-04
     force convergence thresh. =      1.0E-03
     Exchange-correlation= SLA  PW   PBX  PBC
                           (   1   4   3   4   0   0   0)
     nstep                     =         1000


     Effective Screening Medium Method
     =================================
     Boundary Conditions: Vacuum-Slab-Vacuum
     total charge in unit cell        =   0.0000
     grid points for fit at edges     =        4 
 

     celldm(1)=  22.746779  celldm(2)=   0.000000  celldm(3)=   0.000000
     celldm(4)=   0.000000  celldm(5)=   0.000000  celldm(6)=   0.000000

     crystal axes: (cart. coord. in units of alat)
               a(1) = (   1.000000   0.000000   0.000000 )  
               a(2) = (  -0.000001   0.862478   0.000000 )  
               a(3) = (   0.000000   0.000000   1.933739 )  

     reciprocal axes: (cart. coord. in units 2 pi/alat)
               b(1) = (  1.000000  0.000001  0.000000 )  
               b(2) = (  0.000000  1.159450  0.000000 )  
               b(3) = (  0.000000  0.000000  0.517133 )  


     PseudoPot. # 1 for Mo read from file:
     ./pseudo/Mo.pbe-spn-kjpaw_psl.1.0.0.UPF
     MD5 check sum: 317bf72632116215fd98f72de1686f13
     Pseudo is Projector augmented-wave + core cor, Zval = 14.0
     Generated using 'atomic' code by A. Dal Corso  v.7.2
     Shape of augmentation charge: PSQ
     Using radial grid of 1229 points,  6 beta functions with: 
                l(1) =   0
                l(2) =   0
                l(3) =   1
                l(4) =   1
                l(5) =   2
                l(6) =   2
     Q(r) pseudized with 0 coefficients 


     PseudoPot. # 2 for C  read from file:
     ./pseudo/C.pbe-n-kjpaw_psl.1.0.0.UPF
     MD5 check sum: 6b0792899573946bb42fe395835041da
     Pseudo is Projector augmented-wave + core cor, Zval =  4.0
     Generated using 'atomic' code by A. Dal Corso  v.7.2
     Shape of augmentation charge: PSQ
     Using radial grid of 1073 points,  4 beta functions with: 
                l(1) =   0
                l(2) =   0
                l(3) =   1
                l(4) =   1
     Q(r) pseudized with 0 coefficients 


     atomic species   valence    mass     pseudopotential
        Mo            14.00    95.95000     Mo( 1.00)
        C              4.00    12.01100     C ( 1.00)

     No symmetry found



   Cartesian axes

     site n.     atom                  positions (alat units)
         1           Mo  tau(   1) = (   0.0614122   0.3970395   0.3437944  )
         2           Mo  tau(   2) = (   0.4385838   0.0341984   0.1445705  )
         3           Mo  tau(   3) = (   0.1885855   0.1814210   0.3405634  )
         4           Mo  tau(   4) = (   0.3114153   0.2498181   0.1478033  )
         5           Mo  tau(   5) = (   0.1885854   0.0341989   0.1478023  )
         6           Mo  tau(   6) = (   0.3114154   0.3970400   0.3405622  )
         7           Mo  tau(   7) = (   0.0614122   0.2498182   0.1445713  )
         8           Mo  tau(   8) = (   0.4385840   0.1814216   0.3437948  )
         9           C   tau(   9) = (   0.1887289   0.3234299   0.0481907  )
        10           C   tau(  10) = (   0.3112712   0.1078086   0.0481900  )
        11           C   tau(  11) = (   0.0612687   0.1078093   0.2441830  )
        12           C   tau(  12) = (   0.4387281   0.3234301   0.2441826  )
        13           Mo  tau(  13) = (   0.0614116   0.3970395  -0.0481903  )
        14           Mo  tau(  14) = (   0.4385833   0.0341984  -0.2474142  )
        15           Mo  tau(  15) = (   0.1885850   0.1814210  -0.0514213  )
        16           Mo  tau(  16) = (   0.3114148   0.2498181  -0.2441814  )
        17           Mo  tau(  17) = (   0.1885849   0.0341989  -0.2441824  )
        18           Mo  tau(  18) = (   0.3114149   0.3970400  -0.0514225  )
        19           Mo  tau(  19) = (   0.0614117   0.2498182  -0.2474134  )
        20           Mo  tau(  20) = (   0.4385835   0.1814216  -0.0481900  )
        21           C   tau(  21) = (   0.1887283   0.3234299  -0.3437940  )
        22           C   tau(  22) = (   0.3112707   0.1078086  -0.3437948  )
        23           C   tau(  23) = (   0.0612682   0.1078093  -0.1478017  )
        24           C   tau(  24) = (   0.4387276   0.3234301  -0.1478021  )
        25           Mo  tau(  25) = (   0.0614118   0.8282784   0.3437944  )
        26           Mo  tau(  26) = (   0.4385835   0.4654373   0.1445705  )
        27           Mo  tau(  27) = (   0.1885852   0.6126599   0.3405634  )
        28           Mo  tau(  28) = (   0.3114149   0.6810570   0.1478033  )
        29           Mo  tau(  29) = (   0.1885850   0.4654378   0.1478023  )
        30           Mo  tau(  30) = (   0.3114151   0.8282790   0.3405622  )
        31           Mo  tau(  31) = (   0.0614119   0.6810571   0.1445713  )
        32           Mo  tau(  32) = (   0.4385837   0.6126605   0.3437948  )
        33           C   tau(  33) = (   0.1887285   0.7546688   0.0481907  )
        34           C   tau(  34) = (   0.3112709   0.5390475   0.0481900  )
        35           C   tau(  35) = (   0.0612684   0.5390482   0.2441830  )
        36           C   tau(  36) = (   0.4387278   0.7546690   0.2441826  )
        37           Mo  tau(  37) = (   0.0614113   0.8282784  -0.0481903  )
        38           Mo  tau(  38) = (   0.4385830   0.4654373  -0.2474142  )
        39           Mo  tau(  39) = (   0.1885847   0.6126599  -0.0514213  )
        40           Mo  tau(  40) = (   0.3114144   0.6810570  -0.2441814  )
        41           Mo  tau(  41) = (   0.1885845   0.4654378  -0.2441824  )
        42           Mo  tau(  42) = (   0.3114146   0.8282790  -0.0514225  )
        43           Mo  tau(  43) = (   0.0614114   0.6810571  -0.2474134  )
        44           Mo  tau(  44) = (   0.4385832   0.6126605  -0.0481900  )
        45           C   tau(  45) = (   0.1887280   0.7546688  -0.3437940  )
        46           C   tau(  46) = (   0.3112704   0.5390476  -0.3437948  )
        47           C   tau(  47) = (   0.0612679   0.5390482  -0.1478017  )
        48           C   tau(  48) = (   0.4387273   0.7546690  -0.1478021  )
        49           Mo  tau(  49) = (   0.5614122   0.3970395   0.3437944  )
        50           Mo  tau(  50) = (   0.9385838   0.0341984   0.1445705  )
        51           Mo  tau(  51) = (   0.6885855   0.1814210   0.3405634  )
        52           Mo  tau(  52) = (   0.8114153   0.2498181   0.1478033  )
        53           Mo  tau(  53) = (   0.6885854   0.0341989   0.1478023  )
        54           Mo  tau(  54) = (   0.8114154   0.3970400   0.3405622  )
        55           Mo  tau(  55) = (   0.5614122   0.2498182   0.1445713  )
        56           Mo  tau(  56) = (   0.9385840   0.1814216   0.3437948  )
        57           C   tau(  57) = (   0.6887289   0.3234299   0.0481907  )
        58           C   tau(  58) = (   0.8112712   0.1078086   0.0481900  )
        59           C   tau(  59) = (   0.5612687   0.1078093   0.2441830  )
        60           C   tau(  60) = (   0.9387281   0.3234301   0.2441826  )
        61           Mo  tau(  61) = (   0.5614116   0.3970395  -0.0481903  )
        62           Mo  tau(  62) = (   0.9385833   0.0341984  -0.2474142  )
        63           Mo  tau(  63) = (   0.6885850   0.1814210  -0.0514213  )
        64           Mo  tau(  64) = (   0.8114148   0.2498181  -0.2441814  )
        65           Mo  tau(  65) = (   0.6885849   0.0341989  -0.2441824  )
        66           Mo  tau(  66) = (   0.8114149   0.3970400  -0.0514225  )
        67           Mo  tau(  67) = (   0.5614117   0.2498182  -0.2474134  )
        68           Mo  tau(  68) = (   0.9385835   0.1814216  -0.0481900  )
        69           C   tau(  69) = (   0.6887283   0.3234299  -0.3437940  )
        70           C   tau(  70) = (   0.8112707   0.1078086  -0.3437948  )
        71           C   tau(  71) = (   0.5612682   0.1078093  -0.1478017  )
        72           C   tau(  72) = (   0.9387276   0.3234301  -0.1478021  )
        73           Mo  tau(  73) = (   0.5614118   0.8282784   0.3437944  )
        74           Mo  tau(  74) = (   0.9385835   0.4654373   0.1445705  )
        75           Mo  tau(  75) = (   0.6885852   0.6126599   0.3405634  )
        76           Mo  tau(  76) = (   0.8114149   0.6810570   0.1478033  )
        77           Mo  tau(  77) = (   0.6885850   0.4654378   0.1478023  )
        78           Mo  tau(  78) = (   0.8114151   0.8282790   0.3405622  )
        79           Mo  tau(  79) = (   0.5614119   0.6810571   0.1445713  )
        80           Mo  tau(  80) = (   0.9385837   0.6126605   0.3437948  )
        81           C   tau(  81) = (   0.6887285   0.7546688   0.0481907  )
        82           C   tau(  82) = (   0.8112709   0.5390475   0.0481900  )
        83           C   tau(  83) = (   0.5612684   0.5390482   0.2441830  )
        84           C   tau(  84) = (   0.9387278   0.7546690   0.2441826  )
        85           Mo  tau(  85) = (   0.5614113   0.8282784  -0.0481903  )
        86           Mo  tau(  86) = (   0.9385830   0.4654373  -0.2474142  )
        87           Mo  tau(  87) = (   0.6885847   0.6126599  -0.0514213  )
        88           Mo  tau(  88) = (   0.8114144   0.6810570  -0.2441814  )
        89           Mo  tau(  89) = (   0.6885845   0.4654378  -0.2441824  )
        90           Mo  tau(  90) = (   0.8114146   0.8282790  -0.0514225  )
        91           Mo  tau(  91) = (   0.5614114   0.6810571  -0.2474134  )
        92           Mo  tau(  92) = (   0.9385832   0.6126605  -0.0481900  )
        93           C   tau(  93) = (   0.6887280   0.7546688  -0.3437940  )
        94           C   tau(  94) = (   0.8112704   0.5390476  -0.3437948  )
        95           C   tau(  95) = (   0.5612679   0.5390482  -0.1478017  )
        96           C   tau(  96) = (   0.9387273   0.7546690  -0.1478021  )

     --------------------------------------------
     DFT-D3 Dispersion Correction (3-body terms):
     --------------------------------------------
       Reference C6 values for interpolation: 

         atom   Coordination number   C6
         C          0.000            98.23
         C          0.987            86.49
         C          1.998            58.72
         C          2.999            51.56
         C          3.984            36.41
         Mo         0.000          1691.79
         Mo         1.942          1004.01
         Mo        11.056           674.22

       Values used:

         atom   Coordination number  R0_AB[au]  C6      C8
         Mo         9.785            3.547    674.22  77634.20
         Mo        13.623            3.547    674.22  77634.20
         Mo         8.899            3.547    674.22  77634.20
         Mo        13.617            3.547    674.22  77634.20
         Mo        13.617            3.547    674.22  77634.20
         Mo         8.899            3.547    674.22  77634.20
         Mo        13.623            3.547    674.22  77634.20
         Mo         9.785            3.547    674.22  77634.20
         C          6.052            2.750     36.41   1053.14
         C          6.052            2.750     36.41   1053.14
         C          6.032            2.750     36.41   1053.14
         C          6.032            2.750     36.41   1053.14
         Mo        13.630            3.547    674.22  77634.20
         Mo        10.797            3.547    674.22  77634.20
         Mo        13.629            3.547    674.22  77634.20
         Mo        10.885            3.547    674.22  77634.20
         Mo        10.885            3.547    674.22  77634.20
         Mo        13.629            3.547    674.22  77634.20
         Mo        10.797            3.547    674.22  77634.20
         Mo        13.630            3.547    674.22  77634.20
         C          3.033            2.750     51.21   1481.21
         C          3.033            2.750     51.21   1481.21
         C          6.034            2.750     36.41   1053.14
         C          6.034            2.750     36.41   1053.14
         Mo         9.785            3.547    674.22  77634.20
         Mo        13.623            3.547    674.22  77634.20
         Mo         8.899            3.547    674.22  77634.20
         Mo        13.617            3.547    674.22  77634.20
         Mo        13.617            3.547    674.22  77634.20
         Mo         8.899            3.547    674.22  77634.20
         Mo        13.623            3.547    674.22  77634.20
         Mo         9.785            3.547    674.22  77634.20
         C          6.052            2.750     36.41   1053.14
         C          6.052            2.750     36.41   1053.14
         C          6.032            2.750     36.41   1053.14
         C          6.032            2.750     36.41   1053.14
         Mo        13.630            3.547    674.22  77634.20
         Mo        10.797            3.547    674.22  77634.20
         Mo        13.629            3.547    674.22  77634.20
         Mo        10.885            3.547    674.22  77634.20
         Mo        10.885            3.547    674.22  77634.20
         Mo        13.629            3.547    674.22  77634.20
         Mo        10.797            3.547    674.22  77634.20
         Mo        13.630            3.547    674.22  77634.20
         C          3.033            2.750     51.21   1481.21
         C          3.033            2.750     51.21   1481.21
         C          6.034            2.750     36.41   1053.14
         C          6.034            2.750     36.41   1053.14
         Mo         9.785            3.547    674.22  77634.20
         Mo        13.623            3.547    674.22  77634.20
         Mo         8.899            3.547    674.22  77634.20
         Mo        13.617            3.547    674.22  77634.20
         Mo        13.617            3.547    674.22  77634.20
         Mo         8.899            3.547    674.22  77634.20
         Mo        13.623            3.547    674.21  77634.20
         Mo         9.785            3.547    674.22  77634.20
         C          6.052            2.750     36.41   1053.14
         C          6.052            2.750     36.41   1053.14
         C          6.032            2.750     36.41   1053.14
         C          6.032            2.750     36.41   1053.14
         Mo        13.630            3.547    674.22  77634.20
         Mo        10.797            3.547    674.22  77634.20
         Mo        13.629            3.547    674.22  77634.20
         Mo        10.885            3.547    674.22  77634.20
         Mo        10.885            3.547    674.22  77634.20
         Mo        13.629            3.547    674.22  77634.20
         Mo        10.797            3.547    674.22  77634.20
         Mo        13.630            3.547    674.22  77634.20
         C          3.033            2.750     51.21   1481.21
         C          3.033            2.750     51.21   1481.21
         C          6.034            2.750     36.41   1053.14
         C          6.034            2.750     36.41   1053.14
         Mo         9.785            3.547    674.22  77634.20
         Mo        13.623            3.547    674.22  77634.20
         Mo         8.899            3.547    674.22  77634.20
         Mo        13.617            3.547    674.22  77634.20
         Mo        13.617            3.547    674.22  77634.20
         Mo         8.899            3.547    674.22  77634.20
         Mo        13.623            3.547    674.22  77634.20
         Mo         9.785            3.547    674.22  77634.20
         C          6.052            2.750     36.41   1053.14
         C          6.052            2.750     36.41   1053.14
         C          6.032            2.750     36.41   1053.14
         C          6.032            2.750     36.41   1053.14
         Mo        13.630            3.547    674.22  77634.20
         Mo        10.797            3.547    674.22  77634.20
         Mo        13.629            3.547    674.22  77634.20
         Mo        10.885            3.547    674.22  77634.20
         Mo        10.885            3.547    674.22  77634.20
         Mo        13.629            3.547    674.22  77634.20
         Mo        10.797            3.547    674.22  77634.20
         Mo        13.630            3.547    674.22  77634.20
         C          3.033            2.750     51.21   1481.21
         C          3.033            2.750     51.21   1481.21
         C          6.034            2.750     36.41   1053.14
         C          6.034            2.750     36.41   1053.14

         Molecular C6 ( Ry / a.u.^6 ) =   3460598.38


     number of k points=     4  Gaussian smearing, width (Ry)=  0.0100
                       cart. coord. in units 2pi/alat
        k(    1) = (   0.0000000   0.0000000   0.0000000), wk =   0.5000000
        k(    2) = (   0.0000000  -0.5797250   0.0000000), wk =   0.5000000
        k(    3) = (  -0.5000000  -0.0000004   0.0000000), wk =   0.5000000
        k(    4) = (  -0.5000000  -0.5797255   0.0000000), wk =   0.5000000

     Dense  grid:  4147881 G-vectors     FFT dimensions: ( 180, 150, 360)

     Smooth grid:  1791799 G-vectors     FFT dimensions: ( 128, 120, 250)

     Estimated max dynamical RAM per process >       1.13 GB

     Estimated total dynamical RAM >      40.80 GB

     Initial potential from superposition of free atoms

     starting charge    1023.9423, renormalised to    1024.0000

     negative rho (up, down):  9.854E-04 0.000E+00
     Starting wfcs are  768 randomized atomic wfcs
     Checking if some PAW data can be deallocated... 

     total cpu time spent up to now is       47.4 secs

     Self-consistent Calculation

     iteration #  1     ecut=    77.00 Ry     beta= 0.20
     Davidson diagonalization with overlap
     ethr =  1.00E-02,  avg # of iterations =  2.0

     total cpu time spent up to now is      142.6 secs

     total energy              =  -23862.66299917 Ry
     estimated scf accuracy    <      39.65198465 Ry

     iteration #  2     ecut=    77.00 Ry     beta= 0.20
     Davidson diagonalization with overlap
     ethr =  3.87E-03,  avg # of iterations = 26.0

     negative rho (up, down):  1.576E-08 0.000E+00

     total cpu time spent up to now is      441.8 secs

     total energy              =  -23839.61225041 Ry
     estimated scf accuracy    <    2821.04839649 Ry

     iteration #  3     ecut=    77.00 Ry     beta= 0.20
     Davidson diagonalization with overlap
     ethr =  3.87E-03,  avg # of iterations =  1.2

     negative rho (up, down):  2.721E-08 0.000E+00

     total cpu time spent up to now is      526.4 secs

     total energy              =  -23872.46628797 Ry
     estimated scf accuracy    <     146.39659757 Ry

     iteration #  4     ecut=    77.00 Ry     beta= 0.20
     Davidson diagonalization with overlap
     ethr =  3.87E-03,  avg # of iterations =  1.0

     total cpu time spent up to now is      608.6 secs

     total energy              =  -23876.44280033 Ry
     estimated scf accuracy    <       6.95072349 Ry

     iteration #  5     ecut=    77.00 Ry     beta= 0.20
     Davidson diagonalization with overlap
     c_bands:  2 eigenvalues not converged
     c_bands:  2 eigenvalues not converged
     c_bands:  2 eigenvalues not converged
     ethr =  6.79E-04,  avg # of iterations = 18.5

     negative rho (up, down):  2.518E-08 0.000E+00

     total cpu time spent up to now is      798.9 secs

     total energy              =  -23878.56623229 Ry
     estimated scf accuracy    <      34.46671932 Ry

     iteration #  6     ecut=    77.00 Ry     beta= 0.20
     Davidson diagonalization with overlap
     ethr =  6.79E-04,  avg # of iterations =  1.8

     negative rho (up, down):  6.363E-08 0.000E+00

     total cpu time spent up to now is      889.0 secs

     total energy              =  -23879.51718452 Ry
     estimated scf accuracy    <       7.02710759 Ry

     iteration #  7     ecut=    77.00 Ry     beta= 0.20
     Davidson diagonalization with overlap
     ethr =  6.79E-04,  avg # of iterations =  1.0

     negative rho (up, down):  1.913E-07 0.000E+00

     total cpu time spent up to now is      971.7 secs

     total energy              =  -23879.49047776 Ry
     estimated scf accuracy    <       3.52806273 Ry

     iteration #  8     ecut=    77.00 Ry     beta= 0.20
     Davidson diagonalization with overlap
     ethr =  3.45E-04,  avg # of iterations =  2.5

     negative rho (up, down):  8.608E-07 0.000E+00

     total cpu time spent up to now is     1065.4 secs

     total energy              =  -23879.51423145 Ry
     estimated scf accuracy    <       1.30919504 Ry

     iteration #  9     ecut=    77.00 Ry     beta= 0.20
     Davidson diagonalization with overlap
     ethr =  1.28E-04,  avg # of iterations = 25.5

     negative rho (up, down):  1.380E-06 0.000E+00

     total cpu time spent up to now is     1382.4 secs

     total energy              =  -23880.37244489 Ry
     estimated scf accuracy    <       5.51768569 Ry

     iteration # 10     ecut=    77.00 Ry     beta= 0.20
     Davidson diagonalization with overlap
     c_bands:  2 eigenvalues not converged
     ethr =  1.28E-04,  avg # of iterations =  5.8

     negative rho (up, down):  1.580E-06 0.000E+00

     total cpu time spent up to now is     1472.9 secs

     total energy              =  -23880.49631646 Ry
     estimated scf accuracy    <       3.60396224 Ry

     iteration # 11     ecut=    77.00 Ry     beta= 0.20
     Davidson diagonalization with overlap
     ethr =  1.28E-04,  avg # of iterations =  1.2

     negative rho (up, down):  6.486E-06 0.000E+00

     total cpu time spent up to now is     1558.0 secs

     total energy              =  -23880.24593230 Ry
     estimated scf accuracy    <       2.04810015 Ry

     iteration # 12     ecut=    77.00 Ry     beta= 0.20
     Davidson diagonalization with overlap
     ethr =  1.28E-04,  avg # of iterations =  1.0

     negative rho (up, down):  1.420E-05 0.000E+00

     total cpu time spent up to now is     1641.0 secs

     total energy              =  -23880.33491046 Ry
     estimated scf accuracy    <       1.06540804 Ry

     iteration # 13     ecut=    77.00 Ry     beta= 0.20
     Davidson diagonalization with overlap
     ethr =  1.04E-04,  avg # of iterations =  1.0

     negative rho (up, down):  5.405E-05 0.000E+00

     total cpu time spent up to now is     1723.7 secs

     total energy              =  -23880.28851303 Ry
     estimated scf accuracy    <       1.39177313 Ry

     iteration # 14     ecut=    77.00 Ry     beta= 0.20
     Davidson diagonalization with overlap
     ethr =  1.04E-04,  avg # of iterations =  2.0

     negative rho (up, down):  3.496E-05 0.000E+00

     total cpu time spent up to now is     1816.5 secs

     total energy              =  -23880.31100452 Ry
     estimated scf accuracy    <       0.44105612 Ry

     iteration # 15     ecut=    77.00 Ry     beta= 0.20
     Davidson diagonalization with overlap
     c_bands:  3 eigenvalues not converged
     ethr =  4.31E-05,  avg # of iterations = 21.5

     negative rho (up, down):  8.630E-05 0.000E+00

     total cpu time spent up to now is     2013.4 secs

     total energy              =  -23880.34249966 Ry
     estimated scf accuracy    <       1.98653124 Ry

     iteration # 16     ecut=    77.00 Ry     beta= 0.20
     Davidson diagonalization with overlap
     ethr =  4.31E-05,  avg # of iterations =  6.5

     negative rho (up, down):  2.891E-04 0.000E+00

     total cpu time spent up to now is     2110.8 secs

     total energy              =  -23880.40604452 Ry
     estimated scf accuracy    <       0.36435852 Ry

     iteration # 17     ecut=    77.00 Ry     beta= 0.20
     Davidson diagonalization with overlap
     c_bands:  2 eigenvalues not converged
     ethr =  3.56E-05,  avg # of iterations = 19.5

     negative rho (up, down):  1.696E-04 0.000E+00

     total cpu time spent up to now is     2317.7 secs

     total energy              =  -23880.51159752 Ry
     estimated scf accuracy    <       0.51560570 Ry

     iteration # 18     ecut=    77.00 Ry     beta= 0.20
     Davidson diagonalization with overlap
     c_bands:  1 eigenvalues not converged
     ethr =  3.56E-05,  avg # of iterations =  5.8

     negative rho (up, down):  2.306E-04 0.000E+00

     total cpu time spent up to now is     2407.9 secs

     total energy              =  -23880.56474805 Ry
     estimated scf accuracy    <       0.27047858 Ry

     iteration # 19     ecut=    77.00 Ry     beta= 0.20
     Davidson diagonalization with overlap
     ethr =  2.64E-05,  avg # of iterations =  1.2

     negative rho (up, down):  2.449E-04 0.000E+00

     total cpu time spent up to now is     2493.3 secs

     total energy              =  -23880.58090911 Ry
     estimated scf accuracy    <       0.36061195 Ry

     iteration # 20     ecut=    77.00 Ry     beta= 0.20
     Davidson diagonalization with overlap
     ethr =  2.64E-05,  avg # of iterations =  1.0

     negative rho (up, down):  3.214E-04 0.000E+00

     total cpu time spent up to now is     2576.1 secs

     total energy              =  -23880.67620301 Ry
     estimated scf accuracy    <       0.85506127 Ry

     iteration # 21     ecut=    77.00 Ry     beta= 0.20
     Davidson diagonalization with overlap
     ethr =  2.64E-05,  avg # of iterations =  4.5

     negative rho (up, down):  1.431E-04 0.000E+00

     total cpu time spent up to now is     2673.6 secs

     total energy              =  -23880.51131894 Ry
     estimated scf accuracy    <       0.63457120 Ry

     iteration # 22     ecut=    77.00 Ry     beta= 0.20
     Davidson diagonalization with overlap
     ethr =  2.64E-05,  avg # of iterations =  3.8

     negative rho (up, down):  1.852E-04 0.000E+00

     total cpu time spent up to now is     2768.8 secs

     total energy              =  -23880.54850268 Ry
     estimated scf accuracy    <       0.29261439 Ry

     iteration # 23     ecut=    77.00 Ry     beta= 0.20
     Davidson diagonalization with overlap
     ethr =  2.64E-05,  avg # of iterations =  1.0

     negative rho (up, down):  1.522E-04 0.000E+00

     total cpu time spent up to now is     2851.8 secs

     total energy              =  -23880.43792733 Ry
     estimated scf accuracy    <       0.59254866 Ry

     iteration # 24     ecut=    77.00 Ry     beta= 0.20
     Davidson diagonalization with overlap
     ethr =  2.64E-05,  avg # of iterations = 16.0

     negative rho (up, down):  1.674E-04 0.000E+00

     total cpu time spent up to now is     3018.5 secs

     total energy              =  -23880.48059678 Ry
     estimated scf accuracy    <       0.38326658 Ry

     iteration # 25     ecut=    77.00 Ry     beta= 0.20
     Davidson diagonalization with overlap
     ethr =  2.64E-05,  avg # of iterations = 11.2

     negative rho (up, down):  1.804E-04 0.000E+00

     total cpu time spent up to now is     3155.8 secs

     total energy              =  -23880.49189956 Ry
     estimated scf accuracy    <       0.03821759 Ry

     iteration # 26     ecut=    77.00 Ry     beta= 0.20
     Davidson diagonalization with overlap
     c_bands:  3 eigenvalues not converged
     c_bands:  2 eigenvalues not converged
     ethr =  3.73E-06,  avg # of iterations = 77.0

     negative rho (up, down):  2.594E-04 0.000E+00

     total cpu time spent up to now is     3840.1 secs

     total energy              =  -23880.51909632 Ry
     estimated scf accuracy    <       0.18067787 Ry

     iteration # 27     ecut=    77.00 Ry     beta= 0.20
     Davidson diagonalization with overlap
     c_bands:  3 eigenvalues not converged
     ethr =  3.73E-06,  avg # of iterations =  7.0

     negative rho (up, down):  4.371E-04 0.000E+00

     total cpu time spent up to now is     3939.1 secs

     total energy              =  -23880.50278897 Ry
     estimated scf accuracy    <       0.04181663 Ry

     iteration # 28     ecut=    77.00 Ry     beta= 0.20
     Davidson diagonalization with overlap
     ethr =  3.73E-06,  avg # of iterations = 11.5

     negative rho (up, down):  4.923E-04 0.000E+00

     total cpu time spent up to now is     4118.0 secs

     total energy              =  -23880.53231856 Ry
     estimated scf accuracy    <       0.06231880 Ry

     iteration # 29     ecut=    77.00 Ry     beta= 0.20
     Davidson diagonalization with overlap
     ethr =  3.73E-06,  avg # of iterations =  1.0

     negative rho (up, down):  5.410E-04 0.000E+00

     total cpu time spent up to now is     4200.7 secs

     total energy              =  -23880.51965402 Ry
     estimated scf accuracy    <       0.04729383 Ry

     iteration # 30     ecut=    77.00 Ry     beta= 0.20
     Davidson diagonalization with overlap
     ethr =  3.73E-06,  avg # of iterations =  5.8

     negative rho (up, down):  6.226E-04 0.000E+00

     total cpu time spent up to now is     4301.5 secs

     total energy              =  -23880.52001072 Ry
     estimated scf accuracy    <       0.01149429 Ry

     iteration # 31     ecut=    77.00 Ry     beta= 0.20
     Davidson diagonalization with overlap
     ethr =  1.12E-06,  avg # of iterations =  7.0

     negative rho (up, down):  8.189E-04 0.000E+00

     total cpu time spent up to now is     4445.5 secs

     total energy              =  -23880.52554573 Ry
     estimated scf accuracy    <       0.00583173 Ry

     iteration # 32     ecut=    77.00 Ry     beta= 0.20
     Davidson diagonalization with overlap
     ethr =  5.70E-07,  avg # of iterations =  6.5

     negative rho (up, down):  9.142E-04 0.000E+00

     total cpu time spent up to now is     4546.6 secs

     total energy              =  -23880.52562678 Ry
     estimated scf accuracy    <       0.05421123 Ry

     iteration # 33     ecut=    77.00 Ry     beta= 0.20
     Davidson diagonalization with overlap
     ethr =  5.70E-07,  avg # of iterations =  1.8

     negative rho (up, down):  9.596E-04 0.000E+00

     total cpu time spent up to now is     4637.0 secs

     total energy              =  -23880.52634504 Ry
     estimated scf accuracy    <       0.00463715 Ry

     iteration # 34     ecut=    77.00 Ry     beta= 0.20
     Davidson diagonalization with overlap
     ethr =  4.53E-07,  avg # of iterations =  2.0

     negative rho (up, down):  1.003E-03 0.000E+00

     total cpu time spent up to now is     4729.8 secs

     total energy              =  -23880.52614702 Ry
     estimated scf accuracy    <       0.00229381 Ry

     iteration # 35     ecut=    77.00 Ry     beta= 0.20
     Davidson diagonalization with overlap
     ethr =  2.24E-07,  avg # of iterations =  9.5

     negative rho (up, down):  9.776E-04 0.000E+00

     total cpu time spent up to now is     4849.2 secs

     total energy              =  -23880.52626720 Ry
     estimated scf accuracy    <       0.00205358 Ry

     iteration # 36     ecut=    77.00 Ry     beta= 0.20
     Davidson diagonalization with overlap
     ethr =  2.01E-07,  avg # of iterations =  1.5

     negative rho (up, down):  9.839E-04 0.000E+00

     total cpu time spent up to now is     4937.0 secs

     total energy              =  -23880.52609482 Ry
     estimated scf accuracy    <       0.00141974 Ry

     iteration # 37     ecut=    77.00 Ry     beta= 0.20
     Davidson diagonalization with overlap
     ethr =  1.39E-07,  avg # of iterations =  8.5

     negative rho (up, down):  9.777E-04 0.000E+00

     total cpu time spent up to now is     5048.3 secs

     total energy              =  -23880.52628942 Ry
     estimated scf accuracy    <       0.00110974 Ry

     iteration # 38     ecut=    77.00 Ry     beta= 0.20
     Davidson diagonalization with overlap
     ethr =  1.08E-07,  avg # of iterations =  3.8

     negative rho (up, down):  9.395E-04 0.000E+00

     total cpu time spent up to now is     5143.4 secs

     total energy              =  -23880.52632630 Ry
     estimated scf accuracy    <       0.00126200 Ry

     iteration # 39     ecut=    77.00 Ry     beta= 0.20
     Davidson diagonalization with overlap
     ethr =  1.08E-07,  avg # of iterations =  1.2

     negative rho (up, down):  1.038E-03 0.000E+00

     total cpu time spent up to now is     5228.6 secs

     total energy              =  -23880.52610076 Ry
     estimated scf accuracy    <       0.00334247 Ry

     iteration # 40     ecut=    77.00 Ry     beta= 0.20
     Davidson diagonalization with overlap
     ethr =  1.08E-07,  avg # of iterations = 11.0

     negative rho (up, down):  1.019E-03 0.000E+00

     total cpu time spent up to now is     5355.1 secs

     total energy              =  -23880.52638253 Ry
     estimated scf accuracy    <       0.00050619 Ry

     iteration # 41     ecut=    77.00 Ry     beta= 0.20
     Davidson diagonalization with overlap
     c_bands:  1 eigenvalues not converged
     ethr =  4.94E-08,  avg # of iterations = 13.0

     negative rho (up, down):  1.029E-03 0.000E+00

     total cpu time spent up to now is     5485.8 secs

     total energy              =  -23880.52645101 Ry
     estimated scf accuracy    <       0.00091816 Ry

     iteration # 42     ecut=    77.00 Ry     beta= 0.20
     Davidson diagonalization with overlap
     ethr =  4.94E-08,  avg # of iterations =  6.2

     negative rho (up, down):  1.033E-03 0.000E+00

     total cpu time spent up to now is     5591.7 secs

     total energy              =  -23880.52650180 Ry
     estimated scf accuracy    <       0.00068128 Ry

     iteration # 43     ecut=    77.00 Ry     beta= 0.20
     Davidson diagonalization with overlap
     ethr =  4.94E-08,  avg # of iterations =  1.2

     negative rho (up, down):  1.048E-03 0.000E+00

     total cpu time spent up to now is     5676.9 secs

     total energy              =  -23880.52652158 Ry
     estimated scf accuracy    <       0.00054520 Ry

     iteration # 44     ecut=    77.00 Ry     beta= 0.20
     Davidson diagonalization with overlap
     ethr =  4.94E-08,  avg # of iterations =  1.0

     negative rho (up, down):  1.052E-03 0.000E+00

     total cpu time spent up to now is     5759.8 secs

     total energy              =  -23880.52651997 Ry
     estimated scf accuracy    <       0.00046673 Ry

     iteration # 45     ecut=    77.00 Ry     beta= 0.20
     Davidson diagonalization with overlap
     ethr =  4.56E-08,  avg # of iterations =  1.0

     negative rho (up, down):  1.067E-03 0.000E+00

     total cpu time spent up to now is     5842.7 secs

     total energy              =  -23880.52653020 Ry
     estimated scf accuracy    <       0.00019970 Ry

     iteration # 46     ecut=    77.00 Ry     beta= 0.20
     Davidson diagonalization with overlap
     ethr =  1.95E-08,  avg # of iterations =  9.2

     negative rho (up, down):  1.059E-03 0.000E+00

     total cpu time spent up to now is     5951.4 secs

     total energy              =  -23880.52654558 Ry
     estimated scf accuracy    <       0.00009567 Ry

     iteration # 47     ecut=    77.00 Ry     beta= 0.20
     Davidson diagonalization with overlap
     c_bands:  1 eigenvalues not converged
     ethr =  9.34E-09,  avg # of iterations = 14.2

     negative rho (up, down):  1.062E-03 0.000E+00

     total cpu time spent up to now is     6095.8 secs

     total energy              =  -23880.52657849 Ry
     estimated scf accuracy    <       0.00012161 Ry

     iteration # 48     ecut=    77.00 Ry     beta= 0.20
     Davidson diagonalization with overlap
     ethr =  9.34E-09,  avg # of iterations =  1.8

     negative rho (up, down):  1.074E-03 0.000E+00

     total cpu time spent up to now is     6185.8 secs

     total energy              =  -23880.52658211 Ry
     estimated scf accuracy    <       0.00009942 Ry

     iteration # 49     ecut=    77.00 Ry     beta= 0.20
     Davidson diagonalization with overlap
     ethr =  9.34E-09,  avg # of iterations =  1.0

     negative rho (up, down):  1.082E-03 0.000E+00

     total cpu time spent up to now is     6268.6 secs

     total energy              =  -23880.52658340 Ry
     estimated scf accuracy    <       0.00001231 Ry

     iteration # 50     ecut=    77.00 Ry     beta= 0.20
     Davidson diagonalization with overlap
     c_bands:  3 eigenvalues not converged
     c_bands:  3 eigenvalues not converged
     ethr =  1.20E-09,  avg # of iterations = 24.8

     negative rho (up, down):  1.080E-03 0.000E+00

     total cpu time spent up to now is     6516.3 secs

     total energy              =  -23880.52659700 Ry
     estimated scf accuracy    <       0.00002866 Ry

     iteration # 51     ecut=    77.00 Ry     beta= 0.20
     Davidson diagonalization with overlap
     c_bands:  2 eigenvalues not converged
     ethr =  1.20E-09,  avg # of iterations =  5.8

     negative rho (up, down):  1.082E-03 0.000E+00

     total cpu time spent up to now is     6607.4 secs

     total energy              =  -23880.52659745 Ry
     estimated scf accuracy    <       0.00000829 Ry

     iteration # 52     ecut=    77.00 Ry     beta= 0.20
     Davidson diagonalization with overlap
     c_bands:  2 eigenvalues not converged
     ethr =  8.09E-10,  avg # of iterations =  5.8

     negative rho (up, down):  1.082E-03 0.000E+00

     total cpu time spent up to now is     6699.5 secs

     total energy              =  -23880.52659693 Ry
     estimated scf accuracy    <       0.00000920 Ry

     iteration # 53     ecut=    77.00 Ry     beta= 0.20
     Davidson diagonalization with overlap
     c_bands:  1 eigenvalues not converged
     ethr =  8.09E-10,  avg # of iterations =  6.2

     negative rho (up, down):  1.082E-03 0.000E+00

     total cpu time spent up to now is     6795.0 secs

     total energy              =  -23880.52659676 Ry
     estimated scf accuracy    <       0.00001315 Ry

     iteration # 54     ecut=    77.00 Ry     beta= 0.20
     Davidson diagonalization with overlap
     ethr =  8.09E-10,  avg # of iterations =  1.2

     negative rho (up, down):  1.086E-03 0.000E+00

     total cpu time spent up to now is     6880.1 secs

     total energy              =  -23880.52659594 Ry
     estimated scf accuracy    <       0.00001697 Ry

     iteration # 55     ecut=    77.00 Ry     beta= 0.20
     Davidson diagonalization with overlap
     ethr =  8.09E-10,  avg # of iterations =  2.0

     negative rho (up, down):  1.090E-03 0.000E+00

     total cpu time spent up to now is     6972.8 secs

     total energy              =  -23880.52659502 Ry
     estimated scf accuracy    <       0.00001072 Ry

     iteration # 56     ecut=    77.00 Ry     beta= 0.20
     Davidson diagonalization with overlap
     ethr =  8.09E-10,  avg # of iterations =  2.0

     negative rho (up, down):  1.092E-03 0.000E+00

     total cpu time spent up to now is     7065.7 secs

     total energy              =  -23880.52659502 Ry
     estimated scf accuracy    <       0.00000869 Ry

     iteration # 57     ecut=    77.00 Ry     beta= 0.20
     Davidson diagonalization with overlap
     ethr =  8.09E-10,  avg # of iterations =  4.8

     negative rho (up, down):  1.093E-03 0.000E+00

     total cpu time spent up to now is     7163.8 secs

     total energy              =  -23880.52659547 Ry
     estimated scf accuracy    <       0.00000406 Ry

     iteration # 58     ecut=    77.00 Ry     beta= 0.20
     Davidson diagonalization with overlap
     ethr =  3.96E-10,  avg # of iterations = 14.0

     negative rho (up, down):  1.091E-03 0.000E+00

     total cpu time spent up to now is     7328.6 secs

     total energy              =  -23880.52659708 Ry
     estimated scf accuracy    <       0.00000747 Ry

     iteration # 59     ecut=    77.00 Ry     beta= 0.20
     Davidson diagonalization with overlap
     ethr =  3.96E-10,  avg # of iterations =  1.0

     negative rho (up, down):  1.091E-03 0.000E+00

     total cpu time spent up to now is     7411.4 secs

     total energy              =  -23880.52659706 Ry
     estimated scf accuracy    <       0.00000516 Ry

     iteration # 60     ecut=    77.00 Ry     beta= 0.20
     Davidson diagonalization with overlap
     ethr =  3.96E-10,  avg # of iterations =  1.0

     negative rho (up, down):  1.090E-03 0.000E+00

     total cpu time spent up to now is     7494.1 secs

     total energy              =  -23880.52659692 Ry
     estimated scf accuracy    <       0.00000464 Ry

     iteration # 61     ecut=    77.00 Ry     beta= 0.20
     Davidson diagonalization with overlap
     ethr =  3.96E-10,  avg # of iterations =  1.0

     negative rho (up, down):  1.091E-03 0.000E+00

     total cpu time spent up to now is     7576.8 secs

     total energy              =  -23880.52659586 Ry
     estimated scf accuracy    <       0.00000391 Ry

     iteration # 62     ecut=    77.00 Ry     beta= 0.20
     Davidson diagonalization with overlap
     ethr =  3.81E-10,  avg # of iterations =  7.0

     negative rho (up, down):  1.092E-03 0.000E+00

     total cpu time spent up to now is     7692.8 secs

     total energy              =  -23880.52659639 Ry
     estimated scf accuracy    <       0.00000246 Ry

     iteration # 63     ecut=    77.00 Ry     beta= 0.20
     Davidson diagonalization with overlap
     ethr =  2.41E-10,  avg # of iterations =  1.8

     negative rho (up, down):  1.094E-03 0.000E+00

     total cpu time spent up to now is     7783.0 secs

     total energy              =  -23880.52659600 Ry
     estimated scf accuracy    <       0.00000569 Ry

     iteration # 64     ecut=    77.00 Ry     beta= 0.20
     Davidson diagonalization with overlap
     ethr =  2.41E-10,  avg # of iterations =  2.8

     negative rho (up, down):  1.095E-03 0.000E+00

     total cpu time spent up to now is     7876.7 secs

     total energy              =  -23880.52659597 Ry
     estimated scf accuracy    <       0.00000503 Ry

     iteration # 65     ecut=    77.00 Ry     beta= 0.20
     Davidson diagonalization with overlap
     ethr =  2.41E-10,  avg # of iterations =  1.0

     negative rho (up, down):  1.097E-03 0.000E+00

     total cpu time spent up to now is     7959.5 secs

     total energy              =  -23880.52659572 Ry
     estimated scf accuracy    <       0.00000237 Ry

     iteration # 66     ecut=    77.00 Ry     beta= 0.20
     Davidson diagonalization with overlap
     ethr =  2.31E-10,  avg # of iterations =  1.0

     negative rho (up, down):  1.101E-03 0.000E+00

     total cpu time spent up to now is     8042.3 secs

     End of self-consistent calculation

          k = 0.0000 0.0000 0.0000 (223931 PWs)   bands (ev):

   -66.6627 -66.6326 -66.6147 -66.6147 -66.6145 -66.5981 -66.5981 -66.5767
   -66.5755 -66.5755 -66.5693 -66.5600 -66.5581 -66.5581 -66.5571 -66.5554
   -66.5477 -66.5454 -66.5419 -66.5419 -66.5372 -66.5328 -66.5328 -66.5236
   -66.5236 -66.5169 -66.5167 -66.5151 -66.5151 -66.5131 -66.5091 -66.5041
   -66.2845 -66.2764 -66.2710 -66.2603 -66.2521 -66.2519 -66.2518 -66.2500
   -66.2500 -66.2483 -66.2483 -66.2362 -66.2362 -66.2327 -66.2305 -66.2230
   -66.2230 -66.2171 -66.2135 -66.2108 -66.2108 -66.2079 -66.2030 -66.1979
   -66.1183 -66.1133 -66.1029 -66.1029 -66.1010 -66.1010 -66.0853 -66.0836
   -41.2627 -41.2535 -41.2535 -41.2336 -41.1829 -41.1740 -41.1616 -41.1557
   -41.1557 -41.1336 -41.1336 -41.0926 -41.0926 -41.0859 -41.0736 -41.0565
   -41.0260 -40.9832 -40.9818 -40.9769 -40.9758 -40.9758 -40.9682 -40.9532
   -40.9531 -40.9477 -40.9101 -40.8954 -40.8954 -40.8796 -40.8796 -40.8550
   -40.8550 -40.8543 -40.8393 -40.8382 -40.8382 -40.8211 -40.8151 -40.8007
   -40.7968 -40.7968 -40.7862 -40.7854 -40.7854 -40.7728 -40.7637 -40.7637
   -40.7581 -40.7219 -40.7100 -40.7068 -40.7068 -40.6980 -40.6980 -40.6928
   -40.6756 -40.6650 -40.6521 -40.6521 -40.6469 -40.6469 -40.6307 -40.6291
   -40.6212 -40.6015 -40.6015 -40.5982 -40.5954 -40.5954 -40.5940 -40.5873
   -40.5873 -40.5782 -40.5775 -40.5608 -40.5562 -40.5489 -40.5392 -40.5392
   -40.5356 -40.5237 -40.5234 -40.5234 -40.5218 -40.5198 -40.5186 -40.5186
   -40.5160 -40.4790 -40.4769 -40.4769 -40.4767 -40.4662 -40.4636 -40.4636
   -40.4634 -40.4634 -40.4633 -40.4510 -40.4479 -40.4478 -40.4337 -40.4333
   -40.4317 -40.4317 -40.4304 -40.4142 -40.4136 -40.4068 -40.4068 -40.4055
   -40.4055 -40.3982 -40.3944 -40.3897 -40.3897 -40.3895 -40.3755 -40.3701
   -40.3597 -40.3542 -40.3522 -40.3522 -40.3445 -40.3445 -40.3405 -40.3285
   -40.3211 -40.3204 -40.3057 -40.3057 -40.3007 -40.3007 -40.2786 -40.2757
   -40.2723 -40.2645 -40.2645 -40.2615 -40.2615 -40.2484 -40.2425 -40.2421
   -40.2421 -40.2416 -40.2416 -40.2414 -40.2410 -40.2257 -40.2253 -40.2168
   -40.2107 -40.2079 -40.1925 -40.1730 -40.1713 -40.1713 -40.1582 -40.1582
   -40.1567 -40.1551 -40.1530 -40.1530 -40.1490 -40.1431 -40.1431 -40.1411
   -40.1386 -40.1341 -40.1341 -40.1206 -40.0995 -40.0782 -40.0782 -40.0748
   -40.0748 -40.0742 -40.0678 -40.0672 -40.0192 -40.0187 -40.0146 -40.0047
   -40.0047 -39.9536 -39.9536 -39.9441 -39.9441 -39.9004 -39.8765 -39.8640
   -18.2358 -17.6306 -17.5665 -17.5578 -17.5578 -17.3657 -17.2134 -17.2070
   -17.2070 -17.1122 -17.1121 -17.0715 -17.0452 -17.0451 -16.9804 -16.9803
   -16.9062 -16.8488 -16.8348 -16.7432 -16.7431 -16.7009 -16.6287 -16.5648
   -15.0870 -14.9909 -14.8651 -14.8651 -14.8404 -14.8404 -14.6263 -14.4962
   -12.1517 -12.0913 -12.0037 -11.9837 -11.9442 -11.9442 -11.7273 -11.7273
   -11.6997 -11.6997 -11.6123 -11.5652 -11.5652 -11.4897 -11.4445 -11.4350
   -11.3636 -11.2733 -11.2732 -11.2429 -11.1759 -11.1759 -11.1697 -11.1134
   -10.9767 -10.9688 -10.9241 -10.8394 -10.8394 -10.7477 -10.7145 -10.7145
   -10.7016 -10.6460 -10.6258 -10.6258 -10.5993 -10.5357 -10.5356 -10.4861
   -10.4605 -10.4449 -10.3546 -10.3545 -10.3471 -10.3431 -10.3247 -10.3246
   -10.2870 -10.2709 -10.2628 -10.1837 -10.1694 -10.1694 -10.1238 -10.1238
   -10.0042  -9.9582  -9.9581  -9.9122  -9.9122  -9.8826  -9.8298  -9.8131
    -9.7583  -9.7102  -9.7102  -9.6924  -9.5897  -9.5586  -9.5586  -9.5317
    -9.3158  -9.2619  -9.2474  -9.2474  -9.0709  -9.0708  -9.0287  -9.0287
    -8.9805  -8.9725  -8.8473  -8.7816  -8.7815  -8.7352  -8.7352  -8.7090
    -8.7090  -8.7043  -8.6928  -8.6014  -8.5299  -8.5299  -8.5236  -8.5044
    -8.4685  -8.3212  -8.2929  -8.2929  -8.2913  -8.2912  -8.2875  -8.2622
    -8.2622  -8.2411  -8.1891  -8.1513  -8.1473  -8.1034  -8.0979  -8.0979
    -8.0859  -8.0762  -8.0762  -8.0353  -8.0353  -7.9682  -7.9651  -7.9542
    -7.9185  -7.9091  -7.8574  -7.8573  -7.8099  -7.7745  -7.7304  -7.7063
    -7.7063  -7.6287  -7.5870  -7.5442  -7.5442  -7.4978  -7.4717  -7.4652
    -7.4652  -7.4563  -7.4002  -7.4002  -7.3852  -7.3528  -7.3247  -7.3015
    -7.3015  -7.2868  -7.2431  -7.2431  -7.2186  -7.1330  -7.1217  -7.1208
    -7.1121  -7.1120  -7.0756  -7.0434  -7.0434  -6.9839  -6.9594  -6.9320
    -6.9150  -6.9052  -6.9052  -6.8843  -6.8331  -6.7891  -6.7891  -6.7078
    -6.6816  -6.6723  -6.6527  -6.6527  -6.5894  -6.5545  -6.5515  -6.4287
    -6.4286  -6.3811  -6.3805  -6.3504  -6.3316  -6.3316  -6.3292  -6.2514
    -6.2514  -6.2166  -6.2109  -6.2108  -6.1876  -6.1707  -6.1126  -6.0416
    -6.0272  -6.0080  -6.0080  -5.9850  -5.9849  -5.9333  -5.9022  -5.8711
    -5.8688  -5.8687  -5.8208  -5.8208  -5.8109  -5.7902  -5.7728  -5.7245
    -5.7027  -5.7027  -5.5804  -5.5804  -5.5482  -5.3958  -5.3958  -5.3432
    -5.3215  -5.3080  -5.2924  -5.2793  -5.2692  -5.2547  -5.2147  -5.2147
    -5.1867  -5.1867  -5.1863  -5.1088  -5.0989  -5.0774  -5.0481  -5.0480
    -5.0025  -5.0024  -4.9152  -4.7884  -4.7741  -4.7741  -4.7377  -4.7214
    -4.7209  -4.7208  -4.6603  -4.6166  -4.5976  -4.5976  -4.5651  -4.5651
    -4.5382  -4.5373  -4.5006  -4.5006  -4.4670  -4.4170  -4.4021  -4.3678
    -4.3678  -4.3180  -4.3055  -4.3055  -4.2981  -4.2886  -4.2607  -4.2572
    -4.2572  -4.2397  -4.1574  -4.1059  -4.1059  -4.0612  -4.0581  -4.0581
    -4.0304  -4.0301  -3.9709  -3.9103  -3.8941  -3.8792  -3.8404  -3.7981
    -3.7980  -3.7567  -3.7567  -3.7494  -3.6717  -3.6632  -3.6234  -3.6234
    -3.5891  -3.5891  -3.5631  -3.5548  -3.5207  -3.5206  -3.4762  -3.4695
    -3.4520  -3.4517  -3.4504  -3.4244  -3.4243  -3.3891  -3.3557  -3.3462
    -3.3461  -3.2904  -3.2864  -3.2791  -3.2789  -3.2278  -3.2277  -3.1512
    -3.1502  -3.1409  -3.1337  -3.1023  -3.0739  -3.0735  -2.9845  -2.9550
    -2.9533  -2.9219  -2.9183  -2.8762  -2.8522  -2.8440

          k = 0.0000-0.5797 0.0000 (224030 PWs)   bands (ev):

   -66.6488 -66.6488 -66.6223 -66.6223 -66.6047 -66.6046 -66.5810 -66.5810
   -66.5680 -66.5679 -66.5676 -66.5676 -66.5578 -66.5578 -66.5528 -66.5528
   -66.5527 -66.5526 -66.5451 -66.5451 -66.5396 -66.5396 -66.5221 -66.5221
   -66.5183 -66.5183 -66.5165 -66.5164 -66.5126 -66.5126 -66.5094 -66.5094
   -66.2739 -66.2738 -66.2689 -66.2689 -66.2646 -66.2646 -66.2529 -66.2529
   -66.2446 -66.2446 -66.2372 -66.2371 -66.2364 -66.2364 -66.2245 -66.2244
   -66.2152 -66.2152 -66.2128 -66.2127 -66.2072 -66.2071 -66.2056 -66.2056
   -66.1144 -66.1144 -66.1100 -66.1100 -66.0903 -66.0903 -66.0896 -66.0895
   -41.2635 -41.2635 -41.2040 -41.2040 -41.1755 -41.1755 -41.1575 -41.1575
   -41.1566 -41.1566 -41.1073 -41.1073 -41.1013 -41.1013 -41.0741 -41.0741
   -41.0281 -41.0280 -40.9877 -40.9876 -40.9722 -40.9722 -40.9649 -40.9649
   -40.9601 -40.9601 -40.9360 -40.9360 -40.9265 -40.9265 -40.8618 -40.8617
   -40.8391 -40.8391 -40.8159 -40.8159 -40.8128 -40.8128 -40.7866 -40.7866
   -40.7843 -40.7843 -40.7581 -40.7581 -40.7574 -40.7574 -40.7482 -40.7482
   -40.7396 -40.7396 -40.7345 -40.7345 -40.7059 -40.7059 -40.6893 -40.6893
   -40.6678 -40.6678 -40.6638 -40.6638 -40.6542 -40.6542 -40.6287 -40.6287
   -40.6048 -40.6048 -40.6022 -40.6022 -40.6008 -40.6008 -40.5928 -40.5928
   -40.5770 -40.5770 -40.5549 -40.5548 -40.5512 -40.5512 -40.5463 -40.5463
   -40.5377 -40.5377 -40.5354 -40.5354 -40.5242 -40.5241 -40.5206 -40.5206
   -40.5102 -40.5102 -40.4924 -40.4924 -40.4826 -40.4826 -40.4719 -40.4719
   -40.4605 -40.4605 -40.4548 -40.4548 -40.4328 -40.4327 -40.4323 -40.4323
   -40.4292 -40.4292 -40.4234 -40.4234 -40.4223 -40.4223 -40.4164 -40.4163
   -40.3996 -40.3996 -40.3806 -40.3806 -40.3726 -40.3726 -40.3659 -40.3659
   -40.3573 -40.3572 -40.3511 -40.3511 -40.3354 -40.3354 -40.3314 -40.3314
   -40.3264 -40.3264 -40.3154 -40.3153 -40.3031 -40.3031 -40.2753 -40.2753
   -40.2701 -40.2701 -40.2616 -40.2616 -40.2586 -40.2585 -40.2446 -40.2445
   -40.2439 -40.2439 -40.2293 -40.2293 -40.2155 -40.2155 -40.2032 -40.2032
   -40.1994 -40.1994 -40.1929 -40.1928 -40.1838 -40.1838 -40.1765 -40.1765
   -40.1715 -40.1715 -40.1475 -40.1475 -40.1383 -40.1382 -40.1286 -40.1286
   -40.1159 -40.1159 -40.1103 -40.1103 -40.1096 -40.1096 -40.1031 -40.1031
   -40.0874 -40.0874 -40.0535 -40.0534 -40.0369 -40.0368 -40.0016 -40.0016
   -39.9864 -39.9864 -39.9164 -39.9163 -39.9163 -39.9162 -39.8939 -39.8938
   -18.0264 -18.0264 -17.4940 -17.4939 -17.4224 -17.4223 -17.2811 -17.2810
   -17.1606 -17.1606 -17.1559 -17.1558 -16.9764 -16.9763 -16.8961 -16.8961
   -16.8434 -16.8434 -16.8210 -16.8210 -16.7377 -16.7377 -16.6139 -16.6138
   -15.0296 -15.0295 -14.9637 -14.9637 -14.7077 -14.7076 -14.6017 -14.6016
   -12.0222 -12.0222 -11.9245 -11.9245 -11.9093 -11.9093 -11.8758 -11.8758
   -11.7598 -11.7597 -11.5712 -11.5711 -11.5687 -11.5687 -11.5386 -11.5386
   -11.4674 -11.4674 -11.0938 -11.0938 -11.0549 -11.0549 -11.0188 -11.0187
   -11.0136 -11.0136 -10.9684 -10.9683 -10.9273 -10.9273 -10.7889 -10.7889
   -10.6908 -10.6908 -10.5952 -10.5952 -10.5554 -10.5554 -10.5375 -10.5375
   -10.3993 -10.3993 -10.3530 -10.3529 -10.3318 -10.3318 -10.2764 -10.2764
   -10.2287 -10.2287 -10.1964 -10.1964 -10.1375 -10.1374 -10.0821 -10.0821
   -10.0618 -10.0618 -10.0424 -10.0424  -9.9196  -9.9195  -9.8115  -9.8114
    -9.6733  -9.6733  -9.6188  -9.6188  -9.5422  -9.5422  -9.5218  -9.5218
    -9.3396  -9.3396  -9.2748  -9.2748  -9.1289  -9.1289  -9.0211  -9.0211
    -8.9936  -8.9936  -8.8775  -8.8775  -8.6489  -8.6489  -8.6212  -8.6212
    -8.5938  -8.5938  -8.5640  -8.5640  -8.4354  -8.4353  -8.4161  -8.4161
    -8.3751  -8.3751  -8.2837  -8.2837  -8.2830  -8.2830  -8.2630  -8.2630
    -8.2603  -8.2603  -8.2068  -8.2068  -8.1912  -8.1912  -8.1193  -8.1193
    -8.1012  -8.1012  -8.0783  -8.0783  -8.0459  -8.0459  -8.0368  -8.0368
    -7.9322  -7.9322  -7.9018  -7.9018  -7.8329  -7.8329  -7.8009  -7.8009
    -7.6901  -7.6901  -7.6025  -7.6025  -7.5596  -7.5596  -7.5076  -7.5076
    -7.4656  -7.4656  -7.4133  -7.4133  -7.3896  -7.3896  -7.3113  -7.3113
    -7.3068  -7.3067  -7.2829  -7.2829  -7.1726  -7.1726  -7.1365  -7.1365
    -7.1046  -7.1046  -7.0464  -7.0464  -6.9974  -6.9974  -6.9542  -6.9542
    -6.8811  -6.8811  -6.8684  -6.8684  -6.8678  -6.8678  -6.6990  -6.6990
    -6.6398  -6.6398  -6.6336  -6.6336  -6.6276  -6.6276  -6.4404  -6.4404
    -6.4290  -6.4290  -6.2921  -6.2921  -6.2908  -6.2908  -6.2771  -6.2771
    -6.2196  -6.2196  -6.1768  -6.1768  -6.1463  -6.1463  -6.0785  -6.0784
    -5.9883  -5.9883  -5.9857  -5.9857  -5.9779  -5.9779  -5.9067  -5.9067
    -5.7805  -5.7805  -5.7739  -5.7738  -5.7304  -5.7304  -5.6052  -5.6052
    -5.6022  -5.6022  -5.5892  -5.5892  -5.5068  -5.5068  -5.3772  -5.3772
    -5.3751  -5.3751  -5.3448  -5.3448  -5.1921  -5.1921  -5.1758  -5.1758
    -5.1599  -5.1599  -5.1141  -5.1141  -5.0800  -5.0800  -5.0180  -5.0180
    -4.9837  -4.9837  -4.9326  -4.9325  -4.8392  -4.8392  -4.8148  -4.8148
    -4.7665  -4.7665  -4.7576  -4.7576  -4.6520  -4.6520  -4.6146  -4.6146
    -4.5829  -4.5829  -4.5461  -4.5461  -4.4105  -4.4105  -4.3863  -4.3863
    -4.3490  -4.3490  -4.3454  -4.3454  -4.2835  -4.2835  -4.2302  -4.2301
    -4.1997  -4.1997  -4.1729  -4.1729  -4.1008  -4.1008  -4.0719  -4.0718
    -3.9807  -3.9807  -3.9794  -3.9794  -3.9721  -3.9721  -3.9666  -3.9666
    -3.8892  -3.8891  -3.7629  -3.7629  -3.7628  -3.7627  -3.7334  -3.7334
    -3.7231  -3.7231  -3.6658  -3.6657  -3.5916  -3.5915  -3.5383  -3.5382
    -3.5083  -3.5083  -3.4386  -3.4385  -3.3887  -3.3885  -3.3612  -3.3610
    -3.3344  -3.3343  -3.2421  -3.2419  -3.2361  -3.2360  -3.2292  -3.2286
    -3.2010  -3.2000  -3.1324  -3.1298  -3.1268  -3.1263  -3.1110  -3.1109
    -2.9219  -2.9166  -2.8946  -2.8876  -2.8072  -2.7926

          k =-0.5000-0.0000 0.0000 (224092 PWs)   bands (ev):

   -66.6526 -66.6525 -66.6082 -66.6082 -66.6081 -66.6081 -66.5887 -66.5887
   -66.5694 -66.5694 -66.5649 -66.5649 -66.5648 -66.5648 -66.5594 -66.5593
   -66.5400 -66.5400 -66.5387 -66.5387 -66.5387 -66.5387 -66.5296 -66.5296
   -66.5182 -66.5182 -66.5182 -66.5182 -66.5138 -66.5137 -66.5059 -66.5059
   -66.2768 -66.2767 -66.2738 -66.2738 -66.2510 -66.2509 -66.2509 -66.2509
   -66.2437 -66.2437 -66.2436 -66.2436 -66.2320 -66.2320 -66.2315 -66.2315
   -66.2156 -66.2156 -66.2155 -66.2155 -66.2102 -66.2102 -66.1992 -66.1991
   -66.1159 -66.1159 -66.1020 -66.1020 -66.1020 -66.1019 -66.0844 -66.0844
   -41.2289 -41.2289 -41.2072 -41.2072 -41.2072 -41.2072 -41.2071 -41.2070
   -41.1397 -41.1397 -41.1218 -41.1218 -41.1217 -41.1217 -41.0140 -41.0140
   -41.0116 -41.0115 -40.9802 -40.9801 -40.9439 -40.9438 -40.9415 -40.9415
   -40.9414 -40.9414 -40.9150 -40.9150 -40.8987 -40.8987 -40.8987 -40.8987
   -40.8716 -40.8716 -40.8580 -40.8580 -40.8579 -40.8579 -40.8126 -40.8126
   -40.7853 -40.7852 -40.7646 -40.7646 -40.7646 -40.7646 -40.7479 -40.7478
   -40.7128 -40.7128 -40.7041 -40.7041 -40.7041 -40.7041 -40.6985 -40.6985
   -40.6829 -40.6829 -40.6507 -40.6507 -40.6507 -40.6507 -40.6367 -40.6366
   -40.6168 -40.6168 -40.5993 -40.5993 -40.5952 -40.5952 -40.5952 -40.5952
   -40.5772 -40.5772 -40.5772 -40.5772 -40.5706 -40.5706 -40.5344 -40.5344
   -40.5235 -40.5235 -40.5148 -40.5148 -40.5148 -40.5148 -40.4972 -40.4972
   -40.4806 -40.4806 -40.4738 -40.4738 -40.4738 -40.4738 -40.4718 -40.4718
   -40.4600 -40.4600 -40.4547 -40.4547 -40.4547 -40.4547 -40.4442 -40.4442
   -40.4419 -40.4419 -40.4219 -40.4219 -40.4219 -40.4218 -40.4177 -40.4177
   -40.4026 -40.4026 -40.3858 -40.3858 -40.3857 -40.3857 -40.3671 -40.3671
   -40.3539 -40.3538 -40.3538 -40.3538 -40.3485 -40.3484 -40.3401 -40.3400
   -40.3067 -40.3066 -40.3055 -40.3055 -40.3054 -40.3054 -40.2862 -40.2862
   -40.2822 -40.2822 -40.2610 -40.2610 -40.2610 -40.2610 -40.2414 -40.2414
   -40.2414 -40.2414 -40.2351 -40.2350 -40.2262 -40.2262 -40.2149 -40.2149
   -40.2016 -40.2016 -40.1871 -40.1870 -40.1828 -40.1827 -40.1646 -40.1646
   -40.1645 -40.1645 -40.1516 -40.1516 -40.1516 -40.1515 -40.1467 -40.1467
   -40.1060 -40.1059 -40.1059 -40.1059 -40.0850 -40.0849 -40.0822 -40.0822
   -40.0704 -40.0703 -40.0387 -40.0387 -40.0339 -40.0339 -40.0339 -40.0339
   -39.9547 -39.9547 -39.9504 -39.9504 -39.9504 -39.9504 -39.8696 -39.8696
   -18.0482 -18.0482 -17.4275 -17.4275 -17.4275 -17.4274 -17.2948 -17.2948
   -17.1800 -17.1800 -17.0696 -17.0696 -17.0696 -17.0695 -16.8760 -16.8759
   -16.8257 -16.8257 -16.8257 -16.8256 -16.8163 -16.8163 -16.5677 -16.5677
   -15.0426 -15.0426 -14.8528 -14.8528 -14.8528 -14.8527 -14.5591 -14.5591
   -12.0380 -12.0380 -11.8538 -11.8538 -11.8456 -11.8456 -11.8456 -11.8456
   -11.8368 -11.8368 -11.6005 -11.6005 -11.6005 -11.6005 -11.4772 -11.4771
   -11.3082 -11.3082 -11.1773 -11.1772 -11.1510 -11.1510 -11.1509 -11.1509
   -10.9423 -10.9423 -10.9182 -10.9182 -10.9181 -10.9181 -10.8062 -10.8062
   -10.6653 -10.6653 -10.6653 -10.6652 -10.6210 -10.6209 -10.5549 -10.5549
   -10.5225 -10.5224 -10.3368 -10.3368 -10.2902 -10.2902 -10.2902 -10.2902
   -10.2106 -10.2106 -10.1842 -10.1842 -10.1415 -10.1415 -10.1415 -10.1415
    -9.9945  -9.9945  -9.8901  -9.8901  -9.8901  -9.8901  -9.7136  -9.7136
    -9.6090  -9.6089  -9.6089  -9.6089  -9.6007  -9.6007  -9.5288  -9.5288
    -9.4393  -9.4392  -9.1843  -9.1843  -9.1843  -9.1843  -9.0210  -9.0210
    -8.8816  -8.8816  -8.8816  -8.8816  -8.7940  -8.7939  -8.7195  -8.7195
    -8.6918  -8.6918  -8.6918  -8.6918  -8.5605  -8.5605  -8.4419  -8.4419
    -8.4418  -8.4418  -8.3395  -8.3395  -8.3002  -8.3002  -8.2731  -8.2731
    -8.2731  -8.2731  -8.1919  -8.1918  -8.0934  -8.0933  -8.0674  -8.0674
    -8.0328  -8.0328  -8.0328  -8.0328  -7.9695  -7.9695  -7.9694  -7.9694
    -7.9091  -7.9091  -7.8914  -7.8914  -7.7984  -7.7984  -7.6581  -7.6580
    -7.6580  -7.6580  -7.6188  -7.6188  -7.5744  -7.5744  -7.4770  -7.4770
    -7.3947  -7.3947  -7.3796  -7.3796  -7.3795  -7.3795  -7.2722  -7.2722
    -7.2620  -7.2620  -7.2620  -7.2619  -7.1902  -7.1902  -7.1346  -7.1346
    -7.1346  -7.1346  -7.0837  -7.0836  -7.0087  -7.0087  -6.8942  -6.8942
    -6.8371  -6.8371  -6.8371  -6.8371  -6.7833  -6.7833  -6.7543  -6.7543
    -6.6751  -6.6751  -6.6025  -6.6025  -6.5797  -6.5796  -6.5458  -6.5458
    -6.5458  -6.5458  -6.4906  -6.4906  -6.4673  -6.4673  -6.4673  -6.4672
    -6.3955  -6.3955  -6.2348  -6.2348  -6.1704  -6.1704  -6.1704  -6.1704
    -6.1352  -6.1351  -5.9125  -5.9125  -5.8333  -5.8333  -5.8332  -5.8332
    -5.7809  -5.7809  -5.7054  -5.7054  -5.7054  -5.7054  -5.6854  -5.6854
    -5.6101  -5.6101  -5.4790  -5.4790  -5.4179  -5.4179  -5.3256  -5.3256
    -5.3256  -5.3256  -5.2840  -5.2840  -5.1764  -5.1764  -5.1503  -5.1503
    -5.1503  -5.1503  -5.0531  -5.0531  -5.0332  -5.0332  -5.0331  -5.0331
    -5.0091  -5.0091  -4.8893  -4.8893  -4.8536  -4.8535  -4.8247  -4.8247
    -4.8246  -4.8246  -4.6866  -4.6866  -4.6206  -4.6206  -4.6206  -4.6205
    -4.6087  -4.6087  -4.4658  -4.4658  -4.3943  -4.3943  -4.3424  -4.3424
    -4.3424  -4.3424  -4.3010  -4.3010  -4.1721  -4.1721  -4.1721  -4.1721
    -4.1492  -4.1492  -4.0921  -4.0921  -4.0120  -4.0120  -4.0120  -4.0120
    -3.9751  -3.9751  -3.8618  -3.8618  -3.8087  -3.8087  -3.8087  -3.8087
    -3.7270  -3.7270  -3.7270  -3.7270  -3.6982  -3.6982  -3.6397  -3.6397
    -3.6191  -3.6190  -3.5945  -3.5945  -3.5784  -3.5784  -3.5784  -3.5783
    -3.4690  -3.4689  -3.4402  -3.4401  -3.4392  -3.4392  -3.4392  -3.4391
    -3.3377  -3.3374  -3.2772  -3.2772  -3.2771  -3.2770  -3.2697  -3.2689
    -3.1806  -3.1804  -3.1249  -3.1240  -3.1225  -3.1221  -3.1220  -3.1211
    -3.0013  -2.9958  -2.9610  -2.9583  -2.9552  -2.9521

          k =-0.5000-0.5797 0.0000 (223960 PWs)   bands (ev):

   -66.6396 -66.6396 -66.6396 -66.6395 -66.5852 -66.5851 -66.5851 -66.5851
   -66.5707 -66.5706 -66.5706 -66.5706 -66.5605 -66.5605 -66.5605 -66.5604
   -66.5473 -66.5473 -66.5473 -66.5472 -66.5268 -66.5268 -66.5268 -66.5268
   -66.5197 -66.5197 -66.5196 -66.5196 -66.5100 -66.5100 -66.5099 -66.5099
   -66.2672 -66.2672 -66.2672 -66.2672 -66.2666 -66.2666 -66.2666 -66.2666
   -66.2368 -66.2367 -66.2367 -66.2367 -66.2291 -66.2290 -66.2290 -66.2290
   -66.2177 -66.2177 -66.2176 -66.2176 -66.2047 -66.2047 -66.2046 -66.2046
   -66.1123 -66.1123 -66.1122 -66.1122 -66.0899 -66.0899 -66.0898 -66.0898
   -41.2271 -41.2271 -41.2271 -41.2270 -41.1716 -41.1716 -41.1716 -41.1716
   -41.1440 -41.1440 -41.1440 -41.1440 -41.0784 -41.0784 -41.0784 -41.0784
   -41.0069 -41.0069 -41.0069 -41.0069 -40.9730 -40.9730 -40.9730 -40.9730
   -40.9496 -40.9496 -40.9496 -40.9496 -40.8860 -40.8860 -40.8860 -40.8860
   -40.8415 -40.8415 -40.8414 -40.8414 -40.8200 -40.8200 -40.8200 -40.8200
   -40.7715 -40.7715 -40.7715 -40.7715 -40.7486 -40.7486 -40.7486 -40.7486
   -40.7170 -40.7170 -40.7170 -40.7170 -40.6903 -40.6903 -40.6903 -40.6903
   -40.6525 -40.6525 -40.6525 -40.6525 -40.6242 -40.6242 -40.6242 -40.6242
   -40.6137 -40.6137 -40.6136 -40.6136 -40.5921 -40.5921 -40.5921 -40.5921
   -40.5798 -40.5798 -40.5798 -40.5798 -40.5580 -40.5580 -40.5580 -40.5580
   -40.5422 -40.5422 -40.5422 -40.5422 -40.5179 -40.5179 -40.5179 -40.5179
   -40.5007 -40.5007 -40.5007 -40.5007 -40.4740 -40.4740 -40.4740 -40.4739
   -40.4563 -40.4563 -40.4563 -40.4562 -40.4456 -40.4456 -40.4456 -40.4456
   -40.4409 -40.4409 -40.4408 -40.4408 -40.3996 -40.3995 -40.3995 -40.3995
   -40.3884 -40.3884 -40.3884 -40.3884 -40.3736 -40.3736 -40.3736 -40.3736
   -40.3544 -40.3544 -40.3544 -40.3544 -40.3388 -40.3387 -40.3387 -40.3387
   -40.3245 -40.3245 -40.3245 -40.3244 -40.2866 -40.2866 -40.2866 -40.2866
   -40.2673 -40.2672 -40.2672 -40.2672 -40.2405 -40.2405 -40.2405 -40.2404
   -40.2255 -40.2255 -40.2255 -40.2255 -40.2195 -40.2195 -40.2194 -40.2194
   -40.1965 -40.1965 -40.1964 -40.1964 -40.1830 -40.1830 -40.1830 -40.1830
   -40.1623 -40.1623 -40.1623 -40.1623 -40.1394 -40.1393 -40.1393 -40.1393
   -40.1216 -40.1216 -40.1216 -40.1216 -40.0680 -40.0680 -40.0680 -40.0679
   -40.0655 -40.0655 -40.0655 -40.0655 -40.0322 -40.0321 -40.0321 -40.0320
   -39.9685 -39.9684 -39.9684 -39.9683 -39.8970 -39.8970 -39.8969 -39.8969
   -17.8569 -17.8568 -17.8568 -17.8568 -17.2248 -17.2247 -17.2247 -17.2246
   -17.1378 -17.1377 -17.1377 -17.1377 -16.9595 -16.9595 -16.9594 -16.9594
   -16.8960 -16.8960 -16.8960 -16.8959 -16.6392 -16.6392 -16.6391 -16.6391
   -14.9996 -14.9996 -14.9996 -14.9996 -14.6523 -14.6523 -14.6523 -14.6523
   -11.9299 -11.9299 -11.9298 -11.9298 -11.8919 -11.8919 -11.8919 -11.8919
   -11.6205 -11.6205 -11.6205 -11.6205 -11.5525 -11.5525 -11.5525 -11.5524
   -11.3440 -11.3440 -11.3439 -11.3439 -11.1897 -11.1897 -11.1897 -11.1896
   -11.0049 -11.0049 -11.0049 -11.0049 -10.7893 -10.7893 -10.7893 -10.7893
   -10.7376 -10.7376 -10.7376 -10.7376 -10.5075 -10.5075 -10.5075 -10.5075
   -10.3928 -10.3928 -10.3928 -10.3927 -10.3210 -10.3210 -10.3210 -10.3210
   -10.1550 -10.1550 -10.1550 -10.1550 -10.0924 -10.0924 -10.0924 -10.0923
   -10.0146 -10.0146 -10.0146 -10.0146  -9.7931  -9.7931  -9.7931  -9.7931
    -9.6065  -9.6065  -9.6065  -9.6064  -9.5219  -9.5219  -9.5219  -9.5219
    -9.2901  -9.2901  -9.2901  -9.2900  -9.1258  -9.1258  -9.1258  -9.1258
    -8.8887  -8.8887  -8.8887  -8.8887  -8.7561  -8.7561  -8.7561  -8.7561
    -8.5438  -8.5438  -8.5438  -8.5438  -8.5209  -8.5209  -8.5209  -8.5209
    -8.3394  -8.3394  -8.3394  -8.3394  -8.2915  -8.2915  -8.2915  -8.2915
    -8.2367  -8.2367  -8.2367  -8.2367  -8.1319  -8.1319  -8.1318  -8.1318
    -8.0296  -8.0296  -8.0296  -8.0296  -7.9660  -7.9660  -7.9660  -7.9660
    -7.9196  -7.9196  -7.9196  -7.9196  -7.8710  -7.8710  -7.8710  -7.8710
    -7.6021  -7.6021  -7.6021  -7.6020  -7.5401  -7.5401  -7.5401  -7.5401
    -7.4330  -7.4330  -7.4330  -7.4330  -7.3281  -7.3281  -7.3281  -7.3281
    -7.2974  -7.2974  -7.2974  -7.2973  -7.2065  -7.2065  -7.2065  -7.2065
    -7.0993  -7.0993  -7.0993  -7.0993  -7.0188  -7.0188  -7.0188  -7.0188
    -6.9127  -6.9127  -6.9127  -6.9127  -6.7105  -6.7105  -6.7105  -6.7104
    -6.6085  -6.6085  -6.6085  -6.6085  -6.5311  -6.5311  -6.5311  -6.5310
    -6.3387  -6.3387  -6.3387  -6.3387  -6.2858  -6.2858  -6.2857  -6.2857
    -6.1781  -6.1781  -6.1781  -6.1781  -6.1003  -6.1003  -6.1003  -6.1002
    -5.9714  -5.9714  -5.9714  -5.9714  -5.9157  -5.9156  -5.9156  -5.9156
    -5.7297  -5.7296  -5.7296  -5.7296  -5.6729  -5.6728  -5.6728  -5.6728
    -5.5366  -5.5366  -5.5366  -5.5366  -5.4821  -5.4821  -5.4821  -5.4821
    -5.3891  -5.3891  -5.3891  -5.3891  -5.3032  -5.3032  -5.3032  -5.3032
    -5.2468  -5.2468  -5.2468  -5.2468  -5.1312  -5.1312  -5.1312  -5.1312
    -4.9515  -4.9515  -4.9514  -4.9514  -4.8145  -4.8145  -4.8145  -4.8145
    -4.6679  -4.6679  -4.6678  -4.6678  -4.6135  -4.6135  -4.6135  -4.6135
    -4.5398  -4.5398  -4.5398  -4.5398  -4.4161  -4.4161  -4.4161  -4.4161
    -4.3332  -4.3332  -4.3332  -4.3332  -4.2417  -4.2417  -4.2416  -4.2416
    -4.1703  -4.1703  -4.1703  -4.1703  -4.0751  -4.0751  -4.0751  -4.0751
    -3.9473  -3.9473  -3.9473  -3.9473  -3.8667  -3.8667  -3.8666  -3.8666
    -3.7838  -3.7837  -3.7837  -3.7837  -3.7021  -3.7021  -3.7020  -3.7020
    -3.6583  -3.6583  -3.6583  -3.6583  -3.5555  -3.5555  -3.5554  -3.5554
    -3.4862  -3.4861  -3.4861  -3.4860  -3.3870  -3.3870  -3.3869  -3.3868
    -3.3289  -3.3289  -3.3289  -3.3288  -3.2010  -3.2008  -3.2005  -3.2003
    -3.0877  -3.0876  -3.0873  -3.0863  -3.0001  -2.9982  -2.9963  -2.9918
    -2.9578  -2.9553  -2.9533  -2.9527  -2.8455  -2.8340

     the Fermi energy is    -5.1955 ev

!    total energy              =  -23880.52659400 Ry
     total all-electron energy =   -520713.167869 Ry
     estimated scf accuracy    <       0.00000082 Ry
     smearing contrib. (-TS)   =      -0.05942550 Ry
     internal energy E=F+TS    =  -23880.46716850 Ry

     The total energy is F=E-TS. E is the sum of the following terms:
     one-electron contribution =  172669.05761224 Ry
     hartree contribution      =  -86543.18727186 Ry
     xc contribution           =   -1389.64472430 Ry
     ewald contribution        =  -93864.75841370 Ry
     DFT-D3 Dispersion         =      -2.73685756 Ry
     one-center paw contrib.   =  -14749.19751332 Ry

     convergence has been achieved in  66 iterations

     negative rho (up, down):  1.101E-03 0.000E+00

     Forces acting on atoms (cartesian axes, Ry/au):

     atom    1 type  1   force =     0.01773898   -0.01586800   -0.04198534
     atom    2 type  1   force =    -0.00523237    0.00975716    0.01602913
     atom    3 type  1   force =     0.01837072    0.01154706   -0.04675936
     atom    4 type  1   force =    -0.00544405   -0.00016157    0.02970127
     atom    5 type  1   force =     0.00541963   -0.00012590    0.02970420
     atom    6 type  1   force =    -0.01840631    0.01150015   -0.04674919
     atom    7 type  1   force =     0.00526698    0.00973095    0.01604237
     atom    8 type  1   force =    -0.01776498   -0.01582560   -0.04198719
     atom    9 type  2   force =    -0.00642900   -0.00095536   -0.00228853
     atom   10 type  2   force =     0.00640104   -0.00094706   -0.00228560
     atom   11 type  2   force =     0.00925486   -0.00195196    0.03906882
     atom   12 type  2   force =    -0.00924420   -0.00195819    0.03905953
     atom   13 type  1   force =     0.00115557   -0.00512682    0.00468470
     atom   14 type  1   force =    -0.04966212    0.03331761   -0.00974154
     atom   15 type  1   force =     0.00139484    0.00339935   -0.00477286
     atom   16 type  1   force =    -0.06769848   -0.03584547   -0.08090137
     atom   17 type  1   force =     0.06768884   -0.03580346   -0.08090074
     atom   18 type  1   force =    -0.00141321    0.00336978   -0.00476697
     atom   19 type  1   force =     0.04967347    0.03329687   -0.00970899
     atom   20 type  1   force =    -0.00113851   -0.00510732    0.00467621
     atom   21 type  2   force =    -0.01298343   -0.00233825    0.11269500
     atom   22 type  2   force =     0.01297858   -0.00234986    0.11269591
     atom   23 type  2   force =    -0.00386056    0.00426758   -0.01625011
     atom   24 type  2   force =     0.00387657    0.00426239   -0.01625914
     atom   25 type  1   force =     0.01773428   -0.01579846   -0.04197724
     atom   26 type  1   force =    -0.00522290    0.00971426    0.01602705
     atom   27 type  1   force =     0.01837290    0.01151299   -0.04674712
     atom   28 type  1   force =    -0.00542792   -0.00016771    0.02967139
     atom   29 type  1   force =     0.00541648   -0.00019812    0.02969382
     atom   30 type  1   force =    -0.01840297    0.01158155   -0.04674092
     atom   31 type  1   force =     0.00523943    0.00972594    0.01602524
     atom   32 type  1   force =    -0.01770361   -0.01585901   -0.04197848
     atom   33 type  2   force =    -0.00642734   -0.00095416   -0.00228818
     atom   34 type  2   force =     0.00640139   -0.00094788   -0.00228660
     atom   35 type  2   force =     0.00924694   -0.00195874    0.03906296
     atom   36 type  2   force =    -0.00924034   -0.00195572    0.03905663
     atom   37 type  1   force =     0.00115651   -0.00509395    0.00469355
     atom   38 type  1   force =    -0.04964465    0.03328945   -0.00974365
     atom   39 type  1   force =     0.00139187    0.00336654   -0.00477595
     atom   40 type  1   force =    -0.06768560   -0.03585466   -0.08092964
     atom   41 type  1   force =     0.06767431   -0.03585634   -0.08089955
     atom   42 type  1   force =    -0.00141010    0.00340162   -0.00476020
     atom   43 type  1   force =     0.04965858    0.03327059   -0.00973515
     atom   44 type  1   force =    -0.00111825   -0.00513643    0.00467015
     atom   45 type  2   force =    -0.01298137   -0.00233981    0.11269480
     atom   46 type  2   force =     0.01298202   -0.00235135    0.11268870
     atom   47 type  2   force =    -0.00386071    0.00426666   -0.01625180
     atom   48 type  2   force =     0.00387714    0.00426315   -0.01625351
     atom   49 type  1   force =     0.01773347   -0.01582813   -0.04198025
     atom   50 type  1   force =    -0.00524161    0.00975380    0.01602562
     atom   51 type  1   force =     0.01837590    0.01154222   -0.04675153
     atom   52 type  1   force =    -0.00543710   -0.00015263    0.02963782
     atom   53 type  1   force =     0.00541939   -0.00016115    0.02965867
     atom   54 type  1   force =    -0.01838207    0.01155133   -0.04673875
     atom   55 type  1   force =     0.00525216    0.00974110    0.01600306
     atom   56 type  1   force =    -0.01768824   -0.01582715   -0.04198435
     atom   57 type  2   force =    -0.00641820   -0.00095683   -0.00229302
     atom   58 type  2   force =     0.00641112   -0.00094486   -0.00228905
     atom   59 type  2   force =     0.00925078   -0.00195957    0.03905582
     atom   60 type  2   force =    -0.00923308   -0.00195787    0.03906714
     atom   61 type  1   force =     0.00122142   -0.00511411    0.00467073
     atom   62 type  1   force =    -0.04973097    0.03332112   -0.00972157
     atom   63 type  1   force =     0.00141403    0.00339820   -0.00479978
     atom   64 type  1   force =    -0.06771969   -0.03582346   -0.08088468
     atom   65 type  1   force =     0.06770097   -0.03582767   -0.08088779
     atom   66 type  1   force =    -0.00144345    0.00337935   -0.00479061
     atom   67 type  1   force =     0.04974412    0.03329883   -0.00972074
     atom   68 type  1   force =    -0.00118325   -0.00510427    0.00467601
     atom   69 type  2   force =    -0.01298411   -0.00233839    0.11269684
     atom   70 type  2   force =     0.01297778   -0.00235151    0.11269872
     atom   71 type  2   force =    -0.00385302    0.00426826   -0.01625741
     atom   72 type  2   force =     0.00386636    0.00426351   -0.01625824
     atom   73 type  1   force =     0.01774344   -0.01584331   -0.04197833
     atom   74 type  1   force =    -0.00524953    0.00972048    0.01602589
     atom   75 type  1   force =     0.01838869    0.01152252   -0.04676899
     atom   76 type  1   force =    -0.00545629   -0.00018280    0.02967104
     atom   77 type  1   force =     0.00541975   -0.00014995    0.02967107
     atom   78 type  1   force =    -0.01839263    0.01152292   -0.04674341
     atom   79 type  1   force =     0.00528187    0.00971374    0.01601746
     atom   80 type  1   force =    -0.01775377   -0.01585810   -0.04198025
     atom   81 type  2   force =    -0.00641931   -0.00095580   -0.00229137
     atom   82 type  2   force =     0.00640850   -0.00094789   -0.00228910
     atom   83 type  2   force =     0.00925778   -0.00195536    0.03905928
     atom   84 type  2   force =    -0.00923786   -0.00195691    0.03906169
     atom   85 type  1   force =     0.00121490   -0.00510614    0.00467178
     atom   86 type  1   force =    -0.04971808    0.03328341   -0.00971822
     atom   87 type  1   force =     0.00141002    0.00336656   -0.00479067
     atom   88 type  1   force =    -0.06772339   -0.03584367   -0.08090423
     atom   89 type  1   force =     0.06769026   -0.03586036   -0.08088101
     atom   90 type  1   force =    -0.00144880    0.00339173   -0.00478385
     atom   91 type  1   force =     0.04974477    0.03327101   -0.00973930
     atom   92 type  1   force =    -0.00119541   -0.00514236    0.00466869
     atom   93 type  2   force =    -0.01298119   -0.00234042    0.11269962
     atom   94 type  2   force =     0.01297896   -0.00235040    0.11269016
     atom   95 type  2   force =    -0.00385271    0.00426774   -0.01625791
     atom   96 type  2   force =     0.00386832    0.00425879   -0.01624929
     The non-local contrib.  to forces
     atom    1 type  1   force =    -0.00403271    0.01411117   -0.05655463
     atom    2 type  1   force =     0.00715796   -0.00179151   -0.01105252
     atom    3 type  1   force =    -0.02103368   -0.02700594   -0.06410513
     atom    4 type  1   force =    -0.01358191   -0.01279148    0.03764458
     atom    5 type  1   force =     0.01361177   -0.01277396    0.03763606
     atom    6 type  1   force =     0.02104978   -0.02706427   -0.06413356
     atom    7 type  1   force =    -0.00715469   -0.00179524   -0.01101907
     atom    8 type  1   force =     0.00400700    0.01416970   -0.05657926
     atom    9 type  2   force =    -0.00103261   -0.00236881   -0.00518984
     atom   10 type  2   force =     0.00100615   -0.00233063   -0.00518409
     atom   11 type  2   force =    -0.00561718   -0.00130104   -0.02258391
     atom   12 type  2   force =     0.00563465   -0.00133562   -0.02258718
     atom   13 type  1   force =    -0.02565585    0.00908502    0.01884765
     atom   14 type  1   force =     0.00078983    0.03405931   -0.01912431
     atom   15 type  1   force =     0.01961396    0.01115486   -0.02579419
     atom   16 type  1   force =    -0.01857094   -0.03340207   -0.05292501
     atom   17 type  1   force =     0.01863516   -0.03340660   -0.05294783
     atom   18 type  1   force =    -0.01956286    0.01111511   -0.02581001
     atom   19 type  1   force =    -0.00078461    0.03405172   -0.01910028
     atom   20 type  1   force =     0.02565483    0.00913561    0.01883600
     atom   21 type  2   force =     0.01029138    0.06387104    0.20830084
     atom   22 type  2   force =    -0.01031100    0.06389734    0.20829968
     atom   23 type  2   force =    -0.01611242    0.01175128    0.01490702
     atom   24 type  2   force =     0.01612378    0.01172002    0.01490304
     atom   25 type  1   force =    -0.00405330    0.01414855   -0.05657622
     atom   26 type  1   force =     0.00716733   -0.00182343   -0.01105260
     atom   27 type  1   force =    -0.02104412   -0.02707714   -0.06413619
     atom   28 type  1   force =    -0.01356926   -0.01283020    0.03762188
     atom   29 type  1   force =     0.01360629   -0.01283721    0.03763373
     atom   30 type  1   force =     0.02105161   -0.02702807   -0.06415309
     atom   31 type  1   force =    -0.00717527   -0.00183351   -0.01102468
     atom   32 type  1   force =     0.00405389    0.01410645   -0.05658745
     atom   33 type  2   force =    -0.00102859   -0.00236826   -0.00518959
     atom   34 type  2   force =     0.00100983   -0.00232598   -0.00518780
     atom   35 type  2   force =    -0.00562517   -0.00130557   -0.02258677
     atom   36 type  2   force =     0.00563757   -0.00133288   -0.02258203
     atom   37 type  1   force =    -0.02565428    0.00909938    0.01884411
     atom   38 type  1   force =     0.00079760    0.03402483   -0.01912899
     atom   39 type  1   force =     0.01961871    0.01110177   -0.02580297
     atom   40 type  1   force =    -0.01855972   -0.03344499   -0.05293014
     atom   41 type  1   force =     0.01863107   -0.03344407   -0.05294331
     atom   42 type  1   force =    -0.01956585    0.01113152   -0.02581235
     atom   43 type  1   force =    -0.00078647    0.03400946   -0.01910419
     atom   44 type  1   force =     0.02566685    0.00908044    0.01884134
[...]
     atom   75 type  1   force =    -0.00011300    0.00000730    0.00003863
     atom   76 type  1   force =    -0.00005245    0.00001117   -0.00006373
     atom   77 type  1   force =    -0.00008696    0.00000460   -0.00006086
     atom   78 type  1   force =    -0.00002153    0.00000367    0.00004595
     atom   79 type  1   force =    -0.00005782    0.00000504   -0.00002933
     atom   80 type  1   force =     0.00003461    0.00001836    0.00004755
     atom   81 type  2   force =    -0.00002046    0.00000263   -0.00001920
     atom   82 type  2   force =    -0.00002012    0.00000363   -0.00002055
     atom   83 type  2   force =    -0.00002675    0.00000412    0.00000269
     atom   84 type  2   force =     0.00000497    0.00000489    0.00000283
     atom   85 type  1   force =     0.00000000    0.00000000    0.00000000
     atom   86 type  1   force =     0.00000000    0.00000000    0.00000000
     atom   87 type  1   force =     0.00000000    0.00000000    0.00000000
     atom   88 type  1   force =     0.00000000    0.00000000    0.00000000
     atom   89 type  1   force =     0.00000000    0.00000000    0.00000000
     atom   90 type  1   force =     0.00000000    0.00000000    0.00000000
     atom   91 type  1   force =     0.00000000    0.00000000    0.00000000
     atom   92 type  1   force =     0.00000000    0.00000000    0.00000000
     atom   93 type  2   force =     0.00000000    0.00000000    0.00000000
     atom   94 type  2   force =     0.00000000    0.00000000    0.00000000
     atom   95 type  2   force =     0.00000000    0.00000000    0.00000000
     atom   96 type  2   force =     0.00000000    0.00000000    0.00000000

     DFT-D3 dispersion contribution to forces:
     atom    1 type  1   force =     0.00021075   -0.00015600   -0.00668075
     atom    2 type  1   force =     0.00016423   -0.00001596   -0.00358575
     atom    3 type  1   force =     0.00016484    0.00014000   -0.00683140
     atom    4 type  1   force =     0.00011968    0.00002475   -0.00338351
     atom    5 type  1   force =    -0.00011963    0.00002477   -0.00338356
     atom    6 type  1   force =    -0.00016477    0.00013995   -0.00683141
     atom    7 type  1   force =    -0.00016420   -0.00001598   -0.00358581
     atom    8 type  1   force =    -0.00021073   -0.00015598   -0.00668078
     atom    9 type  2   force =    -0.00003172   -0.00000240   -0.00006671
     atom   10 type  2   force =     0.00003174   -0.00000241   -0.00006671
     atom   11 type  2   force =    -0.00000950    0.00001238   -0.00208281
     atom   12 type  2   force =     0.00000950    0.00001236   -0.00208281
     atom   13 type  1   force =    -0.00000236    0.00000750    0.00284606
     atom   14 type  1   force =     0.00002762   -0.00004480    0.00610513
     atom   15 type  1   force =     0.00005538   -0.00001581    0.00245072
     atom   16 type  1   force =    -0.00002956    0.00003715    0.00649961
     atom   17 type  1   force =     0.00002956    0.00003716    0.00649962
     atom   18 type  1   force =    -0.00005537   -0.00001580    0.00245077
     atom   19 type  1   force =    -0.00002761   -0.00004483    0.00610512
     atom   20 type  1   force =     0.00000238    0.00000749    0.00284607
     atom   21 type  2   force =     0.00002205    0.00001447    0.00310517
     atom   22 type  2   force =    -0.00002203    0.00001447    0.00310518
     atom   23 type  2   force =     0.00008137   -0.00000123    0.00162429
     atom   24 type  2   force =    -0.00008137   -0.00000122    0.00162429
     atom   25 type  1   force =     0.00021075   -0.00015596   -0.00668076
     atom   26 type  1   force =     0.00016423   -0.00001599   -0.00358574
     atom   27 type  1   force =     0.00016484    0.00013997   -0.00683139
     atom   28 type  1   force =     0.00011968    0.00002474   -0.00338353
     atom   29 type  1   force =    -0.00011963    0.00002475   -0.00338356
     atom   30 type  1   force =    -0.00016478    0.00014002   -0.00683141
     atom   31 type  1   force =    -0.00016419   -0.00001597   -0.00358579
     atom   32 type  1   force =    -0.00021073   -0.00015602   -0.00668076
     atom   33 type  2   force =    -0.00003171   -0.00000240   -0.00006672
     atom   34 type  2   force =     0.00003174   -0.00000242   -0.00006672
     atom   35 type  2   force =    -0.00000949    0.00001236   -0.00208281
     atom   36 type  2   force =     0.00000950    0.00001237   -0.00208282
     atom   37 type  1   force =    -0.00000236    0.00000751    0.00284605
     atom   38 type  1   force =     0.00002762   -0.00004480    0.00610514
     atom   39 type  1   force =     0.00005539   -0.00001582    0.00245070
     atom   40 type  1   force =    -0.00002956    0.00003714    0.00649962
     atom   41 type  1   force =     0.00002957    0.00003716    0.00649963
     atom   42 type  1   force =    -0.00005537   -0.00001581    0.00245075
     atom   43 type  1   force =    -0.00002761   -0.00004483    0.00610511
     atom   44 type  1   force =     0.00000238    0.00000748    0.00284605
     atom   45 type  2   force =     0.00002205    0.00001447    0.00310517
     atom   46 type  2   force =    -0.00002203    0.00001447    0.00310518
     atom   47 type  2   force =     0.00008137   -0.00000123    0.00162429
     atom   48 type  2   force =    -0.00008137   -0.00000122    0.00162429
     atom   49 type  1   force =     0.00021073   -0.00015600   -0.00668077
     atom   50 type  1   force =     0.00016420   -0.00001594   -0.00358578
     atom   51 type  1   force =     0.00016477    0.00014001   -0.00683141
     atom   52 type  1   force =     0.00011963    0.00002474   -0.00338354
     atom   53 type  1   force =    -0.00011969    0.00002478   -0.00338353
     atom   54 type  1   force =    -0.00016484    0.00013994   -0.00683141
     atom   55 type  1   force =    -0.00016422   -0.00001598   -0.00358575
     atom   56 type  1   force =    -0.00021075   -0.00015599   -0.00668075
     atom   57 type  2   force =    -0.00003173   -0.00000240   -0.00006671
     atom   58 type  2   force =     0.00003172   -0.00000240   -0.00006671
     atom   59 type  2   force =    -0.00000950    0.00001238   -0.00208281
     atom   60 type  2   force =     0.00000949    0.00001236   -0.00208281
     atom   61 type  1   force =    -0.00000237    0.00000750    0.00284607
     atom   62 type  1   force =     0.00002761   -0.00004480    0.00610511
     atom   63 type  1   force =     0.00005537   -0.00001581    0.00245072
     atom   64 type  1   force =    -0.00002958    0.00003715    0.00649961
     atom   65 type  1   force =     0.00002955    0.00003716    0.00649963
     atom   66 type  1   force =    -0.00005539   -0.00001581    0.00245076
     atom   67 type  1   force =    -0.00002762   -0.00004483    0.00610513
     atom   68 type  1   force =     0.00000238    0.00000750    0.00284605
     atom   69 type  2   force =     0.00002204    0.00001447    0.00310517
     atom   70 type  2   force =    -0.00002203    0.00001447    0.00310518
     atom   71 type  2   force =     0.00008137   -0.00000123    0.00162429
     atom   72 type  2   force =    -0.00008137   -0.00000122    0.00162429
     atom   73 type  1   force =     0.00021073   -0.00015596   -0.00668077
     atom   74 type  1   force =     0.00016420   -0.00001599   -0.00358578
     atom   75 type  1   force =     0.00016477    0.00013998   -0.00683140
     atom   76 type  1   force =     0.00011962    0.00002474   -0.00338353
     atom   77 type  1   force =    -0.00011969    0.00002475   -0.00338355
     atom   78 type  1   force =    -0.00016484    0.00014001   -0.00683140
     atom   79 type  1   force =    -0.00016423   -0.00001599   -0.00358576
     atom   80 type  1   force =    -0.00021075   -0.00015602   -0.00668076
     atom   81 type  2   force =    -0.00003173   -0.00000241   -0.00006671
     atom   82 type  2   force =     0.00003172   -0.00000242   -0.00006672
     atom   83 type  2   force =    -0.00000950    0.00001237   -0.00208280
     atom   84 type  2   force =     0.00000950    0.00001237   -0.00208282
     atom   85 type  1   force =    -0.00000237    0.00000750    0.00284606
     atom   86 type  1   force =     0.00002761   -0.00004480    0.00610511
     atom   87 type  1   force =     0.00005536   -0.00001582    0.00245071
     atom   88 type  1   force =    -0.00002958    0.00003715    0.00649960
     atom   89 type  1   force =     0.00002954    0.00003716    0.00649963
     atom   90 type  1   force =    -0.00005539   -0.00001580    0.00245075
     atom   91 type  1   force =    -0.00002762   -0.00004484    0.00610514
     atom   92 type  1   force =     0.00000237    0.00000749    0.00284604
     atom   93 type  2   force =     0.00002204    0.00001447    0.00310517
     atom   94 type  2   force =    -0.00002203    0.00001447    0.00310518
     atom   95 type  2   force =     0.00008137   -0.00000123    0.00162430
     atom   96 type  2   force =    -0.00008137   -0.00000122    0.00162429

     Total force =     0.004014     Total SCF correction =     0.000409
     SCF correction compared to forces is large: reduce conv_thr to get better values


     Computing stress (Cartesian axis) and pressure


     negative rho (up, down):  1.141E-03 0.000E+00
          total   stress  (Ry/bohr**3)                   (kbar)     P=      -21.63
  -0.00022109  -0.00000000   0.00000000          -32.52       -0.00        0.00
  -0.00000000  -0.00022001   0.00000000           -0.00      -32.36        0.00
   0.00000000   0.00000000   0.00000000            0.00        0.00        0.00

     Energy error            =      5.8E-05 Ry
     Gradient error          =      6.5E-04 Ry/Bohr

     bfgs converged in  15 scf cycles and  14 bfgs steps
     (criteria: energy <  1.0E-04 Ry, force <  1.0E-03 Ry/Bohr)

     End of BFGS Geometry Optimization

     Final energy             =  -23880.7038303361 Ry

     File ./outdir/pwscf.bfgs deleted, as requested
Begin final coordinates

ATOMIC_POSITIONS (angstrom)
Mo            0.8519091997        4.6989243457        4.0205087231
Mo            5.2841814729        0.4405061662        1.7617683299
Mo            2.3412305877        2.2661891479        3.9535578831
Mo            3.7389355485        3.0039662668        1.7895545073
Mo            2.2795816636        0.4085336069        1.7895654895
Mo            3.6772981801        4.8615778350        3.9535778986
Mo            0.7343359804        3.0359492399        1.7617931480
Mo            5.1666100173        2.1034919482        4.0205390648
C             2.2591068007        3.8924250837        0.5627809130
C             3.7594107839        1.2969830823        0.5627854514
C             0.7699194117        1.3060920946        3.0085339516
C             5.2486026701        3.9015142708        3.0085375771
Mo            0.7392167442        4.7791953004       -0.5800706173    0   0   0
Mo            5.2792612426        0.4116487985       -2.9781440869    0   0   0
Mo            2.2700124587        2.1837783271       -0.6189623920    0   0   0
Mo            3.7485236236        3.0070800129       -2.9392308347    0   0   0
Mo            2.2700105426        0.4116548508       -2.9392421924    0   0   0
Mo            3.7485255320        4.7792017265       -0.6189764629    0   0   0
Mo            0.7392177667        3.0070811614       -2.9781344898    0   0   0
Mo            5.2792636652        2.1837859330       -0.5800662869    0   0   0
C             2.2717377014        3.8931506703       -4.1382749192    0   0   0
C             3.7467898018        1.2977009536       -4.1382840371    0   0   0
C             0.7374903379        1.2977088082       -1.7791006817    0   0   0
C             5.2809983604        3.8931527405       -1.7791049444    0   0   0
Mo            0.8519037902        9.8898020677        4.0205138977
Mo            5.2841805566        5.6313692508        1.7617626237
Mo            2.3412313947        7.4570375954        3.9535452388
Mo            3.7389388685        8.1948161058        1.7895589565
Mo            2.2795829686        5.5993929833        1.7895629690
Mo            3.6773013195       10.0524648057        3.9535759693
Mo            0.7343339418        8.2268063242        1.7617780801
Mo            5.1666019028        7.2943362019        4.0205159001
C             2.2590979934        9.0832857011        0.5627831175
C             3.7594060929        6.4878400538        0.5627920283
C             0.7699169661        6.4969404355        3.0085320331
C             5.2485952810        9.0923679421        3.0085444998
Mo            0.7392125303        9.9700514394       -0.5800706173    0   0   0
Mo            5.2792570287        5.6025049375       -2.9781440869    0   0   0
Mo            2.2700082447        7.3746344661       -0.6189623920    0   0   0
Mo            3.7485194097        8.1979361519       -2.9392308347    0   0   0
Mo            2.2700063286        5.6025109898       -2.9392421924    0   0   0
Mo            3.7485213181        9.9700578655       -0.6189764629    0   0   0
Mo            0.7392135528        8.1979373004       -2.9781344898    0   0   0
Mo            5.2792594512        7.3746420720       -0.5800662869    0   0   0
C             2.2717334874        9.0840068093       -4.1382749192    0   0   0
C             3.7467855878        6.4885570926       -4.1382840371    0   0   0
C             0.7374861240        6.4885649472       -1.7791006817    0   0   0
C             5.2809941464        9.0840088795       -1.7791049444    0   0   0
Mo            6.8704427480        4.6989254900        4.0205294763
Mo           11.3027111809        0.4405132347        1.7617834988
Mo            8.3597404456        2.2661986293        3.9535846946
Mo            9.7574692744        3.0039590707        1.7895707252
Mo            8.2981117281        0.4085395061        1.7895547277
Mo            9.6958141852        4.8615646921        3.9535636685
Mo            6.7528735175        3.0359546903        1.7617657104
Mo           11.1851394535        2.1034931561        4.0205053401
C             8.2776348689        3.8924259634        0.5627755356
C             9.7779473871        1.2969815547        0.5627956661
C             6.7884557633        1.3060926831        3.0085298267
C            11.2671231759        3.9015153422        3.0085381623
Mo            6.7577553652        4.7791953004       -0.5800706173    0   0   0
Mo           11.2977998636        0.4116487985       -2.9781440869    0   0   0
Mo            8.2885510797        2.1837783271       -0.6189623920    0   0   0
Mo            9.7670622446        3.0070800129       -2.9392308347    0   0   0
Mo            8.2885491636        0.4116548508       -2.9392421924    0   0   0
Mo            9.7670641530        4.7792017265       -0.6189764629    0   0   0
Mo            6.7577563877        3.0070811614       -2.9781344898    0   0   0
Mo           11.2978022862        2.1837859330       -0.5800662869    0   0   0
C             8.2902763224        3.8931506703       -4.1382749192    0   0   0
C             9.7653284228        1.2977009536       -4.1382840371    0   0   0
C             6.7560289589        1.2977088082       -1.7791006817    0   0   0
C            11.2995369814        3.8931527405       -1.7791049444    0   0   0
Mo            6.8704285379        9.8897999186        4.0205344688
Mo           11.3027123629        5.6313571195        1.7617842965
Mo            8.3597402582        7.4570370430        3.9535658074
Mo            9.7574577193        8.1948188386        1.7895643466
Mo            8.2980993720        5.5993910241        1.7895570386
Mo            9.6958124683       10.0524509356        3.9535673515
Mo            6.7528561291        8.2268057281        1.7617679606
Mo           11.1851289046        7.2943402751        4.0205036996
C             8.2776346174        9.0832816171        0.5627738742
C             9.7779411017        6.4878362936        0.5627861918
C             6.7884505775        6.4969373042        3.0085285448
C            11.2671198127        9.0923709643        3.0085450725
Mo            6.7577511513        9.9700514394       -0.5800706173    0   0   0
Mo           11.2977956497        5.6025049375       -2.9781440869    0   0   0
Mo            8.2885468657        7.3746344661       -0.6189623920    0   0   0
Mo            9.7670580307        8.1979361519       -2.9392308347    0   0   0
Mo            8.2885449496        5.6025109898       -2.9392421924    0   0   0
Mo            9.7670599391        9.9700578655       -0.6189764629    0   0   0
Mo            6.7577521738        8.1979373004       -2.9781344898    0   0   0
Mo           11.2977980722        7.3746420720       -0.5800662869    0   0   0
C             8.2902721084        9.0840068093       -4.1382749192    0   0   0
C             9.7653242088        6.4885570926       -4.1382840371    0   0   0
C             6.7560247450        6.4885649472       -1.7791006817    0   0   0
C            11.2995327674        9.0840088795       -1.7791049444    0   0   0
End final coordinates



     Writing all to output data dir ./outdir/pwscf.save/
 
     init_run     :     46.15s CPU     47.20s WALL (       1 calls)
     electrons    :  63688.84s CPU  64634.87s WALL (      15 calls)
     update_pot   :     28.39s CPU     28.51s WALL (      14 calls)
     forces       :    381.89s CPU    392.08s WALL (      15 calls)
     force_dftd3  :      3.22s CPU      3.23s WALL (      15 calls)
     stress       :   7347.66s CPU   7379.78s WALL (      15 calls)
     stres_dftd3  :      3.30s CPU      3.30s WALL (      15 calls)

     Called by init_run:
     wfcinit      :     35.47s CPU     36.13s WALL (       1 calls)
     potinit      :      1.64s CPU      1.67s WALL (       1 calls)
     hinit0       :      6.48s CPU      6.50s WALL (       1 calls)

     Called by electrons:
     c_bands      :  55795.04s CPU  56367.71s WALL (     519 calls)
     sum_band     :   7159.34s CPU   7368.80s WALL (     519 calls)
     v_of_rho     :    149.80s CPU    150.64s WALL (     528 calls)
     newd         :    330.26s CPU    495.14s WALL (     528 calls)
     PAW_pot      :    191.95s CPU    191.93s WALL (     542 calls)
     mix_rho      :     40.89s CPU     41.01s WALL (     519 calls)
     energy_dftd3 :      1.29s CPU      1.29s WALL (      15 calls)

     Called by c_bands:
     init_us_2    :    299.75s CPU    299.84s WALL (    4332 calls)
     init_us_2:cp :    299.73s CPU    299.82s WALL (    4332 calls)
     cegterg      :  54813.84s CPU  55383.69s WALL (    2153 calls)

     Called by *egterg:
     cdiaghg      :   3810.81s CPU   3820.74s WALL (   14622 calls)
     h_psi        :  29181.08s CPU  29341.02s WALL (   14724 calls)
     s_psi        :   4304.30s CPU   4304.97s WALL (   14724 calls)
     g_psi        :     93.70s CPU     93.95s WALL (   12567 calls)

     Called by h_psi:
     h_psi:calbec :   4528.93s CPU   4530.58s WALL (   14724 calls)
     vloc_psi     :  20180.79s CPU  20236.35s WALL (   14724 calls)
     add_vuspsi   :   4367.31s CPU   4367.71s WALL (   14724 calls)

     General routines
     calbec       :   6992.32s CPU   6994.20s WALL (   17156 calls)
     fft          :    134.98s CPU    136.09s WALL (    7214 calls)
     ffts         :      5.16s CPU      5.29s WALL (    1047 calls)
     fftw         :  17114.64s CPU  17156.54s WALL ( 8235660 calls)
     interpolate  :     13.98s CPU     14.08s WALL (     528 calls)
 
     Parallel routines
 
     PWSCF        :     19h53m CPU     20h10m WALL

 
   This run was terminated on:  10:52:11   9Apr2024            

=------------------------------------------------------------------------------=
   JOB DONE.
=------------------------------------------------------------------------------=
Application 12038113 resources: utime ~2578872s, stime ~36060s, Rss ~1309908, inblocks ~0, outblocks ~20933240
