
     Program PWSCF v.7.3 starts on 27Feb2024 at  7:38:24 

     This program is part of the open-source Quantum ESPRESSO suite
     for quantum simulation of materials; please cite
         "P. Giannozzi et al., J. Phys.:Condens. Matter 21 395502 (2009);
         "P. Giannozzi et al., J. Phys.:Condens. Matter 29 465901 (2017);
         "P. Giannozzi et al., J. Chem. Phys. 152 154105 (2020);
          URL http://www.quantum-espresso.org", 
     in publications or presentations arising from this work. More details at
     http://www.quantum-espresso.org/quote

     Parallel version (MPI & OpenMP), running on      36 processor cores
     Number of MPI processes:                36
     Threads/MPI process:                     1

     MPI processes distributed on     1 nodes
     560405 MiB available memory on the printing compute node when the environment starts
 
     Waiting for input...
     Reading input from standard input
Warning: card &CELL ignored
Warning: card / ignored

     Current dimensions of program PWSCF are:
     Max number of different atomic species (ntypx) = 10
     Max number of k-points (npk) =  40000
     Max angular momentum in pseudopotentials (lmaxx) =  4
     file Mo.pbe-spn-kjpaw_psl.1.0.0.UPF: wavefunction(s)  4S 4D renormalized
     file S.pbe-n-kjpaw_psl.1.0.0.UPF: wavefunction(s)  3S 3P renormalized
     file Pt.pbe-spfn-kjpaw_psl.1.0.0.UPF: wavefunction(s)  5P 4F renormalized
 
     R & G space division:  proc/nbgrp/npool/nimage =      36
     Subspace diagonalization in iterative solution of the eigenvalue problem:
     one sub-group per band group will be used
     scalapack distributed-memory algorithm (size of sub-group:  6*  6 procs)

 
     Parallelization info
     --------------------
     sticks:   dense  smooth     PW     G-vecs:    dense   smooth      PW
     Min         585     334     89               198743    85850   11735
     Max         586     335     90               198750    85861   11748
     Sum       21073   12049   3205              7154885  3090769  422587
 
     Using Slab Decomposition
 


     bravais-lattice index     =            0
     lattice parameter (alat)  =      23.8199  a.u.
     unit-cell volume          =   33861.0370 (a.u.)^3
     number of atoms/cell      =          196
     number of atomic types    =            3
     number of electrons       =      1792.00
     number of Kohn-Sham states=         1075
     kinetic-energy cutoff     =      77.0000  Ry
     charge density cutoff     =     539.0000  Ry
     scf convergence threshold =      1.0E-06
     mixing beta               =       0.2000
     number of iterations used =            8  plain     mixing
     energy convergence thresh.=      1.0E-04
     force convergence thresh. =      1.0E-03
     Exchange-correlation= SLA  PW   PBX  PBC
                           (   1   4   3   4   0   0   0)
     nstep                     =         1000


     Effective Screening Medium Method
     =================================
     Boundary Conditions: Vacuum-Slab-Vacuum
     total charge in unit cell        =   0.0000
     grid points for fit at edges     =        4 
 

     celldm(1)=  23.819920  celldm(2)=   0.000000  celldm(3)=   0.000000
     celldm(4)=   0.000000  celldm(5)=   0.000000  celldm(6)=   0.000000

     crystal axes: (cart. coord. in units of alat)
               a(1) = (   1.000000   0.000000   0.000000 )  
               a(2) = (  -0.499999   0.866026   0.000000 )  
               a(3) = (   0.000000   0.000000   2.893000 )  

     reciprocal axes: (cart. coord. in units 2 pi/alat)
               b(1) = (  1.000000  0.577349  0.000000 )  
               b(2) = (  0.000000  1.154700  0.000000 )  
               b(3) = (  0.000000  0.000000  0.345662 )  


     PseudoPot. # 1 for Mo read from file:
     ./pseudo/Mo.pbe-spn-kjpaw_psl.1.0.0.UPF
     MD5 check sum: 317bf72632116215fd98f72de1686f13
     Pseudo is Projector augmented-wave + core cor, Zval = 14.0
     Generated using 'atomic' code by A. Dal Corso  v.7.2
     Shape of augmentation charge: PSQ
     Using radial grid of 1229 points,  6 beta functions with: 
                l(1) =   0
                l(2) =   0
                l(3) =   1
                l(4) =   1
                l(5) =   2
                l(6) =   2
     Q(r) pseudized with 0 coefficients 


     PseudoPot. # 2 for S  read from file:
     ./pseudo/S.pbe-n-kjpaw_psl.1.0.0.UPF
     MD5 check sum: 8b7b5302570d38d5e87fed6a1065abda
     Pseudo is Projector augmented-wave + core cor, Zval =  6.0
     Generated using 'atomic' code by A. Dal Corso  v.7.2
     Shape of augmentation charge: PSQ
     Using radial grid of 1151 points,  6 beta functions with: 
                l(1) =   0
                l(2) =   0
                l(3) =   1
                l(4) =   1
                l(5) =   2
                l(6) =   2
     Q(r) pseudized with 0 coefficients 


     PseudoPot. # 3 for Pt read from file:
     ./pseudo/Pt.pbe-spfn-kjpaw_psl.1.0.0.UPF
     MD5 check sum: 620096ebf4e6ebacc94de60fd67efcb5
     Pseudo is Projector augmented-wave + core cor, Zval = 32.0
     Generated using 'atomic' code by A. Dal Corso  v.7.2
     Shape of augmentation charge: PSQ
     Using radial grid of 1277 points,  8 beta functions with: 
                l(1) =   0
                l(2) =   0
                l(3) =   1
                l(4) =   1
                l(5) =   2
                l(6) =   2
                l(7) =   3
                l(8) =   3
     Q(r) pseudized with 0 coefficients 


     atomic species   valence    mass     pseudopotential
     Mo               14.00    95.95000     Mo( 1.00)
     S                 6.00    32.06000     S ( 1.00)
     Pt               32.00   195.08400     Pt( 1.00)

     No symmetry found



   Cartesian axes

     site n.     atom                  positions (alat units)
         1        Mo     tau(   1) = (   0.0000010   0.1443372  -0.7272732  )
         2        Mo     tau(   2) = (   0.1249995   0.0721706  -0.2424038  )
         3        S      tau(   3) = (   0.0000015   0.1443386  -0.3667807  )
         4        S      tau(   4) = (   0.1250010   0.0721682  -0.6030489  )
         5        S      tau(   5) = (   0.1250010   0.0721683  -0.8514963  )
         6        S      tau(   6) = (   0.0000015   0.1443389  -0.1180260  )
         7        Mo     tau(   7) = (   0.0000230   0.1443712   0.2425269  )
         8        Mo     tau(   8) = (   0.1249867   0.0725178   0.7275998  )
         9        S      tau(   9) = (   0.0002093   0.1447377   0.6026378  )
        10        S      tau(  10) = (   0.1250248   0.0721937   0.3669069  )
        11        S      tau(  11) = (   0.1250128   0.0721922   0.1181335  )
        12        S      tau(  12) = (  -0.0000274   0.1438922   0.8528629  )
        13        Mo     tau(  13) = (  -0.1249989   0.3608437  -0.7272732  )
        14        Mo     tau(  14) = (   0.0000030   0.2886752  -0.2424042  )
        15        S      tau(  15) = (  -0.1249977   0.3608450  -0.3667802  )
        16        S      tau(  16) = (   0.0000012   0.2886747  -0.6030489  )
        17        S      tau(  17) = (   0.0000012   0.2886748  -0.8514963  )
        18        S      tau(  18) = (  -0.1249977   0.3608454  -0.1180274  )
        19        Mo     tau(  19) = (  -0.1249958   0.3608644   0.2424929  )
        20        Mo     tau(  20) = (  -0.0006210   0.2876816   0.7281376  )
        21        S      tau(  21) = (  -0.1249986   0.3611014   0.6029869  )
        22        S      tau(  22) = (  -0.0000108   0.2887184   0.3669017  )
        23        S      tau(  23) = (   0.0000305   0.2886969   0.1181306  )
        24        S      tau(  24) = (  -0.1255088   0.3608435   0.8520375  )
        25        Mo     tau(  25) = (  -0.2499987   0.5773502  -0.7272732  )
        26        Mo     tau(  26) = (  -0.1249977   0.5051839  -0.2424055  )
        27        S      tau(  27) = (  -0.2499981   0.5773518  -0.3667809  )
        28        S      tau(  28) = (  -0.1249986   0.5051812  -0.6030489  )
        29        S      tau(  29) = (  -0.1249986   0.5051813  -0.8514963  )
        30        S      tau(  30) = (  -0.2499979   0.5773512  -0.1180266  )
        31        Mo     tau(  31) = (  -0.2499883   0.5773732   0.2425017  )
        32        Mo     tau(  32) = (  -0.1262470   0.5056710   0.7279701  )
        33        S      tau(  33) = (  -0.2499169   0.5777619   0.6027414  )
        34        S      tau(  34) = (  -0.1250064   0.5051809   0.3668847  )
        35        S      tau(  35) = (  -0.1249755   0.5052117   0.1181187  )
        36        S      tau(  36) = (  -0.2499233   0.5782554   0.8531005  )
        37        Mo     tau(  37) = (  -0.3749985   0.7938567  -0.7272732  )
        38        Mo     tau(  38) = (  -0.2500001   0.7216874  -0.2424031  )
        39        S      tau(  39) = (  -0.3749980   0.7938584  -0.3667800  )
        40        S      tau(  40) = (  -0.2499984   0.7216877  -0.6030489  )
        41        S      tau(  41) = (  -0.2499984   0.7216878  -0.8514963  )
        42        S      tau(  42) = (  -0.3749982   0.7938585  -0.1180264  )
        43        Mo     tau(  43) = (  -0.3749787   0.7938842   0.2425095  )
        44        Mo     tau(  44) = (  -0.2499199   0.7219892   0.7276222  )
        45        S      tau(  45) = (  -0.3746586   0.7943351   0.6030494  )
        46        S      tau(  46) = (  -0.2499875   0.7217038   0.3668883  )
        47        S      tau(  47) = (  -0.2499889   0.7217145   0.1181177  )
        48        S      tau(  48) = (  -0.3739979   0.7948393   0.8523184  )
        49        Mo     tau(  49) = (   0.2500010   0.1443372  -0.7272732  )
        50        Mo     tau(  50) = (   0.3750034   0.0721723  -0.2424032  )
        51        S      tau(  51) = (   0.2500017   0.1443391  -0.3667788  )
        52        S      tau(  52) = (   0.3750010   0.0721682  -0.6030489  )
        53        S      tau(  53) = (   0.3750010   0.0721683  -0.8514963  )
        54        S      tau(  54) = (   0.2500016   0.1443391  -0.1180271  )
        55        Mo     tau(  55) = (   0.2500111   0.1443636   0.2425213  )
        56        Mo     tau(  56) = (   0.3751699   0.0725160   0.7276030  )
        57        S      tau(  57) = (   0.2500801   0.1448073   0.6033098  )
        58        S      tau(  58) = (   0.3749977   0.0721932   0.3669072  )
        59        S      tau(  59) = (   0.3750084   0.0721925   0.1181336  )
        60        S      tau(  60) = (   0.2500790   0.1429549   0.8525875  )
        61        Mo     tau(  61) = (   0.1250012   0.3608437  -0.7272732  )
        62        Mo     tau(  62) = (   0.2500029   0.2886782  -0.2424031  )
        63        S      tau(  63) = (   0.1250024   0.3608455  -0.3667794  )
        64        S      tau(  64) = (   0.2500012   0.2886747  -0.6030489  )
        65        S      tau(  65) = (   0.2500012   0.2886748  -0.8514963  )
        66        S      tau(  66) = (   0.1250021   0.3608455  -0.1180270  )
        67        Mo     tau(  67) = (   0.1250079   0.3608745   0.2425358  )
        68        Mo     tau(  68) = (   0.2500788   0.2877674   0.7291598  )
        69        S      tau(  69) = (   0.1244735   0.3597560   0.6045890  )
        70        S      tau(  70) = (   0.2500111   0.2887090   0.3669097  )
        71        S      tau(  71) = (   0.2500111   0.2887102   0.1181486  )
        72        S      tau(  72) = (   0.1236658   0.3543432   0.8568056  )
        73        Mo     tau(  73) = (   0.0000014   0.5773502  -0.7272732  )
        74        Mo     tau(  74) = (   0.1250045   0.5051840  -0.2424036  )
        75        S      tau(  75) = (   0.0000030   0.5773520  -0.3667799  )
        76        S      tau(  76) = (   0.1250014   0.5051812  -0.6030489  )
        77        S      tau(  77) = (   0.1250014   0.5051813  -0.8514963  )
        78        S      tau(  78) = (   0.0000026   0.5773517  -0.1180274  )
        79        Mo     tau(  79) = (   0.0000087   0.5773639   0.2425236  )
        80        Mo     tau(  80) = (   0.1209903   0.5033012   0.7272165  )
        81        S      tau(  81) = (  -0.0014014   0.5777661   0.6041268  )
        82        S      tau(  82) = (   0.1249517   0.5051756   0.3669964  )
        83        S      tau(  83) = (   0.1250521   0.5052287   0.1181910  )
        84        S      tau(  84) = (  -0.0061845   0.5800280   0.8563265  )
        85        Mo     tau(  85) = (  -0.1249984   0.7938567  -0.7272732  )
        86        Mo     tau(  86) = (   0.0000069   0.7216896  -0.2424039  )
        87        S      tau(  87) = (  -0.1249975   0.7938582  -0.3667782  )
        88        S      tau(  88) = (   0.0000016   0.7216877  -0.6030489  )
        89        S      tau(  89) = (   0.0000016   0.7216878  -0.8514963  )
        90        S      tau(  90) = (  -0.1249973   0.7938582  -0.1180279  )
        91        Mo     tau(  91) = (  -0.1249975   0.7938843   0.2425092  )
        92        Mo     tau(  92) = (  -0.0007899   0.7227600   0.7282960  )
        93        S      tau(  93) = (  -0.1251774   0.7943316   0.6030551  )
        94        S      tau(  94) = (  -0.0000138   0.7216999   0.3668738  )
        95        S      tau(  95) = (   0.0000288   0.7217121   0.1181462  )
        96        S      tau(  96) = (  -0.1258450   0.7948394   0.8523250  )
        97        Mo     tau(  97) = (   0.5000010   0.1443372  -0.7272732  )
        98        Mo     tau(  98) = (   0.6250001   0.0721662  -0.2424040  )
        99        S      tau(  99) = (   0.5000017   0.1443386  -0.3667801  )
       100        S      tau( 100) = (   0.6250010   0.0721682  -0.6030489  )
       101        S      tau( 101) = (   0.6250010   0.0721683  -0.8514963  )
       102        S      tau( 102) = (   0.5000020   0.1443388  -0.1180261  )
       103        Mo     tau( 103) = (   0.4999989   0.1443712   0.2425278  )
       104        Mo     tau( 104) = (   0.6243689   0.0731804   0.7272851  )
       105        S      tau( 105) = (   0.4999447   0.1447347   0.6026410  )
       106        S      tau( 106) = (   0.6250245   0.0722486   0.3668874  )
       107        S      tau( 107) = (   0.6250029   0.0721910   0.1181481  )
       108        S      tau( 108) = (   0.5001837   0.1438964   0.8528629  )
       109        Mo     tau( 109) = (   0.3750012   0.3608437  -0.7272732  )
       110        Mo     tau( 110) = (   0.4999991   0.2886761  -0.2424038  )
       111        S      tau( 111) = (   0.3750012   0.3608452  -0.3667804  )
       112        S      tau( 112) = (   0.5000012   0.2886747  -0.6030489  )
       113        S      tau( 113) = (   0.5000012   0.2886748  -0.8514963  )
       114        S      tau( 114) = (   0.3750014   0.3608455  -0.1180261  )
       115        Mo     tau( 115) = (   0.3750146   0.3608745   0.2425370  )
       116        Mo     tau( 116) = (   0.5007788   0.2876832   0.7281334  )
       117        S      tau( 117) = (   0.3756833   0.3597573   0.6045859  )
       118        S      tau( 118) = (   0.5000340   0.2887182   0.3669032  )
       119        S      tau( 119) = (   0.4999907   0.2886969   0.1181320  )
       120        S      tau( 120) = (   0.3764967   0.3543505   0.8567962  )
       121        Mo     tau( 121) = (   0.2500014   0.5773502  -0.7272732  )
       122        Mo     tau( 122) = (   0.3749983   0.5051825  -0.2424043  )
       123        S      tau( 123) = (   0.2500017   0.5773519  -0.3667810  )
       124        S      tau( 124) = (   0.3750014   0.5051812  -0.6030489  )
       125        S      tau( 125) = (   0.3750014   0.5051813  -0.8514963  )
       126        S      tau( 126) = (   0.2500018   0.5773519  -0.1180256  )
       127        Mo     tau( 127) = (   0.2500115   0.5773719   0.2426512  )
       128        Mo     tau( 128) = (   0.3791729   0.5033056   0.7272074  )
       129        S      tau( 129) = (   0.2500765   0.5763965   0.6051588  )
       130        S      tau( 130) = (   0.3750717   0.5051759   0.3669972  )
       131        S      tau( 131) = (   0.3749706   0.5052286   0.1181923  )
       132        S      tau( 132) = (   0.2500899   0.5799121   0.8392252  )
       133        Mo     tau( 133) = (   0.1250016   0.7938567  -0.7272732  )
       134        Mo     tau( 134) = (   0.2499995   0.7216883  -0.2424036  )
       135        S      tau( 135) = (   0.1250024   0.7938578  -0.3667813  )
       136        S      tau( 136) = (   0.2500016   0.7216877  -0.6030489  )
       137        S      tau( 137) = (   0.2500016   0.7216878  -0.8514963  )
       138        S      tau( 138) = (   0.1250024   0.7938579  -0.1180253  )
       139        Mo     tau( 139) = (   0.1250129   0.7938938   0.2425556  )
       140        Mo     tau( 140) = (   0.2500802   0.7270014   0.7242463  )
       141        S      tau( 141) = (   0.1231636   0.7956739   0.6024103  )
       142        S      tau( 142) = (   0.2500119   0.7217620   0.3670249  )
       143        S      tau( 143) = (   0.2500114   0.7216815   0.1182188  )
       144        S      tau( 144) = (   0.1225216   0.7969746   0.8545342  )
       145        Mo     tau( 145) = (   0.7500010   0.1443372  -0.7272732  )
       146        Mo     tau( 146) = (   0.8750038   0.0721696  -0.2424038  )
       147        S      tau( 147) = (   0.7500016   0.1443382  -0.3667789  )
       148        S      tau( 148) = (   0.8750010   0.0721682  -0.6030489  )
       149        S      tau( 149) = (   0.8750010   0.0721683  -0.8514963  )
       150        S      tau( 150) = (   0.7500016   0.1443384  -0.1180279  )
       151        Mo     tau( 151) = (   0.7500110   0.1443947   0.2425040  )
       152        Mo     tau( 152) = (   0.8757862   0.0731829   0.7272816  )
       153        S      tau( 153) = (   0.7500748   0.1450423   0.6025653  )
       154        S      tau( 154) = (   0.8749987   0.0722492   0.3668870  )
       155        S      tau( 155) = (   0.8750176   0.0721906   0.1181477  )
       156        S      tau( 156) = (   0.7500778   0.1449243   0.8514228  )
       157        Mo     tau( 157) = (   0.6250012   0.3608437  -0.7272732  )
       158        Mo     tau( 158) = (   0.7500028   0.2886769  -0.2424041  )
       159        S      tau( 159) = (   0.6250015   0.3608451  -0.3667792  )
       160        S      tau( 160) = (   0.7500012   0.2886747  -0.6030489  )
       161        S      tau( 161) = (   0.7500012   0.2886748  -0.8514963  )
       162        S      tau( 162) = (   0.6250016   0.3608454  -0.1180280  )
       163        Mo     tau( 163) = (   0.6250184   0.3608643   0.2424940  )
       164        Mo     tau( 164) = (   0.7500774   0.2890118   0.7272896  )
       165        S      tau( 165) = (   0.6251553   0.3611012   0.6029824  )
       166        S      tau( 166) = (   0.7500123   0.2887289   0.3669046  )
       167        S      tau( 167) = (   0.7500103   0.2886963   0.1180999  )
       168        S      tau( 168) = (   0.6256637   0.3608479   0.8520333  )
       169        Mo     tau( 169) = (   0.5000014   0.5773502  -0.7272732  )
       170        Mo     tau( 170) = (   0.6250029   0.5051841  -0.2424047  )
       171        S      tau( 171) = (   0.5000014   0.5773518  -0.3667794  )
       172        S      tau( 172) = (   0.6250014   0.5051812  -0.6030489  )
       173        S      tau( 173) = (   0.6250014   0.5051813  -0.8514963  )
       174        S      tau( 174) = (   0.5000016   0.5773516  -0.1180277  )
       175        Mo     tau( 175) = (   0.5000146   0.5773640   0.2425251  )
       176        Mo     tau( 176) = (   0.6264057   0.5056734   0.7279633  )
       177        S      tau( 177) = (   0.5015634   0.5777701   0.6041170  )
       178        S      tau( 178) = (   0.6250313   0.5051810   0.3668857  )
       179        S      tau( 179) = (   0.6249971   0.5052115   0.1181199  )
       180        S      tau( 180) = (   0.5063414   0.5800296   0.8563131  )
       181        Mo     tau( 181) = (   0.3750016   0.7938567  -0.7272732  )
       182        Mo     tau( 182) = (   0.5000025   0.7216901  -0.2424039  )
       183        S      tau( 183) = (   0.3750019   0.7938578  -0.3667793  )
       184        S      tau( 184) = (   0.5000016   0.7216877  -0.6030489  )
       185        S      tau( 185) = (   0.5000016   0.7216878  -0.8514963  )
       186        S      tau( 186) = (   0.3750020   0.7938579  -0.1180272  )
       187        Mo     tau( 187) = (   0.3750108   0.7938939   0.2425560  )
       188        Mo     tau( 188) = (   0.5009495   0.7227634   0.7282854  )
       189        S      tau( 189) = (   0.3769918   0.7956794   0.6024036  )
       190        S      tau( 190) = (   0.5000383   0.7217005   0.3668747  )
       191        S      tau( 191) = (   0.4999937   0.7217116   0.1181471  )
       192        S      tau( 192) = (   0.3776488   0.7969772   0.8545292  )
       193        Pt     tau( 193) = (   0.1378817   0.5110564   0.9612952  )
       194        Pt     tau( 194) = (   0.3622975   0.5110399   0.9613099  )
       195        Pt     tau( 195) = (   0.2501204   0.7025104   0.9686980  )
       196        Pt     tau( 196) = (   0.2500603   0.2877439   0.9758064  )

     --------------------------------------------
     DFT-D3 Dispersion Correction (3-body terms):
     --------------------------------------------
       Reference C6 values for interpolation: 

         atom   Coordination number   C6
         S          0.000           268.01
         S          0.995           261.99
         S          1.990           251.62
         Mo         0.000          1691.79
         Mo         1.942          1004.01
         Mo        11.056           674.22
         Pt         0.000           782.29
         Pt         1.919           692.72
         Pt         6.667           673.75

       Values used:

         atom   Coordination number  R0_AB[au]  C6      C8
         Mo        10.208            3.547    674.22  77634.20
         Mo        10.221            3.547    674.22  77634.20
         S          3.858            3.128    251.62  12327.25
         S          3.859            3.128    251.62  12327.25
         S          3.758            3.128    251.62  12327.25
         S          3.859            3.128    251.62  12327.25
         Mo        10.221            3.547    674.22  77634.20
         Mo        10.278            3.547    674.22  77634.20
         S          3.872            3.128    251.62  12327.25
         S          3.859            3.128    251.62  12327.25
         S          3.859            3.128    251.62  12327.25
         S          3.822            3.128    251.62  12327.25
         Mo        10.208            3.547    674.22  77634.20
         Mo        10.221            3.547    674.22  77634.20
         S          3.858            3.128    251.62  12327.25
         S          3.859            3.128    251.62  12327.25
         S          3.758            3.128    251.62  12327.25
         S          3.859            3.128    251.62  12327.25
         Mo        10.222            3.547    674.22  77634.20
         Mo        10.281            3.547    674.22  77634.20
         S          3.867            3.128    251.62  12327.25
         S          3.859            3.128    251.62  12327.25
         S          3.858            3.128    251.62  12327.25
         S          3.779            3.128    251.62  12327.25
         Mo        10.208            3.547    674.22  77634.20
         Mo        10.221            3.547    674.22  77634.20
         S          3.858            3.128    251.62  12327.25
         S          3.859            3.128    251.62  12327.25
         S          3.758            3.128    251.62  12327.25
         S          3.859            3.128    251.62  12327.25
         Mo        10.221            3.547    674.22  77634.20
         Mo        10.275            3.547    674.22  77634.20
         S          3.866            3.128    251.62  12327.25
         S          3.859            3.128    251.62  12327.25
         S          3.858            3.128    251.62  12327.25
         S          3.822            3.128    251.62  12327.25
         Mo        10.208            3.547    674.22  77634.20
         Mo        10.221            3.547    674.22  77634.20
         S          3.858            3.128    251.62  12327.25
         S          3.859            3.128    251.62  12327.25
         S          3.758            3.128    251.62  12327.25
         S          3.859            3.128    251.62  12327.25
         Mo        10.221            3.547    674.22  77634.20
         Mo        10.265            3.547    674.22  77634.20
         S          3.870            3.128    251.62  12327.25
         S          3.859            3.128    251.62  12327.25
         S          3.859            3.128    251.62  12327.25
         S          3.817            3.128    251.62  12327.25
         Mo        10.208            3.547    674.22  77634.20
         Mo        10.221            3.547    674.22  77634.20
         S          3.858            3.128    251.62  12327.25
         S          3.859            3.128    251.62  12327.25
         S          3.758            3.128    251.62  12327.25
         S          3.859            3.128    251.62  12327.25
         Mo        10.221            3.547    674.22  77634.20
         Mo        10.277            3.547    674.22  77634.20
         S          3.868            3.128    251.62  12327.25
         S          3.858            3.128    251.62  12327.25
         S          3.859            3.128    251.62  12327.25
         S          4.777            3.128    251.62  12327.25
         Mo        10.208            3.547    674.22  77634.20
         Mo        10.221            3.547    674.22  77634.20
         S          3.858            3.128    251.62  12327.25
         S          3.859            3.128    251.62  12327.25
         S          3.758            3.128    251.62  12327.25
         S          3.859            3.128    251.62  12327.25
         Mo        10.221            3.547    674.22  77634.20
         Mo        10.752            3.547    674.22  77634.20
         S          3.839            3.128    251.62  12327.25
         S          3.855            3.128    251.62  12327.25
         S          3.859            3.128    251.62  12327.25
         S          5.629            3.128    251.62  12327.25
         Mo        10.208            3.547    674.22  77634.20
         Mo        10.221            3.547    674.22  77634.20
         S          3.858            3.128    251.62  12327.25
         S          3.859            3.128    251.62  12327.25
         S          3.758            3.128    251.62  12327.25
         S          3.859            3.128    251.62  12327.25
         Mo        10.220            3.547    674.22  77634.20
         Mo        10.739            3.547    674.22  77634.20
         S          3.833            3.128    251.62  12327.25
         S          3.851            3.128    251.62  12327.25
         S          3.859            3.128    251.62  12327.25
         S          4.664            3.128    251.62  12327.25
         Mo        10.208            3.547    674.22  77634.20
         Mo        10.221            3.547    674.22  77634.20
         S          3.858            3.128    251.62  12327.25
         S          3.859            3.128    251.62  12327.25
         S          3.758            3.128    251.62  12327.25
         S          3.859            3.128    251.62  12327.25
         Mo        10.221            3.547    674.22  77634.20
         Mo        10.219            3.547    674.22  77634.20
         S          3.870            3.128    251.62  12327.25
         S          3.858            3.128    251.62  12327.25
         S          3.859            3.128    251.62  12327.25
         S          3.817            3.128    251.62  12327.25
         Mo        10.208            3.547    674.22  77634.20
         Mo        10.221            3.547    674.22  77634.20
         S          3.858            3.128    251.62  12327.25
         S          3.859            3.128    251.62  12327.25
         S          3.758            3.128    251.62  12327.25
         S          3.859            3.128    251.62  12327.25
         Mo        10.221            3.547    674.22  77634.20
         Mo        10.287            3.547    674.22  77634.20
         S          3.872            3.128    251.62  12327.25
         S          3.861            3.128    251.62  12327.25
         S          3.859            3.128    251.62  12327.25
         S          3.822            3.128    251.62  12327.25
         Mo        10.208            3.547    674.22  77634.20
         Mo        10.221            3.547    674.22  77634.20
         S          3.858            3.128    251.62  12327.25
         S          3.859            3.128    251.62  12327.25
         S          3.758            3.128    251.62  12327.25
         S          3.859            3.128    251.62  12327.25
         Mo        10.221            3.547    674.22  77634.20
         Mo        10.281            3.547    674.22  77634.20
         S          3.839            3.128    251.62  12327.25
         S          3.859            3.128    251.62  12327.25
         S          3.858            3.128    251.62  12327.25
         S          5.629            3.128    251.62  12327.25
         Mo        10.208            3.547    674.22  77634.20
         Mo        10.221            3.547    674.22  77634.20
         S          3.858            3.128    251.62  12327.25
         S          3.859            3.128    251.62  12327.25
         S          3.758            3.128    251.62  12327.25
         S          3.859            3.128    251.62  12327.25
         Mo        10.220            3.547    674.22  77634.20
         Mo        10.738            3.547    674.21  77634.20
         S          3.909            3.128    251.62  12327.25
         S          3.851            3.128    251.62  12327.25
         S          3.859            3.128    251.62  12327.25
         S          6.715            3.128    251.62  12327.25
         Mo        10.208            3.547    674.22  77634.20
         Mo        10.221            3.547    674.22  77634.20
         S          3.858            3.128    251.62  12327.25
         S          3.859            3.128    251.62  12327.25
         S          3.758            3.128    251.62  12327.25
         S          3.859            3.128    251.62  12327.25
         Mo        10.220            3.547    674.22  77634.20
         Mo        10.595            3.547    674.22  77634.20
         S          3.826            3.128    251.62  12327.25
         S          3.853            3.128    251.62  12327.25
         S          3.859            3.128    251.62  12327.25
         S          4.658            3.128    251.62  12327.25
         Mo        10.208            3.547    674.22  77634.20
         Mo        10.221            3.547    674.22  77634.20
         S          3.858            3.128    251.62  12327.25
         S          3.859            3.128    251.62  12327.25
         S          3.758            3.128    251.62  12327.25
         S          3.859            3.128    251.62  12327.25
         Mo        10.221            3.547    674.22  77634.20
         Mo        10.287            3.547    674.22  77634.20
         S          3.865            3.128    251.62  12327.25
         S          3.861            3.128    251.62  12327.25
         S          3.859            3.128    251.62  12327.25
         S          3.786            3.128    251.62  12327.25
         Mo        10.208            3.547    674.22  77634.20
         Mo        10.220            3.547    674.22  77634.20
         S          3.858            3.128    251.62  12327.25
         S          3.859            3.128    251.62  12327.25
         S          3.758            3.128    251.62  12327.25
         S          3.859            3.128    251.62  12327.25
         Mo        10.222            3.547    674.22  77634.20
         Mo        10.250            3.547    674.22  77634.20
         S          3.867            3.128    251.62  12327.25
         S          3.860            3.128    251.62  12327.25
         S          3.858            3.128    251.62  12327.25
         S          3.779            3.128    251.62  12327.25
         Mo        10.208            3.547    674.22  77634.20
         Mo        10.221            3.547    674.22  77634.20
         S          3.858            3.128    251.62  12327.25
         S          3.859            3.128    251.62  12327.25
         S          3.758            3.128    251.62  12327.25
         S          3.859            3.128    251.62  12327.25
         Mo        10.220            3.547    674.22  77634.20
         Mo        10.275            3.547    674.22  77634.20
         S          3.833            3.128    251.62  12327.25
         S          3.859            3.128    251.62  12327.25
         S          3.858            3.128    251.62  12327.25
         S          4.664            3.128    251.62  12327.25
         Mo        10.208            3.547    674.22  77634.20
         Mo        10.221            3.547    674.22  77634.20
         S          3.858            3.128    251.62  12327.25
         S          3.859            3.128    251.62  12327.25
         S          3.758            3.128    251.62  12327.25
         S          3.859            3.128    251.62  12327.25
         Mo        10.220            3.547    674.22  77634.20
         Mo        10.219            3.547    674.22  77634.20
         S          3.826            3.128    251.62  12327.25
         S          3.858            3.128    251.62  12327.25
         S          3.859            3.128    251.62  12327.25
         S          4.659            3.128    251.62  12327.25
         Pt         5.517            3.168    673.75  70061.90
         Pt         5.517            3.168    673.75  70061.90
         Pt         5.017            3.168    673.75  70061.90
         Pt         4.146            3.168    692.65  72027.51

         Molecular C6 ( Ry / a.u.^6 ) =  14392311.40


     number of k points=     4  Gaussian smearing, width (Ry)=  0.0100
                       cart. coord. in units 2pi/alat
        k(    1) = (   0.0000000   0.0000000   0.0000000), wk =   0.5000000
        k(    2) = (   0.0000000  -0.5773499   0.0000000), wk =   0.5000000
        k(    3) = (  -0.5000000  -0.2886744   0.0000000), wk =   0.5000000
        k(    4) = (  -0.5000000  -0.8660242   0.0000000), wk =   0.5000000

     Dense  grid:  7154885 G-vectors     FFT dimensions: ( 180, 180, 512)

     Smooth grid:  3090769 G-vectors     FFT dimensions: ( 135, 135, 400)

     Estimated max dynamical RAM per process >       4.35 GB

     Estimated total dynamical RAM >     156.53 GB

     Atomic positions and unit cell read from directory:
     ./outdir/pwscf.save/
     Atomic positions from file used, from input discarded
 

     The initial density is read from file :
     ./outdir/pwscf.save/charge-density


     negative rho (up, down):  8.815E-04 0.000E+00
     Cannot read wfcs: file not found
     Starting wfcs are 1220 randomized atomic wfcs
     Checking if some PAW data can be deallocated... 

     total cpu time spent up to now is      186.9 secs

     Self-consistent Calculation

     iteration #  1     ecut=    77.00 Ry     beta= 0.20
     Davidson diagonalization with overlap
     c_bands:  4 eigenvalues not converged
     c_bands: 10 eigenvalues not converged
     c_bands: 13 eigenvalues not converged
     c_bands: 12 eigenvalues not converged
     ethr =  1.00E-05,  avg # of iterations =120.0

     negative rho (up, down):  8.225E-04 0.000E+00

     total cpu time spent up to now is    11573.9 secs

     total energy              =  -38492.84490395 Ry
     estimated scf accuracy    <       5.17087190 Ry

     iteration #  2     ecut=    77.00 Ry     beta= 0.20
     Davidson diagonalization with overlap
     ethr =  2.89E-04,  avg # of iterations =  6.2

     negative rho (up, down):  7.889E-04 0.000E+00

     total cpu time spent up to now is    12030.0 secs

     total energy              =  -38492.45353395 Ry
     estimated scf accuracy    <       2.36620720 Ry

     iteration #  3     ecut=    77.00 Ry     beta= 0.20
     Davidson diagonalization with overlap
     ethr =  1.32E-04,  avg # of iterations =  6.0

     negative rho (up, down):  7.450E-04 0.000E+00

     total cpu time spent up to now is    12488.5 secs

     total energy              =  -38492.18271720 Ry
     estimated scf accuracy    <       1.10967572 Ry

     iteration #  4     ecut=    77.00 Ry     beta= 0.20
     Davidson diagonalization with overlap
     ethr =  6.19E-05,  avg # of iterations =  8.5

     negative rho (up, down):  7.366E-04 0.000E+00

     total cpu time spent up to now is    12997.7 secs

     total energy              =  -38492.34637322 Ry
     estimated scf accuracy    <       0.18809646 Ry

     iteration #  5     ecut=    77.00 Ry     beta= 0.20
     Davidson diagonalization with overlap
     c_bands:  1 eigenvalues not converged
     c_bands:  1 eigenvalues not converged
     c_bands:  3 eigenvalues not converged
     ethr =  1.05E-05,  avg # of iterations = 17.0

     negative rho (up, down):  7.318E-04 0.000E+00

     total cpu time spent up to now is    13502.2 secs

     total energy              =  -38492.31959618 Ry
     estimated scf accuracy    <       0.09952743 Ry

     iteration #  6     ecut=    77.00 Ry     beta= 0.20
     Davidson diagonalization with overlap
     c_bands:  1 eigenvalues not converged
     c_bands:  1 eigenvalues not converged
     c_bands:  3 eigenvalues not converged
     c_bands:  2 eigenvalues not converged
     ethr =  5.55E-06,  avg # of iterations = 20.0

     negative rho (up, down):  7.302E-04 0.000E+00

     total cpu time spent up to now is    14035.4 secs

     total energy              =  -38492.31068259 Ry
     estimated scf accuracy    <       0.04511673 Ry

     iteration #  7     ecut=    77.00 Ry     beta= 0.20
     Davidson diagonalization with overlap
     c_bands:  1 eigenvalues not converged
     c_bands:  1 eigenvalues not converged
     c_bands:  4 eigenvalues not converged
     c_bands:  4 eigenvalues not converged
     ethr =  2.52E-06,  avg # of iterations = 55.0

     negative rho (up, down):  7.384E-04 0.000E+00

     total cpu time spent up to now is    15449.3 secs

     total energy              =  -38492.32063978 Ry
     estimated scf accuracy    <       0.01308000 Ry

     iteration #  8     ecut=    77.00 Ry     beta= 0.20
     Davidson diagonalization with overlap
     c_bands:  1 eigenvalues not converged
     c_bands:  1 eigenvalues not converged
     c_bands:  2 eigenvalues not converged
     c_bands:  1 eigenvalues not converged
     ethr =  7.30E-07,  avg # of iterations = 20.0

     negative rho (up, down):  7.563E-04 0.000E+00

     total cpu time spent up to now is    16004.8 secs

     total energy              =  -38492.32159124 Ry
     estimated scf accuracy    <       0.00527761 Ry

     iteration #  9     ecut=    77.00 Ry     beta= 0.20
     Davidson diagonalization with overlap
     c_bands:  1 eigenvalues not converged
     c_bands:  1 eigenvalues not converged
     c_bands:  2 eigenvalues not converged
     ethr =  2.95E-07,  avg # of iterations = 17.2

     negative rho (up, down):  7.859E-04 0.000E+00

     total cpu time spent up to now is    16764.8 secs

     total energy              =  -38492.32355367 Ry
     estimated scf accuracy    <       0.00254012 Ry

     iteration # 10     ecut=    77.00 Ry     beta= 0.20
     Davidson diagonalization with overlap
     c_bands:  1 eigenvalues not converged
     c_bands:  3 eigenvalues not converged
     ethr =  1.42E-07,  avg # of iterations = 26.5

     negative rho (up, down):  8.051E-04 0.000E+00

     total cpu time spent up to now is    17547.3 secs

     total energy              =  -38492.32407259 Ry
     estimated scf accuracy    <       0.00064071 Ry

     iteration # 11     ecut=    77.00 Ry     beta= 0.20
     Davidson diagonalization with overlap
     c_bands:  2 eigenvalues not converged
     c_bands:  2 eigenvalues not converged
     ethr =  3.58E-08,  avg # of iterations = 18.0

     negative rho (up, down):  8.306E-04 0.000E+00

     total cpu time spent up to now is    18479.0 secs

     total energy              =  -38492.32457330 Ry
     estimated scf accuracy    <       0.00030501 Ry

     iteration # 12     ecut=    77.00 Ry     beta= 0.20
     Davidson diagonalization with overlap
     c_bands:  1 eigenvalues not converged
     ethr =  1.70E-08,  avg # of iterations = 18.2

     negative rho (up, down):  8.470E-04 0.000E+00

     total cpu time spent up to now is    19152.5 secs

     total energy              =  -38492.32460743 Ry
     estimated scf accuracy    <       0.00011992 Ry

     iteration # 13     ecut=    77.00 Ry     beta= 0.20
     Davidson diagonalization with overlap
     ethr =  6.69E-09,  avg # of iterations = 12.8

     negative rho (up, down):  8.585E-04 0.000E+00

     total cpu time spent up to now is    20054.9 secs

     total energy              =  -38492.32469233 Ry
     estimated scf accuracy    <       0.00005543 Ry

     iteration # 14     ecut=    77.00 Ry     beta= 0.20
     Davidson diagonalization with overlap
     ethr =  3.09E-09,  avg # of iterations = 12.2

     negative rho (up, down):  8.643E-04 0.000E+00

     total cpu time spent up to now is    20725.7 secs

     total energy              =  -38492.32470907 Ry
     estimated scf accuracy    <       0.00001689 Ry

     iteration # 15     ecut=    77.00 Ry     beta= 0.20
     Davidson diagonalization with overlap
     ethr =  9.42E-10,  avg # of iterations = 15.5

     negative rho (up, down):  8.705E-04 0.000E+00

     total cpu time spent up to now is    21611.5 secs

     total energy              =  -38492.32471740 Ry
     estimated scf accuracy    <       0.00000798 Ry

     iteration # 16     ecut=    77.00 Ry     beta= 0.20
     Davidson diagonalization with overlap
     ethr =  4.45E-10,  avg # of iterations = 13.5

     negative rho (up, down):  8.751E-04 0.000E+00

     total cpu time spent up to now is    22296.1 secs

     total energy              =  -38492.32471778 Ry
     estimated scf accuracy    <       0.00000278 Ry

     iteration # 17     ecut=    77.00 Ry     beta= 0.20
     Davidson diagonalization with overlap
     c_bands:  1 eigenvalues not converged
     c_bands:  4 eigenvalues not converged
     ethr =  1.55E-10,  avg # of iterations = 17.2

     negative rho (up, down):  8.775E-04 0.000E+00

     total cpu time spent up to now is    23179.4 secs

     total energy              =  -38492.32471841 Ry
     estimated scf accuracy    <       0.00000108 Ry

     iteration # 18     ecut=    77.00 Ry     beta= 0.20
     Davidson diagonalization with overlap
     c_bands:  1 eigenvalues not converged
     ethr =  6.00E-11,  avg # of iterations = 17.8

     negative rho (up, down):  8.814E-04 0.000E+00

     total cpu time spent up to now is    23996.2 secs

     End of self-consistent calculation

          k = 0.0000 0.0000 0.0000 (386245 PWs)   bands (ev):

  -103.0857-103.0188-103.0160-102.5879 -71.4260 -71.4231 -71.4062 -71.3879
   -71.3703 -71.3646 -71.3645 -71.3547 -71.3544 -71.3497 -71.3483 -71.3480
   -71.3437 -71.3436 -71.3379 -71.3259 -71.3254 -71.2929 -71.2928 -71.2785
   -71.2783 -71.0089 -70.9713 -70.9672 -70.8974 -70.8806 -70.8411 -70.8403
   -66.7613 -66.7612 -66.7599 -66.7444 -66.7408 -66.7402 -66.7401 -66.7399
   -66.7399 -66.7399 -66.7399 -66.7399 -66.7399 -66.7398 -66.7396 -66.7392
   -66.7386 -66.7386 -66.7386 -66.7386 -66.7386 -66.7386 -66.7349 -66.7198
   -66.7193 -66.7191 -66.7188 -66.7185 -66.7185 -66.7185 -66.7185 -66.7185
   -66.7185 -66.7185 -66.7185 -66.7185 -66.7185 -66.7185 -66.7184 -66.7181
   -66.7181 -66.7174 -66.7173 -66.7173 -66.7172 -66.7172 -66.7172 -66.7172
   -66.7172 -66.7171 -66.7171 -66.7146 -66.7125 -66.7121 -66.7058 -66.6955
   -66.6940 -66.6931 -66.6921 -66.6867 -66.6859 -66.6846 -66.6833 -66.6683
   -57.3822 -57.3592 -57.3050 -57.3026 -57.2312 -57.1824 -57.1739 -57.1529
   -57.1230 -57.0820 -56.6611 -56.6048 -41.0888 -41.0886 -41.0886 -41.0886
   -41.0885 -41.0884 -41.0880 -41.0880 -41.0880 -41.0639 -41.0597 -41.0553
   -41.0137 -41.0135 -41.0134 -41.0133 -41.0133 -41.0133 -41.0133 -41.0132
   -41.0132 -41.0131 -41.0130 -41.0128 -41.0126 -41.0126 -41.0126 -41.0126
   -41.0126 -41.0126 -40.9939 -40.9876 -40.9847 -40.9840 -40.9706 -40.9673
   -40.9393 -40.9209 -40.9208 -40.9202 -40.9149 -40.9067 -40.9023 -40.8873
   -40.8873 -40.8871 -40.8870 -40.8869 -40.8869 -40.8869 -40.8869 -40.8869
   -40.8868 -40.8866 -40.8865 -40.8861 -40.8861 -40.8861 -40.8861 -40.8861
   -40.8861 -40.8844 -40.8800 -40.8793 -40.8793 -40.8791 -40.8791 -40.8791
   -40.8791 -40.8790 -40.8790 -40.8790 -40.8789 -40.8785 -40.8784 -40.8784
   -40.8784 -40.8784 -40.8784 -40.8784 -40.8777 -40.8710 -40.8620 -40.8618
   -40.8583 -40.8564 -40.8524 -40.8523 -40.8522 -40.8520 -40.8519 -40.8519
   -40.8519 -40.8519 -40.8519 -40.8519 -40.8518 -40.8516 -40.8515 -40.8510
   -40.8510 -40.8510 -40.8510 -40.8510 -40.8510 -40.8497 -40.8495 -40.8427
   -40.8383 -40.8378 -40.8374 -40.8373 -40.8372 -40.8372 -40.8371 -40.8371
   -40.8371 -40.8371 -40.8371 -40.8371 -40.8371 -40.8370 -40.8370 -40.8370
   -40.8369 -40.8367 -40.8365 -40.8364 -40.8364 -40.8364 -40.8364 -40.8364
   -40.8363 -40.8363 -40.8363 -40.8360 -40.8348 -40.8323 -40.8303 -40.8285
   -40.8269 -40.8262 -40.8229 -40.8159 -40.8147 -40.8074 -40.8038 -40.7960
   -40.7738 -40.7736 -40.7736 -40.7736 -40.7735 -40.7734 -40.7726 -40.7726
   -40.7726 -40.7423 -40.7420 -40.7360 -40.7269 -40.7267 -40.7267 -40.7265
   -40.7264 -40.7264 -40.7264 -40.7264 -40.7264 -40.7262 -40.7262 -40.7260
   -40.7255 -40.7255 -40.7255 -40.7255 -40.7255 -40.7254 -40.7014 -40.6979
   -40.6911 -40.6853 -40.6813 -40.6788 -40.6788 -40.6788 -40.6788 -40.6785
   -40.6778 -40.6778 -40.6426 -40.6358 -20.9253 -20.2586 -20.2163 -20.1342
   -20.0293 -19.8863 -19.8032 -19.4150 -19.4096 -19.3910 -19.3761 -19.3750
   -19.3745 -19.3587 -19.3570 -19.3402 -19.2937 -19.2901 -19.2888 -19.2698
   -19.2688 -19.2580 -19.1895 -19.1846 -19.1841 -19.1748 -19.1743 -19.1709
   -19.1058 -19.0520 -18.9780 -18.9537 -18.8202 -18.7580 -18.7095 -18.7059
   -18.6580 -18.6367 -18.6091 -18.6002 -18.5714 -18.5604 -18.5577 -18.5454
   -18.5119 -18.5084 -18.4436 -18.4263 -18.4241 -18.4189 -18.4090 -18.3998
   -18.3588 -18.3356 -18.3284 -18.3219 -18.3211 -18.3175 -18.3087 -18.3033
   -18.2890 -18.2585 -18.2578 -18.2575 -18.2569 -18.2558 -18.2541 -18.2310
   -18.2257 -18.2223 -18.2213 -18.2193 -18.2146 -18.2136 -18.2125 -18.2118
   -18.1953 -18.1868 -18.1850 -18.1841 -18.1794 -18.1694 -18.1694 -18.1669
   -18.1568 -18.1468 -18.1461 -18.1427 -18.1424 -18.1334 -18.1277 -18.1248
   -18.1092 -18.0992 -18.0955 -18.0827 -18.0749 -18.0646 -18.0589 -18.0576
   -18.0566 -18.0375 -18.0326 -18.0300 -18.0249 -18.0195 -18.0113 -18.0084
   -18.0065 -18.0059 -17.9962 -17.9952 -17.9946 -17.9786 -17.9778 -17.9774
   -17.9707 -17.9684 -17.9639 -17.9609 -17.9591 -17.9578 -17.9351 -17.9347
   -17.9334 -17.9325 -17.9314 -17.9313 -13.0061 -12.7663 -12.7013 -12.4339
   -12.1946 -12.0540 -11.9922 -11.9487 -11.9434 -11.9362 -11.9243 -11.8435
   -11.8198 -11.8140 -11.7913 -11.7200 -11.6968 -11.6965 -11.6635 -11.5503
   -11.5087 -11.4952 -11.4764 -11.4170 -11.3754 -11.3726 -11.3699 -11.3540
   -11.3319 -11.3152 -11.2691 -11.2680 -11.2674 -11.2666 -11.2649 -11.2646
   -11.2470 -11.2157 -11.2143 -11.2051 -11.2016 -11.2008 -11.1984 -11.1947
   -11.1833 -11.1787 -11.1778 -11.1409 -11.1351 -11.1169 -11.1149 -11.1080
   -11.0951 -11.0805 -11.0803 -11.0678 -11.0545 -11.0463 -11.0401 -11.0356
   -11.0283 -11.0210 -11.0029 -10.9901 -10.9892 -10.9804 -10.9775 -10.9767
   -10.9707 -10.9704 -10.9681 -10.9674 -10.9649 -10.9627 -10.9467 -10.9461
   -10.9282 -10.9246 -10.9225 -10.9182 -10.9172 -10.9169 -10.9143 -10.9084
   -10.9067 -10.8855 -10.8771 -10.8754 -10.8753 -10.8746 -10.8746 -10.8721
   -10.8389 -10.8171 -10.7930 -10.7885 -10.7787 -10.7654 -10.7435 -10.7416
   -10.7186 -10.7167 -10.6852 -10.6008 -10.5686 -10.4151 -10.3324 -10.3202
   -10.2751 -10.2463 -10.1906 -10.1145 -10.0944 -10.0402 -10.0393 -10.0135
    -9.9679  -9.9662  -9.9476  -9.9384  -9.9382  -9.9243  -9.9166  -9.9164
    -9.9153  -9.9120  -9.9076  -9.9038  -9.8963  -9.8913  -9.8891  -9.8885
    -9.8871  -9.8767  -9.8745  -9.8650  -9.8502  -9.8445  -9.7782  -9.7731
    -9.7655  -9.7640  -9.7604  -9.7584  -9.7575  -9.7555  -9.7544  -9.7535
    -9.7529  -9.7270  -9.7209  -9.7082  -9.6969  -9.6815  -9.6790  -9.6788
    -9.6786  -9.6785  -9.6780  -9.6750  -9.6668  -9.6617  -9.6549  -9.6468
    -9.6385  -9.6222  -9.6219  -9.5809  -9.5677  -9.5586  -9.5153  -9.5124
    -9.5110  -9.5040  -9.5003  -9.4987  -9.4944  -9.4804  -9.4782  -9.4558
    -9.4400  -9.4337  -9.4125  -9.4109  -9.3868  -9.3695  -9.3681  -9.3537
    -9.3252  -9.3243  -9.3232  -9.3190  -9.3183  -9.3149  -9.2905  -9.2883
    -9.2713  -9.2672  -9.2582  -9.2441  -9.2101  -9.1989  -9.1739  -9.1491
    -9.1478  -9.1209  -9.1168  -9.1167  -9.1049  -9.0857  -9.0855  -9.0826
    -9.0626  -9.0555  -9.0545  -9.0542  -9.0518  -9.0492  -9.0406  -9.0394
    -9.0380  -9.0129  -8.9888  -8.9602  -8.9589  -8.9581  -8.9579  -8.9575
    -8.9543  -8.9289  -8.9075  -8.8973  -8.8887  -8.8850  -8.8495  -8.8483
    -8.8178  -8.8093  -8.8057  -8.8030  -8.7903  -8.7802  -8.7471  -8.7318
    -8.7311  -8.7300  -8.7283  -8.7268  -8.7203  -8.6777  -8.6381  -8.6029
    -8.5945  -8.5408  -8.5033  -8.5032  -8.4994  -8.4982  -8.4950  -8.4918
    -8.4909  -8.4821  -8.4519  -8.4291  -8.4125  -8.4124  -8.4123  -8.4122
    -8.4121  -8.4094  -8.3861  -8.3859  -8.3854  -8.3854  -8.3851  -8.3828
    -8.3579  -8.3577  -8.3576  -8.3575  -8.3573  -8.3567  -8.2582  -8.2117
    -8.1685  -8.1587  -8.1064  -8.0723  -8.0073  -7.9987  -7.9945  -7.9830
    -7.9758  -7.9693  -7.9246  -7.9182  -7.8927  -7.8881  -7.8534  -7.8113
    -7.8019  -7.7914  -7.7782  -7.7758  -7.7590  -7.7536  -7.7398  -7.7383
    -7.7340  -7.7317  -7.6999  -7.6986  -7.6840  -7.6767  -7.6717  -7.6711
    -7.6710  -7.6710  -7.6696  -7.6590  -7.6473  -7.6460  -7.6442  -7.6441
    -7.6429  -7.6387  -7.6297  -7.6215  -7.6194  -7.6191  -7.6188  -7.6183
    -7.6149  -7.6132  -7.6074  -7.5946  -7.5915  -7.5782  -7.5778  -7.5691
    -7.5528  -7.5408  -7.5344  -7.5137  -7.5080  -7.5032  -7.4950  -7.4783
    -7.4693  -7.4526  -7.4471  -7.4432  -7.4397  -7.4364  -7.4311  -7.4278
    -7.4244  -7.4039  -7.3886  -7.3871  -7.3859  -7.3687  -7.3687  -7.3505
    -7.3505  -7.3277  -7.3025  -7.2983  -7.2744  -7.2683  -7.2598  -7.2224
    -7.1882  -7.1661  -7.0986  -7.0589  -7.0461  -7.0376  -7.0256  -7.0047
    -6.9441  -6.9175  -6.9166  -6.9158  -6.8957  -6.8899  -6.8482  -6.8423
    -6.8362  -6.8341  -6.8331  -6.8149  -6.7740  -6.7602  -6.7587  -6.7586
    -6.7479  -6.7309  -6.7211  -6.7142  -6.7118  -6.7080  -6.7004  -6.6952
    -6.6853  -6.6570  -6.6554  -6.6527  -6.6516  -6.6514  -6.6466  -6.6454
    -6.6435  -6.6378  -6.6346  -6.6344  -6.6343  -6.6341  -6.6340  -6.6335
    -6.6315  -6.6167  -6.5862  -6.5855  -6.5753  -6.5545  -6.5478  -6.5458
    -6.5452  -6.5364  -6.5106  -6.4904  -6.4764  -6.4760  -6.4696  -6.4692
    -6.4663  -6.4636  -6.4622  -6.4570  -6.4414  -6.4346  -6.4256  -6.4255
    -6.4231  -6.4216  -6.4138  -6.4060  -6.3894  -6.3892  -6.3886  -6.3883
    -6.3868  -6.3863  -6.3357  -6.3264  -6.1779  -6.0672  -6.0415  -5.9063
    -5.8351  -5.8157  -5.6080  -5.5890  -5.4404  -5.3537  -5.2867  -5.0891
    -4.4003  -4.3253  -4.1537  -4.0870  -3.9935  -3.9852  -3.9775  -3.9754
    -3.9739  -3.9702  -3.9672  -3.9614  -3.9428  -3.9373  -3.9219  -3.9099
    -3.8564  -3.8415  -3.8358  -3.8274  -3.8248  -3.8233  -3.8167  -3.8142
    -3.7337  -3.7196  -3.7090  -3.7003  -3.6767  -3.6513  -3.6414  -3.6356
    -3.6355  -3.6197  -3.6121  -3.6109  -3.6087  -3.6050  -3.6030  -3.6013
    -3.5991  -3.5872  -3.5790  -3.5783  -3.5779  -3.5766  -3.5649  -3.5630
    -3.5629  -3.5585  -3.5519  -3.5491  -3.5428  -3.5419  -3.5408  -3.5300
    -3.5267  -3.5179  -3.5145  -3.5122  -3.5055  -3.5006  -3.4995  -3.4990
    -3.4968  -3.4807  -3.4784  -3.4672  -3.4662  -3.4632  -3.4498  -3.4402
    -3.4369  -3.4319  -3.4279  -3.4240  -3.4184  -3.4041  -3.3842  -3.3750
    -3.3550  -3.3394  -3.3336  -3.3272  -3.2874  -3.2506  -3.2481  -3.2377
    -3.1982  -3.1967  -3.1929  -3.1916  -3.1889  -3.1878  -3.1781  -3.1682
    -3.1498  -3.1385  -3.1267  -3.1262  -3.1190  -3.1165  -3.1102  -3.1098
    -3.1071  -3.1006  -3.0992  -3.0990  -3.0957  -3.0918  -3.0892  -3.0855
    -3.0803  -3.0775  -3.0745  -3.0704  -3.0702  -3.0681  -3.0674  -3.0672
    -3.0661  -3.0649  -3.0579  -3.0486  -3.0425  -3.0390  -3.0314  -3.0202
    -3.0073  -3.0019  -2.9622  -2.9600  -2.9429  -2.9428  -2.9427  -2.9426
    -2.9425  -2.9425  -2.9424  -2.9410  -2.9381  -2.9245  -2.9198  -2.9155
    -2.8956  -2.8791  -2.8765  -2.8685  -2.8503  -2.8484  -2.8239  -2.8134
    -2.7966  -2.7771  -2.7750  -2.7666  -2.7659  -2.7600  -2.7587  -2.7573
    -2.7438  -2.7144  -2.7015  -2.6977  -2.6716  -2.6716  -2.6535  -2.6065
    -2.5970  -2.5895  -2.5889  -2.5857  -2.5736  -2.5556  -2.5517  -2.5444
    -2.5402  -2.5317  -2.4953

          k = 0.0000-0.5773 0.0000 (386352 PWs)   bands (ev):

  -103.0857-103.0188-103.0160-102.5879 -71.4260 -71.4231 -71.4062 -71.3879
   -71.3703 -71.3646 -71.3645 -71.3547 -71.3545 -71.3497 -71.3483 -71.3480
   -71.3437 -71.3436 -71.3379 -71.3259 -71.3254 -71.2929 -71.2928 -71.2785
   -71.2783 -71.0089 -70.9713 -70.9672 -70.8973 -70.8806 -70.8411 -70.8403
   -66.7553 -66.7550 -66.7550 -66.7548 -66.7537 -66.7537 -66.7444 -66.7444
   -66.7443 -66.7443 -66.7431 -66.7430 -66.7430 -66.7363 -66.7295 -66.7294
   -66.7292 -66.7292 -66.7292 -66.7292 -66.7291 -66.7291 -66.7279 -66.7279
   -66.7279 -66.7279 -66.7251 -66.7248 -66.7248 -66.7246 -66.7235 -66.7234
   -66.7198 -66.7188 -66.7188 -66.7187 -66.7185 -66.7185 -66.7185 -66.7185
   -66.7178 -66.7173 -66.7172 -66.7172 -66.7171 -66.7164 -66.7160 -66.7141
   -66.7141 -66.7141 -66.7140 -66.7128 -66.7127 -66.7061 -66.7039 -66.6954
   -66.6949 -66.6927 -66.6908 -66.6892 -66.6885 -66.6846 -66.6812 -66.6683
   -57.3822 -57.3592 -57.3050 -57.3025 -57.2312 -57.1824 -57.1739 -57.1530
   -57.1230 -57.0820 -56.6611 -56.6048 -41.0572 -41.0571 -41.0570 -41.0570
   -41.0570 -41.0569 -41.0569 -41.0566 -41.0564 -41.0563 -41.0563 -41.0563
   -41.0380 -41.0315 -41.0304 -41.0302 -41.0301 -41.0299 -41.0295 -41.0295
   -41.0270 -41.0202 -41.0181 -41.0181 -41.0181 -41.0181 -41.0174 -41.0174
   -41.0092 -41.0017 -40.9864 -40.9702 -40.9674 -40.9674 -40.9674 -40.9674
   -40.9674 -40.9674 -40.9674 -40.9674 -40.9667 -40.9667 -40.9667 -40.9667
   -40.9407 -40.9402 -40.9303 -40.9289 -40.9249 -40.9122 -40.9120 -40.9089
   -40.9086 -40.9086 -40.9085 -40.9080 -40.9079 -40.8992 -40.8991 -40.8991
   -40.8991 -40.8985 -40.8983 -40.8983 -40.8882 -40.8878 -40.8878 -40.8877
   -40.8877 -40.8871 -40.8871 -40.8751 -40.8684 -40.8615 -40.8584 -40.8584
   -40.8581 -40.8581 -40.8581 -40.8581 -40.8581 -40.8580 -40.8577 -40.8574
   -40.8574 -40.8574 -40.8574 -40.8524 -40.8500 -40.8497 -40.8494 -40.8494
   -40.8492 -40.8487 -40.8487 -40.8440 -40.8377 -40.8376 -40.8376 -40.8376
   -40.8374 -40.8373 -40.8373 -40.8371 -40.8371 -40.8371 -40.8371 -40.8371
   -40.8368 -40.8368 -40.8365 -40.8364 -40.8364 -40.8364 -40.8363 -40.8362
   -40.8318 -40.8285 -40.8284 -40.8284 -40.8284 -40.8278 -40.8277 -40.8277
   -40.8192 -40.8154 -40.8148 -40.8071 -40.8069 -40.8067 -40.8067 -40.8067
   -40.8067 -40.8067 -40.8062 -40.8058 -40.8058 -40.8058 -40.8057 -40.7982
   -40.7797 -40.7720 -40.7720 -40.7720 -40.7720 -40.7720 -40.7719 -40.7719
   -40.7719 -40.7719 -40.7719 -40.7710 -40.7710 -40.7710 -40.7710 -40.7640
   -40.7600 -40.7598 -40.7598 -40.7596 -40.7589 -40.7588 -40.7433 -40.7410
   -40.7408 -40.7405 -40.7405 -40.7402 -40.7396 -40.7395 -40.7344 -40.7325
   -40.7305 -40.7235 -40.7235 -40.7235 -40.7235 -40.7225 -40.7225 -40.7147
   -40.7051 -40.6979 -40.6930 -40.6928 -40.6928 -40.6926 -40.6919 -40.6918
   -40.6824 -40.6759 -40.6602 -40.6518 -20.9103 -20.2298 -20.0118 -20.0054
   -19.9292 -19.9177 -19.9083 -19.8338 -19.7970 -19.7700 -19.5958 -19.5716
   -19.5573 -19.4849 -19.4720 -19.3789 -19.3701 -19.2878 -19.2234 -18.9633
   -18.9366 -18.9328 -18.8644 -18.8617 -18.8598 -18.8547 -18.8493 -18.8355
   -18.8166 -18.7951 -18.7877 -18.7845 -18.7774 -18.7493 -18.7345 -18.6979
   -18.6970 -18.6910 -18.6864 -18.6770 -18.6679 -18.6405 -18.6404 -18.6152
   -18.6084 -18.5896 -18.5656 -18.5605 -18.5488 -18.5457 -18.5431 -18.5307
   -18.4929 -18.4814 -18.4708 -18.4594 -18.4192 -18.4038 -18.3894 -18.3887
   -18.3642 -18.3504 -18.3402 -18.3157 -18.3135 -18.2944 -18.2939 -18.2563
   -18.2452 -18.2380 -18.2356 -18.2348 -18.2300 -18.2238 -18.2126 -18.2112
   -18.2111 -18.2058 -18.2016 -18.1986 -18.1962 -18.1849 -18.1836 -18.1759
   -18.1512 -18.1475 -18.1439 -18.1431 -18.1385 -18.1381 -18.1338 -18.1335
   -18.1271 -18.1169 -18.0975 -18.0873 -18.0764 -18.0736 -18.0720 -18.0690
   -18.0361 -18.0328 -18.0249 -18.0220 -18.0052 -18.0039 -17.9836 -17.9805
   -17.9779 -17.9765 -17.9559 -17.9557 -17.9547 -17.9547 -17.9538 -17.9538
   -17.9407 -17.9400 -17.9208 -17.9198 -17.8965 -17.8960 -17.8774 -17.8769
   -17.8629 -17.8629 -17.8554 -17.8553 -12.9971 -12.7044 -12.6547 -12.3364
   -12.1189 -12.0446 -11.9271 -11.8764 -11.8326 -11.7646 -11.7045 -11.6511
   -11.6369 -11.6356 -11.6354 -11.6074 -11.5978 -11.5912 -11.5853 -11.5381
   -11.5309 -11.5278 -11.5090 -11.4989 -11.4854 -11.4821 -11.4593 -11.4554
   -11.4266 -11.4129 -11.4122 -11.4097 -11.4016 -11.3919 -11.3908 -11.3719
   -11.3533 -11.3425 -11.3408 -11.3273 -11.3204 -11.3189 -11.3148 -11.3032
   -11.2892 -11.2860 -11.2824 -11.2792 -11.2640 -11.2507 -11.2498 -11.2116
   -11.1911 -11.1625 -11.1549 -11.1238 -11.1215 -11.0920 -11.0905 -11.0823
   -11.0738 -11.0482 -11.0480 -11.0306 -10.9976 -10.9871 -10.9792 -10.9759
   -10.9705 -10.9615 -10.9527 -10.9479 -10.9470 -10.9468 -10.9461 -10.9366
   -10.9352 -10.9292 -10.9286 -10.9229 -10.9192 -10.9188 -10.9161 -10.8976
   -10.8856 -10.8792 -10.8789 -10.8776 -10.8681 -10.7546 -10.7333 -10.7032
   -10.6766 -10.6720 -10.6529 -10.6265 -10.5703 -10.5646 -10.4952 -10.4896
   -10.4644 -10.4047 -10.3672 -10.3158 -10.2841 -10.2696 -10.2684 -10.2557
   -10.2521 -10.2289 -10.2237 -10.1902 -10.1868 -10.1805 -10.1698 -10.1661
   -10.1660 -10.1540 -10.1339 -10.1327 -10.1069 -10.1012 -10.0942 -10.0684
   -10.0505 -10.0421 -10.0412 -10.0345 -10.0273 -10.0112 -10.0036  -9.9860
    -9.9753  -9.9612  -9.9432  -9.9344  -9.9282  -9.9177  -9.9037  -9.8948
    -9.8616  -9.8463  -9.8362  -9.8212  -9.8095  -9.8061  -9.7926  -9.7843
    -9.7598  -9.7562  -9.7359  -9.7288  -9.7182  -9.7154  -9.7057  -9.6908
    -9.6785  -9.6378  -9.6372  -9.6281  -9.6279  -9.6203  -9.6161  -9.6093
    -9.6000  -9.5976  -9.5956  -9.5865  -9.5693  -9.5642  -9.5494  -9.5317
    -9.5224  -9.5162  -9.4926  -9.4719  -9.4151  -9.4009  -9.3889  -9.3752
    -9.3660  -9.3549  -9.3403  -9.3269  -9.3259  -9.3041  -9.2885  -9.2850
    -9.2738  -9.2540  -9.2508  -9.2315  -9.2222  -9.1980  -9.1943  -9.1935
    -9.1881  -9.1802  -9.1484  -9.1358  -9.1287  -9.1072  -9.1012  -9.0947
    -9.0896  -9.0810  -9.0799  -9.0683  -9.0674  -9.0413  -9.0315  -9.0297
    -9.0277  -9.0263  -9.0223  -9.0187  -9.0104  -9.0052  -9.0047  -9.0023
    -8.9966  -8.9885  -8.9880  -8.9763  -8.9761  -8.9731  -8.9701  -8.9549
    -8.9303  -8.9294  -8.9279  -8.9262  -8.9216  -8.9213  -8.9087  -8.8992
    -8.8967  -8.8858  -8.8695  -8.8690  -8.8684  -8.8649  -8.8475  -8.8182
    -8.8089  -8.7979  -8.7935  -8.7536  -8.7237  -8.6813  -8.6786  -8.6502
    -8.6402  -8.6366  -8.5842  -8.5743  -8.5715  -8.5364  -8.4968  -8.4860
    -8.4463  -8.3736  -8.3501  -8.3040  -8.2955  -8.2634  -8.2633  -8.2548
    -8.2544  -8.2441  -8.2431  -8.2392  -8.2206  -8.2052  -8.1848  -8.1570
    -8.1076  -8.1043  -8.0778  -8.0611  -8.0446  -8.0079  -8.0013  -7.9919
    -7.9701  -7.9696  -7.9615  -7.9588  -7.9499  -7.9458  -7.9390  -7.9356
    -7.9333  -7.9326  -7.9281  -7.9251  -7.9172  -7.9171  -7.9136  -7.9052
    -7.9052  -7.9009  -7.9007  -7.9004  -7.8963  -7.8954  -7.8941  -7.8939
    -7.8716  -7.8695  -7.8692  -7.8667  -7.8555  -7.8395  -7.8335  -7.8330
    -7.8311  -7.8240  -7.8161  -7.8029  -7.8028  -7.8019  -7.8013  -7.7927
    -7.7925  -7.7870  -7.7720  -7.7614  -7.7612  -7.7511  -7.7440  -7.7436
    -7.7434  -7.7341  -7.7215  -7.7212  -7.7062  -7.7052  -7.7029  -7.6999
    -7.6995  -7.6989  -7.6811  -7.6623  -7.6057  -7.6027  -7.5960  -7.5951
    -7.5837  -7.5635  -7.5455  -7.5180  -7.4911  -7.4842  -7.4115  -7.3098
    -7.3090  -7.3051  -7.3038  -7.2734  -7.2645  -7.2577  -7.2512  -7.2450
    -7.2268  -7.2143  -7.2010  -7.1923  -7.1742  -7.1654  -7.1566  -7.1546
    -7.1438  -7.1180  -7.1123  -7.1063  -7.0600  -7.0520  -7.0465  -7.0356
    -7.0240  -7.0206  -7.0097  -6.9960  -6.9941  -6.9884  -6.9542  -6.9391
    -6.9366  -6.9071  -6.9018  -6.8904  -6.8832  -6.8389  -6.8212  -6.7933
    -6.7885  -6.7609  -6.7586  -6.7471  -6.7413  -6.7408  -6.7406  -6.7339
    -6.7241  -6.7236  -6.7232  -6.7205  -6.7152  -6.7150  -6.7146  -6.7145
    -6.7141  -6.7125  -6.6397  -6.6296  -6.6294  -6.5928  -6.5686  -6.5580
    -6.5362  -6.5009  -6.4822  -6.4610  -6.4529  -6.4523  -6.4456  -6.4442
    -6.4419  -6.4258  -6.4123  -6.4123  -6.4081  -6.4080  -6.3925  -6.3924
    -6.3908  -6.3870  -6.3790  -6.3450  -6.3416  -6.3405  -6.3399  -6.3155
    -6.2825  -6.2355  -6.1899  -6.1727  -6.1231  -6.1227  -6.0778  -6.0618
    -6.0570  -6.0366  -6.0316  -5.9889  -5.9869  -5.9382  -5.8692  -5.8300
    -5.7873  -5.7835  -5.7366  -5.7204  -5.5612  -5.4967  -5.4095  -5.1211
    -4.4012  -4.3384  -4.2672  -4.2273  -4.2107  -4.1600  -4.1412  -4.0851
    -4.0687  -4.0599  -4.0317  -4.0134  -3.9826  -3.9725  -3.9711  -3.9543
    -3.9516  -3.9410  -3.9348  -3.9326  -3.9302  -3.8895  -3.8739  -3.8551
    -3.8445  -3.7796  -3.7468  -3.7384  -3.7366  -3.7326  -3.7030  -3.7010
    -3.6937  -3.6895  -3.6834  -3.6747  -3.6642  -3.6560  -3.6532  -3.6412
    -3.6317  -3.6314  -3.6209  -3.6192  -3.6129  -3.6059  -3.5940  -3.5873
    -3.5825  -3.5711  -3.5648  -3.5543  -3.5518  -3.5350  -3.5228  -3.5211
    -3.4974  -3.4890  -3.4854  -3.4841  -3.4835  -3.4721  -3.4710  -3.4538
    -3.4512  -3.4381  -3.4279  -3.4195  -3.4147  -3.4132  -3.4107  -3.4094
    -3.4046  -3.3985  -3.3874  -3.3831  -3.3781  -3.3736  -3.3685  -3.3603
    -3.3559  -3.3513  -3.3472  -3.3460  -3.3417  -3.3280  -3.3225  -3.3141
    -3.3109  -3.3087  -3.2962  -3.2961  -3.2949  -3.2861  -3.2783  -3.2587
    -3.2445  -3.2346  -3.2318  -3.2161  -3.1988  -3.1935  -3.1826  -3.1769
    -3.1674  -3.1601  -3.1597  -3.1566  -3.1546  -3.1513  -3.1507  -3.1462
    -3.1399  -3.1395  -3.1331  -3.1269  -3.1250  -3.1153  -3.1137  -3.1085
    -3.1043  -3.1014  -3.1013  -3.0945  -3.0853  -3.0827  -3.0801  -3.0766
    -3.0723  -3.0650  -3.0645  -3.0567  -3.0564  -3.0386  -3.0307  -3.0210
    -3.0122  -3.0093  -3.0000  -2.9872  -2.9820  -2.9355  -2.9328  -2.9266
    -2.9108  -2.8906  -2.8797  -2.8660  -2.8582  -2.7812  -2.7517  -2.7437
    -2.7275  -2.7152  -2.7119  -2.7061  -2.6874  -2.6849  -2.6784  -2.6701
    -2.6628  -2.6608  -2.6542  -2.6195  -2.6166  -2.5806  -2.5681  -2.5564
    -2.5420  -2.5358  -2.5317  -2.5204  -2.5186  -2.5140  -2.5044  -2.4778
    -2.4770  -2.4710  -2.4637

          k =-0.5000-0.2887 0.0000 (386352 PWs)   bands (ev):

  -103.0857-103.0188-103.0160-102.5879 -71.4260 -71.4231 -71.4062 -71.3879
   -71.3703 -71.3646 -71.3645 -71.3547 -71.3545 -71.3497 -71.3483 -71.3480
   -71.3437 -71.3436 -71.3379 -71.3259 -71.3254 -71.2929 -71.2928 -71.2785
   -71.2783 -71.0089 -70.9713 -70.9672 -70.8974 -70.8806 -70.8411 -70.8403
   -66.7553 -66.7550 -66.7550 -66.7548 -66.7537 -66.7537 -66.7444 -66.7443
   -66.7443 -66.7443 -66.7434 -66.7430 -66.7430 -66.7356 -66.7297 -66.7296
   -66.7292 -66.7292 -66.7292 -66.7292 -66.7289 -66.7289 -66.7279 -66.7279
   -66.7279 -66.7279 -66.7251 -66.7248 -66.7248 -66.7245 -66.7235 -66.7235
   -66.7220 -66.7194 -66.7185 -66.7185 -66.7185 -66.7185 -66.7184 -66.7184
   -66.7179 -66.7172 -66.7172 -66.7172 -66.7172 -66.7161 -66.7141 -66.7141
   -66.7141 -66.7140 -66.7128 -66.7128 -66.7123 -66.7104 -66.7000 -66.6969
   -66.6940 -66.6936 -66.6930 -66.6889 -66.6858 -66.6850 -66.6819 -66.6682
   -57.3822 -57.3592 -57.3050 -57.3025 -57.2312 -57.1824 -57.1739 -57.1530
   -57.1230 -57.0820 -56.6611 -56.6048 -41.0574 -41.0570 -41.0570 -41.0570
   -41.0570 -41.0569 -41.0568 -41.0566 -41.0563 -41.0563 -41.0563 -41.0563
   -41.0374 -41.0353 -41.0304 -41.0302 -41.0301 -41.0299 -41.0295 -41.0295
   -41.0273 -41.0181 -41.0181 -41.0181 -41.0181 -41.0174 -41.0174 -41.0118
   -41.0071 -41.0036 -40.9859 -40.9744 -40.9674 -40.9674 -40.9674 -40.9674
   -40.9674 -40.9674 -40.9674 -40.9673 -40.9667 -40.9667 -40.9667 -40.9667
   -40.9468 -40.9363 -40.9342 -40.9289 -40.9264 -40.9182 -40.9089 -40.9086
   -40.9086 -40.9084 -40.9080 -40.9079 -40.9051 -40.8991 -40.8991 -40.8991
   -40.8991 -40.8983 -40.8983 -40.8981 -40.8894 -40.8879 -40.8878 -40.8877
   -40.8877 -40.8871 -40.8871 -40.8714 -40.8697 -40.8651 -40.8586 -40.8585
   -40.8581 -40.8581 -40.8581 -40.8581 -40.8579 -40.8578 -40.8574 -40.8574
   -40.8574 -40.8574 -40.8540 -40.8505 -40.8497 -40.8494 -40.8494 -40.8492
   -40.8487 -40.8487 -40.8484 -40.8446 -40.8396 -40.8379 -40.8377 -40.8376
   -40.8376 -40.8376 -40.8372 -40.8371 -40.8371 -40.8371 -40.8371 -40.8370
   -40.8368 -40.8368 -40.8364 -40.8364 -40.8364 -40.8363 -40.8363 -40.8325
   -40.8293 -40.8285 -40.8284 -40.8284 -40.8284 -40.8277 -40.8277 -40.8267
   -40.8249 -40.8133 -40.8095 -40.8073 -40.8067 -40.8067 -40.8067 -40.8067
   -40.8066 -40.8066 -40.8064 -40.8058 -40.8058 -40.8058 -40.8058 -40.7974
   -40.7785 -40.7763 -40.7720 -40.7720 -40.7720 -40.7720 -40.7719 -40.7719
   -40.7719 -40.7719 -40.7710 -40.7710 -40.7710 -40.7710 -40.7705 -40.7690
   -40.7600 -40.7598 -40.7598 -40.7596 -40.7589 -40.7588 -40.7439 -40.7408
   -40.7406 -40.7405 -40.7405 -40.7402 -40.7396 -40.7395 -40.7332 -40.7318
   -40.7260 -40.7235 -40.7235 -40.7235 -40.7235 -40.7225 -40.7225 -40.7141
   -40.7045 -40.6974 -40.6931 -40.6928 -40.6928 -40.6926 -40.6925 -40.6918
   -40.6918 -40.6820 -40.6586 -40.6448 -20.9115 -20.1828 -20.0639 -20.0065
   -19.9989 -19.9119 -19.9026 -19.8013 -19.7957 -19.7022 -19.6112 -19.5702
   -19.5674 -19.4864 -19.4765 -19.3841 -19.3707 -19.3127 -19.1871 -18.9786
   -18.9439 -18.9317 -18.8630 -18.8621 -18.8600 -18.8555 -18.8479 -18.8298
   -18.8160 -18.7949 -18.7916 -18.7840 -18.7755 -18.7390 -18.7326 -18.7017
   -18.6953 -18.6906 -18.6856 -18.6783 -18.6666 -18.6428 -18.6350 -18.6146
   -18.6077 -18.5997 -18.5764 -18.5532 -18.5496 -18.5445 -18.5362 -18.5201
   -18.4984 -18.4809 -18.4723 -18.4583 -18.4337 -18.4200 -18.3913 -18.3829
   -18.3610 -18.3538 -18.3363 -18.3206 -18.3058 -18.3008 -18.2792 -18.2719
   -18.2464 -18.2365 -18.2354 -18.2350 -18.2330 -18.2159 -18.2113 -18.2101
   -18.2090 -18.2053 -18.2017 -18.2004 -18.1943 -18.1909 -18.1777 -18.1642
   -18.1523 -18.1476 -18.1446 -18.1401 -18.1386 -18.1360 -18.1359 -18.1289
   -18.1265 -18.1156 -18.0991 -18.0847 -18.0787 -18.0744 -18.0702 -18.0614
   -18.0453 -18.0343 -18.0268 -18.0199 -18.0128 -18.0036 -17.9858 -17.9816
   -17.9773 -17.9758 -17.9564 -17.9555 -17.9553 -17.9543 -17.9535 -17.9534
   -17.9415 -17.9402 -17.9221 -17.9198 -17.8972 -17.8954 -17.8778 -17.8755
   -17.8631 -17.8616 -17.8554 -17.8552 -12.9977 -12.7269 -12.6305 -12.3481
   -12.1175 -12.0490 -11.9649 -11.8509 -11.8184 -11.7139 -11.6740 -11.6544
   -11.6401 -11.6356 -11.6309 -11.6174 -11.6014 -11.5907 -11.5670 -11.5551
   -11.5334 -11.5311 -11.5259 -11.4984 -11.4918 -11.4813 -11.4563 -11.4442
   -11.4342 -11.4174 -11.4115 -11.4047 -11.4001 -11.3925 -11.3920 -11.3736
   -11.3541 -11.3434 -11.3413 -11.3364 -11.3215 -11.3100 -11.3091 -11.2967
   -11.2917 -11.2846 -11.2832 -11.2774 -11.2640 -11.2405 -11.2398 -11.2272
   -11.2010 -11.1798 -11.1507 -11.1313 -11.1218 -11.1156 -11.0935 -11.0881
   -11.0608 -11.0511 -11.0365 -11.0203 -10.9959 -10.9915 -10.9803 -10.9759
   -10.9723 -10.9611 -10.9530 -10.9479 -10.9470 -10.9465 -10.9440 -10.9363
   -10.9325 -10.9292 -10.9288 -10.9238 -10.9206 -10.9186 -10.9154 -10.8944
   -10.8869 -10.8790 -10.8786 -10.8762 -10.8734 -10.7838 -10.7444 -10.7012
   -10.6754 -10.6710 -10.6514 -10.6346 -10.5748 -10.5561 -10.4797 -10.4749
   -10.4504 -10.3857 -10.3537 -10.3365 -10.3062 -10.2736 -10.2590 -10.2571
   -10.2511 -10.2419 -10.2350 -10.1984 -10.1831 -10.1807 -10.1767 -10.1724
   -10.1665 -10.1641 -10.1421 -10.1289 -10.1105 -10.0962 -10.0914 -10.0727
   -10.0647 -10.0504 -10.0452 -10.0389 -10.0290 -10.0257 -10.0082  -9.9809
    -9.9738  -9.9572  -9.9426  -9.9328  -9.9192  -9.9070  -9.9034  -9.8876
    -9.8761  -9.8572  -9.8380  -9.8161  -9.8103  -9.8043  -9.7931  -9.7710
    -9.7617  -9.7442  -9.7359  -9.7332  -9.7219  -9.7043  -9.6970  -9.6928
    -9.6853  -9.6579  -9.6391  -9.6309  -9.6282  -9.6203  -9.6153  -9.6013
    -9.6012  -9.5981  -9.5861  -9.5801  -9.5734  -9.5630  -9.5499  -9.5425
    -9.5224  -9.5104  -9.4789  -9.4553  -9.4113  -9.3881  -9.3776  -9.3688
    -9.3566  -9.3522  -9.3418  -9.3336  -9.3093  -9.3038  -9.2913  -9.2820
    -9.2726  -9.2539  -9.2354  -9.2247  -9.2045  -9.2004  -9.1930  -9.1907
    -9.1779  -9.1728  -9.1530  -9.1375  -9.1288  -9.1129  -9.1029  -9.0994
    -9.0911  -9.0853  -9.0748  -9.0698  -9.0501  -9.0419  -9.0355  -9.0309
    -9.0286  -9.0276  -9.0226  -9.0205  -9.0160  -9.0054  -9.0049  -9.0032
    -8.9970  -8.9933  -8.9867  -8.9789  -8.9758  -8.9756  -8.9548  -8.9447
    -8.9309  -8.9295  -8.9293  -8.9270  -8.9255  -8.9234  -8.9049  -8.8997
    -8.8988  -8.8872  -8.8817  -8.8701  -8.8690  -8.8676  -8.8562  -8.8362
    -8.8076  -8.8012  -8.7919  -8.7704  -8.7269  -8.6753  -8.6526  -8.6402
    -8.6369  -8.6069  -8.5843  -8.5775  -8.5518  -8.5157  -8.4976  -8.4819
    -8.4419  -8.4219  -8.3678  -8.3437  -8.3127  -8.2639  -8.2633  -8.2614
    -8.2543  -8.2539  -8.2431  -8.2429  -8.2280  -8.2053  -8.1847  -8.1563
    -8.1213  -8.1059  -8.1031  -8.0590  -8.0419  -8.0031  -7.9911  -7.9879
    -7.9798  -7.9667  -7.9642  -7.9619  -7.9535  -7.9501  -7.9427  -7.9386
    -7.9356  -7.9349  -7.9278  -7.9177  -7.9174  -7.9155  -7.9064  -7.9058
    -7.9027  -7.9024  -7.9016  -7.9007  -7.8979  -7.8950  -7.8940  -7.8914
    -7.8862  -7.8717  -7.8702  -7.8675  -7.8647  -7.8553  -7.8350  -7.8338
    -7.8330  -7.8317  -7.8267  -7.8050  -7.8024  -7.8021  -7.8008  -7.7984
    -7.7907  -7.7879  -7.7683  -7.7595  -7.7483  -7.7472  -7.7441  -7.7437
    -7.7381  -7.7269  -7.7221  -7.7209  -7.7135  -7.7043  -7.7004  -7.7000
    -7.6988  -7.6944  -7.6817  -7.6650  -7.6069  -7.6006  -7.5961  -7.5942
    -7.5845  -7.5730  -7.5519  -7.4879  -7.4590  -7.4306  -7.3506  -7.3183
    -7.3049  -7.3043  -7.3026  -7.2854  -7.2581  -7.2518  -7.2495  -7.2459
    -7.2256  -7.2182  -7.2122  -7.1825  -7.1722  -7.1668  -7.1631  -7.1508
    -7.1393  -7.1150  -7.1121  -7.1088  -7.0649  -7.0525  -7.0518  -7.0419
    -7.0228  -7.0207  -7.0095  -6.9967  -6.9941  -6.9895  -6.9842  -6.9558
    -6.9285  -6.9076  -6.8990  -6.8837  -6.8482  -6.8268  -6.8266  -6.8088
    -6.7661  -6.7625  -6.7579  -6.7530  -6.7418  -6.7411  -6.7403  -6.7375
    -6.7245  -6.7237  -6.7231  -6.7216  -6.7149  -6.7148  -6.7147  -6.7145
    -6.7130  -6.6902  -6.6762  -6.6577  -6.6272  -6.6100  -6.5703  -6.5551
    -6.5458  -6.5164  -6.4873  -6.4742  -6.4552  -6.4532  -6.4516  -6.4469
    -6.4242  -6.4172  -6.4115  -6.4109  -6.4084  -6.4072  -6.3932  -6.3919
    -6.3903  -6.3873  -6.3664  -6.3575  -6.3443  -6.3414  -6.3402  -6.3351
    -6.3192  -6.2309  -6.1880  -6.1726  -6.1240  -6.1233  -6.0715  -6.0581
    -6.0511  -6.0247  -5.9911  -5.9884  -5.9570  -5.9243  -5.9032  -5.8365
    -5.7960  -5.7636  -5.7365  -5.7237  -5.5612  -5.4912  -5.3817  -5.1288
    -4.3876  -4.3477  -4.2589  -4.2378  -4.1938  -4.1838  -4.1256  -4.0980
    -4.0627  -4.0607  -4.0107  -4.0031  -3.9918  -3.9762  -3.9726  -3.9658
    -3.9518  -3.9497  -3.9349  -3.9344  -3.9166  -3.8875  -3.8754  -3.8661
    -3.8036  -3.7727  -3.7598  -3.7490  -3.7366  -3.7340  -3.7268  -3.7078
    -3.6978  -3.6867  -3.6828  -3.6824  -3.6647  -3.6575  -3.6528  -3.6407
    -3.6341  -3.6284  -3.6218  -3.6196  -3.6111  -3.5995  -3.5935  -3.5900
    -3.5855  -3.5782  -3.5688  -3.5664  -3.5590  -3.5487  -3.5365  -3.5191
    -3.4973  -3.4917  -3.4882  -3.4866  -3.4800  -3.4770  -3.4738  -3.4634
    -3.4532  -3.4442  -3.4236  -3.4225  -3.4165  -3.4148  -3.4109  -3.4104
    -3.4078  -3.3995  -3.3916  -3.3801  -3.3764  -3.3742  -3.3672  -3.3639
    -3.3506  -3.3482  -3.3465  -3.3448  -3.3420  -3.3308  -3.3247  -3.3183
    -3.3161  -3.3059  -3.2963  -3.2960  -3.2944  -3.2871  -3.2726  -3.2582
    -3.2432  -3.2352  -3.2254  -3.2202  -3.1968  -3.1929  -3.1794  -3.1686
    -3.1638  -3.1585  -3.1577  -3.1567  -3.1550  -3.1523  -3.1510  -3.1443
    -3.1397  -3.1382  -3.1320  -3.1278  -3.1248  -3.1208  -3.1189  -3.1139
    -3.1089  -3.1077  -3.1015  -3.0913  -3.0847  -3.0819  -3.0796  -3.0778
    -3.0702  -3.0655  -3.0640  -3.0517  -3.0507  -3.0362  -3.0312  -3.0227
    -3.0159  -3.0110  -2.9989  -2.9851  -2.9458  -2.9389  -2.9275  -2.9236
    -2.9105  -2.8890  -2.8667  -2.8556  -2.8248  -2.7764  -2.7577  -2.7377
    -2.7256  -2.7213  -2.7091  -2.6954  -2.6851  -2.6782  -2.6776  -2.6709
    -2.6639  -2.6605  -2.6601  -2.6491  -2.6110  -2.5899  -2.5607  -2.5440
    -2.5374  -2.5339  -2.5285  -2.5187  -2.5181  -2.5031  -2.5004  -2.4811
    -2.4772  -2.4710  -2.4616

          k =-0.5000-0.8660 0.0000 (386352 PWs)   bands (ev):

  -103.0857-103.0188-103.0160-102.5879 -71.4260 -71.4231 -71.4062 -71.3879
   -71.3703 -71.3646 -71.3645 -71.3547 -71.3545 -71.3497 -71.3483 -71.3480
   -71.3437 -71.3436 -71.3379 -71.3259 -71.3254 -71.2929 -71.2928 -71.2785
   -71.2783 -71.0089 -70.9713 -70.9672 -70.8974 -70.8806 -70.8411 -70.8403
   -66.7553 -66.7550 -66.7550 -66.7548 -66.7537 -66.7537 -66.7444 -66.7443
   -66.7443 -66.7443 -66.7434 -66.7430 -66.7430 -66.7356 -66.7297 -66.7296
   -66.7292 -66.7292 -66.7292 -66.7292 -66.7289 -66.7289 -66.7279 -66.7279
   -66.7279 -66.7279 -66.7251 -66.7248 -66.7248 -66.7245 -66.7235 -66.7235
   -66.7220 -66.7194 -66.7185 -66.7185 -66.7185 -66.7185 -66.7184 -66.7184
   -66.7179 -66.7172 -66.7172 -66.7172 -66.7172 -66.7161 -66.7141 -66.7141
   -66.7140 -66.7140 -66.7128 -66.7128 -66.7123 -66.7104 -66.7000 -66.6969
   -66.6940 -66.6936 -66.6930 -66.6890 -66.6858 -66.6850 -66.6819 -66.6682
   -57.3822 -57.3592 -57.3050 -57.3025 -57.2312 -57.1824 -57.1739 -57.1530
   -57.1230 -57.0820 -56.6611 -56.6048 -41.0574 -41.0570 -41.0570 -41.0570
   -41.0570 -41.0569 -41.0568 -41.0566 -41.0563 -41.0563 -41.0563 -41.0563
   -41.0374 -41.0353 -41.0304 -41.0302 -41.0301 -41.0299 -41.0295 -41.0295
   -41.0273 -41.0181 -41.0181 -41.0181 -41.0181 -41.0174 -41.0174 -41.0118
   -41.0071 -41.0036 -40.9859 -40.9744 -40.9674 -40.9674 -40.9674 -40.9674
   -40.9674 -40.9674 -40.9674 -40.9673 -40.9667 -40.9667 -40.9667 -40.9667
   -40.9468 -40.9363 -40.9342 -40.9289 -40.9264 -40.9182 -40.9089 -40.9086
   -40.9086 -40.9084 -40.9080 -40.9079 -40.9051 -40.8991 -40.8991 -40.8991
   -40.8991 -40.8983 -40.8983 -40.8981 -40.8894 -40.8879 -40.8878 -40.8877
   -40.8877 -40.8871 -40.8871 -40.8714 -40.8697 -40.8651 -40.8586 -40.8585
   -40.8581 -40.8581 -40.8581 -40.8581 -40.8579 -40.8578 -40.8574 -40.8574
   -40.8574 -40.8574 -40.8540 -40.8505 -40.8497 -40.8494 -40.8494 -40.8492
   -40.8487 -40.8487 -40.8484 -40.8446 -40.8396 -40.8379 -40.8377 -40.8376
   -40.8376 -40.8376 -40.8371 -40.8371 -40.8371 -40.8371 -40.8371 -40.8370
   -40.8368 -40.8368 -40.8365 -40.8364 -40.8364 -40.8363 -40.8363 -40.8325
   -40.8293 -40.8285 -40.8284 -40.8284 -40.8284 -40.8277 -40.8277 -40.8267
   -40.8249 -40.8133 -40.8095 -40.8073 -40.8067 -40.8067 -40.8067 -40.8067
   -40.8066 -40.8066 -40.8064 -40.8058 -40.8058 -40.8058 -40.8058 -40.7974
   -40.7785 -40.7763 -40.7720 -40.7720 -40.7720 -40.7720 -40.7720 -40.7719
   -40.7719 -40.7719 -40.7710 -40.7710 -40.7710 -40.7710 -40.7704 -40.7690
   -40.7600 -40.7598 -40.7598 -40.7596 -40.7589 -40.7588 -40.7439 -40.7408
   -40.7406 -40.7405 -40.7405 -40.7402 -40.7396 -40.7395 -40.7332 -40.7318
   -40.7260 -40.7235 -40.7235 -40.7235 -40.7235 -40.7225 -40.7225 -40.7141
   -40.7045 -40.6974 -40.6931 -40.6928 -40.6928 -40.6926 -40.6925 -40.6918
   -40.6918 -40.6820 -40.6586 -40.6448 -20.9115 -20.1828 -20.0639 -20.0065
   -19.9989 -19.9119 -19.9026 -19.8013 -19.7957 -19.7022 -19.6112 -19.5702
   -19.5674 -19.4864 -19.4765 -19.3841 -19.3707 -19.3127 -19.1871 -18.9786
   -18.9439 -18.9317 -18.8630 -18.8620 -18.8600 -18.8556 -18.8479 -18.8298
   -18.8160 -18.7949 -18.7916 -18.7840 -18.7756 -18.7390 -18.7326 -18.7017
   -18.6953 -18.6906 -18.6856 -18.6783 -18.6666 -18.6428 -18.6350 -18.6146
   -18.6077 -18.5997 -18.5763 -18.5532 -18.5496 -18.5445 -18.5363 -18.5201
   -18.4984 -18.4809 -18.4723 -18.4583 -18.4337 -18.4200 -18.3913 -18.3829
   -18.3610 -18.3538 -18.3363 -18.3206 -18.3058 -18.3008 -18.2792 -18.2719
   -18.2464 -18.2365 -18.2354 -18.2350 -18.2330 -18.2159 -18.2113 -18.2101
   -18.2090 -18.2054 -18.2017 -18.2005 -18.1943 -18.1909 -18.1777 -18.1642
   -18.1523 -18.1476 -18.1446 -18.1401 -18.1386 -18.1360 -18.1359 -18.1290
   -18.1265 -18.1156 -18.0991 -18.0847 -18.0787 -18.0744 -18.0702 -18.0614
   -18.0453 -18.0343 -18.0267 -18.0199 -18.0128 -18.0036 -17.9858 -17.9815
   -17.9773 -17.9758 -17.9564 -17.9555 -17.9552 -17.9543 -17.9535 -17.9533
   -17.9415 -17.9402 -17.9220 -17.9198 -17.8972 -17.8954 -17.8779 -17.8755
   -17.8631 -17.8617 -17.8554 -17.8552 -12.9977 -12.7269 -12.6305 -12.3481
   -12.1176 -12.0490 -11.9649 -11.8509 -11.8184 -11.7139 -11.6740 -11.6544
   -11.6401 -11.6356 -11.6309 -11.6174 -11.6014 -11.5907 -11.5670 -11.5551
   -11.5334 -11.5311 -11.5259 -11.4984 -11.4918 -11.4813 -11.4563 -11.4442
   -11.4342 -11.4174 -11.4116 -11.4047 -11.4001 -11.3925 -11.3920 -11.3736
   -11.3541 -11.3434 -11.3413 -11.3364 -11.3215 -11.3100 -11.3091 -11.2967
   -11.2917 -11.2846 -11.2832 -11.2774 -11.2640 -11.2405 -11.2398 -11.2272
   -11.2010 -11.1798 -11.1507 -11.1313 -11.1218 -11.1156 -11.0935 -11.0881
   -11.0608 -11.0512 -11.0365 -11.0202 -10.9959 -10.9915 -10.9803 -10.9759
   -10.9723 -10.9612 -10.9530 -10.9480 -10.9471 -10.9465 -10.9440 -10.9363
   -10.9325 -10.9291 -10.9288 -10.9238 -10.9206 -10.9186 -10.9154 -10.8944
   -10.8869 -10.8790 -10.8786 -10.8762 -10.8734 -10.7838 -10.7445 -10.7012
   -10.6754 -10.6711 -10.6514 -10.6346 -10.5748 -10.5561 -10.4798 -10.4749
   -10.4504 -10.3857 -10.3537 -10.3365 -10.3062 -10.2736 -10.2590 -10.2571
   -10.2511 -10.2419 -10.2350 -10.1984 -10.1832 -10.1807 -10.1767 -10.1724
   -10.1665 -10.1641 -10.1421 -10.1288 -10.1105 -10.0962 -10.0914 -10.0727
   -10.0647 -10.0504 -10.0452 -10.0388 -10.0290 -10.0258 -10.0083  -9.9808
    -9.9739  -9.9572  -9.9426  -9.9328  -9.9193  -9.9070  -9.9034  -9.8876
    -9.8761  -9.8571  -9.8380  -9.8161  -9.8102  -9.8043  -9.7931  -9.7710
    -9.7617  -9.7443  -9.7360  -9.7332  -9.7219  -9.7042  -9.6970  -9.6928
    -9.6853  -9.6579  -9.6391  -9.6309  -9.6282  -9.6203  -9.6152  -9.6013
    -9.6012  -9.5981  -9.5861  -9.5801  -9.5734  -9.5630  -9.5499  -9.5425
    -9.5225  -9.5104  -9.4789  -9.4553  -9.4113  -9.3881  -9.3776  -9.3688
    -9.3566  -9.3522  -9.3418  -9.3336  -9.3093  -9.3038  -9.2913  -9.2820
    -9.2726  -9.2539  -9.2354  -9.2247  -9.2044  -9.2004  -9.1930  -9.1907
    -9.1779  -9.1728  -9.1530  -9.1375  -9.1288  -9.1129  -9.1029  -9.0994
    -9.0911  -9.0853  -9.0748  -9.0698  -9.0501  -9.0419  -9.0355  -9.0309
    -9.0286  -9.0276  -9.0226  -9.0205  -9.0160  -9.0054  -9.0049  -9.0032
    -8.9970  -8.9932  -8.9867  -8.9789  -8.9758  -8.9756  -8.9548  -8.9448
[...]
     atom  174 type  2   force =    -0.00000971    0.00000810    0.00004226
     atom  175 type  1   force =    -0.00002287    0.00002216   -0.00001749
     atom  176 type  1   force =    -0.00003504    0.00016013    0.00009252
     atom  177 type  2   force =     0.00000082    0.00033257    0.00010332
     atom  178 type  2   force =    -0.00000802    0.00001676   -0.00001369
     atom  179 type  2   force =    -0.00001186    0.00002290   -0.00001278
     atom  180 type  2   force =    -0.00006586    0.00002044    0.00018343
     atom  181 type  1   force =     0.00000114    0.00000452    0.00068811
     atom  182 type  1   force =    -0.00001160    0.00000164    0.00000944
     atom  183 type  2   force =    -0.00000189    0.00000298    0.00000339
     atom  184 type  2   force =    -0.00000047    0.00000529    0.00161557
     atom  185 type  2   force =    -0.00000065    0.00000488   -0.00236083
     atom  186 type  2   force =    -0.00001065    0.00000414    0.00003471
     atom  187 type  1   force =    -0.00000159    0.00001874   -0.00001167
     atom  188 type  1   force =    -0.00038145    0.00001032    0.00039132
     atom  189 type  2   force =    -0.00006535   -0.00017374    0.00017761
     atom  190 type  2   force =    -0.00000184    0.00000568   -0.00002992
     atom  191 type  2   force =    -0.00001016    0.00001126   -0.00002788
     atom  192 type  2   force =     0.00008421    0.00009203    0.00017733
     atom  193 type  3   force =    -0.00036240   -0.00078032   -0.00016877
     atom  194 type  3   force =     0.00036025   -0.00078095   -0.00016916
     atom  195 type  3   force =     0.00000101    0.00052436    0.00075214
     atom  196 type  3   force =    -0.00000114   -0.00022962   -0.00045670

     Total force =     0.003134     Total SCF correction =     0.000593
     SCF correction compared to forces is large: reduce conv_thr to get better values
     Energy error            =      1.9E-05 Ry
     Gradient error          =      7.8E-04 Ry/Bohr

     bfgs converged in  43 scf cycles and  42 bfgs steps
     (criteria: energy <  1.0E-04 Ry, force <  1.0E-03 Ry/Bohr)

     End of BFGS Geometry Optimization

     Final energy             =  -38492.3256802442 Ry

     File ./outdir/pwscf.bfgs deleted, as requested
Begin final coordinates

ATOMIC_POSITIONS (angstrom)
Mo               0.0000119917        1.8193638619       -9.1672481230    0   0   0
Mo               1.5756136568        0.9097075315       -3.0554901653    0   0   0
S                0.0000188998        1.8193822938       -4.6232556019    0   0   0
S                1.5756321638        0.9096773839       -7.6014065489    0   0   0
S                1.5756326175        0.9096785128      -10.7330757790    0   0   0
S                0.0000189190        1.8193860094       -1.4877129945    0   0   0
Mo               0.0007179175        1.8212991347        3.0583328064
Mo               1.5728520276        0.9141338806        9.1976210330
S                0.0168159725        1.8137659966        7.5840002469
S                1.5768554074        0.9117441434        4.6258589134
S                1.5759996603        0.9118154202        1.4900206808
S               -0.0295775562        1.8141043826       10.7365502135
Mo              -1.5756053507        4.5484193819       -9.1672481230    0   0   0
Mo               0.0000378379        3.6387394919       -3.0554952701    0   0   0
S               -1.5755913433        4.5484363582       -4.6232494962    0   0   0
S                0.0000148214        3.6387329039       -7.6014065489    0   0   0
S                0.0000152751        3.6387340328      -10.7330757790    0   0   0
S               -1.5755906502        4.5484413613       -1.4877305502    0   0   0
Mo              -1.5752324049        4.5503508334        3.0583640217
Mo              -0.0471582666        3.6216326126        9.1546947969
S               -1.5831351705        4.5713778273        7.5748125970
S                0.0002519989        3.6404500763        4.6267396106
S                0.0008076034        3.6407950140        1.4909406776
S               -1.6038255032        4.5487443205       10.7254806492
Mo              -3.1512226931        7.2774749019       -9.1672481230    0   0   0
Mo              -1.5755910988        6.3678216792       -3.0555115988    0   0   0
S               -3.1512162438        7.2774954350       -4.6232578178    0   0   0
S               -1.5756025210        6.3677884239       -7.6014065489    0   0   0
S               -1.5756020673        6.3677895528      -10.7330757790    0   0   0
S               -3.1512127704        7.2774877076       -1.4877200710    0   0   0
Mo              -3.1509413670        7.2796008529        3.0576566705
Mo              -1.5872061136        6.3818830479        9.1757381112
S               -3.1504276022        7.3000094803        7.6057888745
S               -1.5757131136        6.3701050485        4.6256984522
S               -1.5751384382        6.3694597595        1.4902132935
S               -3.1504192451        7.2865459615       10.7558162740
Mo              -4.7268400355       10.0065304219       -9.1672481230    0   0   0
Mo              -3.1512405618        9.0968403586       -3.0554816746    0   0   0
S               -4.7268341792       10.0065523623       -4.6232463762    0   0   0
S               -3.1512198634        9.0968439439       -7.6014065489    0   0   0
S               -3.1512194097        9.0968450728      -10.7330757790    0   0   0
S               -4.7268370797       10.0065537885       -1.4877176751    0   0   0
Mo              -4.7261516212       10.0086316955        3.0577341330
Mo              -3.1504233634        9.1099638149        9.1888520356
S               -4.7134266487       10.0260980200        7.6135391016
S               -3.1509349352        9.0989748519        4.6255285776
S               -3.1509407515        9.0988070360        1.4896483235
S               -4.7289834529       10.0124529719       10.7614442947
Mo               3.1512517547        1.8193638619       -9.1672481230    0   0   0
Mo               4.7269020221        0.9097289540       -3.0554823951    0   0   0
S                3.1512612351        1.8193882564       -4.6232320683    0   0   0
S                4.7268719268        0.9096773839       -7.6014065489    0   0   0
S                4.7268723805        0.9096785128      -10.7330757790    0   0   0
S                3.1512592485        1.8193890201       -1.4877261251    0   0   0
Mo               3.1515321590        1.8216002176        3.0578247907
Mo               4.7312412128        0.9141328951        9.1976190881
S                3.1520432692        1.8419560288        7.6542603948
S                4.7262151854        0.9117470539        4.6258663107
S                4.7270562973        0.9118149006        1.4900245038
S                3.1520534415        1.7316949805       10.8581283633
Mo               1.5756344123        4.5484193819       -9.1672481230    0   0   0
Mo               3.1512756394        3.6387769522       -3.0554814834    0   0   0
S                1.5756504879        4.5484423799       -4.6232390542    0   0   0
S                3.1512545844        3.6387329039       -7.6014065489    0   0   0
S                3.1512550381        3.6387340328      -10.7330757790    0   0   0
S                1.5756466253        4.5484431864       -1.4877251801    0   0   0
Mo               1.5760861526        4.5502197891        3.0594551315
Mo               3.1520522908        3.6252311847        9.2229703294
S                1.5829613199        4.5445889750        7.6539257722
S                3.1515383306        3.6400958794        4.6275283084
S                3.1515289932        3.6412745909        1.4910372302
S                1.4276544179        4.4926490388       10.7727703312
Mo               0.0000170699        7.2774749019       -9.1672481230    0   0   0
Mo               1.5756764447        6.3678236689       -3.0554877708    0   0   0
S                0.0000381981        7.2774979204       -4.6232454413    0   0   0
S                1.5756372420        6.3677884239       -7.6014065489    0   0   0
S                1.5756376957        6.3677895528      -10.7330757790    0   0   0
S                0.0000328088        7.2774946042       -1.4877307940    0   0   0
Mo               0.0001459449        7.2791366158        3.0582834523
Mo               1.5246761749        6.3838926428        9.1849184049
S               -0.0111572355        7.2906974189        7.6143566811
S                1.5748740214        6.3693312407        4.6278954709
S                1.5765820272        6.3695307786        1.4917776217
S               -0.0850058206        7.3320206746       10.8142647255
Mo              -1.5756002725       10.0065304219       -9.1672481230    0   0   0
Mo               0.0000873425        9.0968676911       -3.0554912329    0   0   0
S               -1.5755883952       10.0065504530       -4.6232240150    0   0   0
S                0.0000198996        9.0968439439       -7.6014065489    0   0   0
S                0.0000203533        9.0968450728      -10.7330757790    0   0   0
S               -1.5755859047       10.0065492576       -1.4877362381    0   0   0
Mo              -1.5757239501       10.0086332968        3.0577404539
Mo              -0.0107897719        9.1169755784        9.1743989883
S               -1.5874280654       10.0260973687        7.6135354182
S               -0.0009936050        9.0984653999        4.6256053154
S                0.0005099575        9.0986110659        1.4906056904
S               -1.5718529347       10.0124512482       10.7614408976
Mo               6.3024915177        1.8193638619       -9.1672481230    0   0   0
Mo               7.8781001445        0.9096521684       -3.0554919963    0   0   0
S                6.3025008696        1.8193826232       -4.6232480596    0   0   0
S                7.8781116898        0.9096773839       -7.6014065489    0   0   0
S                7.8781121435        0.9096785128      -10.7330757790    0   0   0
S                6.3025042007        1.8193849068       -1.4877147524    0   0   0
Mo               6.3023461460        1.8213004091        3.0583389185
Mo               7.8746716666        0.9171720639        9.1406467868
S                6.2872693520        1.8137663925        7.5839989772
S                7.8785049146        0.9124589666        4.6251815486
S                7.8780119406        0.9110342242        1.4904526914
S                6.3336773997        1.8141002732       10.7365507058
Mo               4.7268741753        4.5484193819       -9.1672481230    0   0   0
Mo               6.3024679138        3.6387501714       -3.0554895197    0   0   0
S                4.7268748770        4.5484386753       -4.6232519432    0   0   0
S                6.3024943474        3.6387329039       -7.6014065489    0   0   0
S                6.3024948011        3.6387340328      -10.7330757790    0   0   0
S                4.7268770533        4.5484432419       -1.4877137856    0   0   0
Mo               4.7269826628        4.5502197828        3.0594546043
Mo               6.3512590976        3.6216312869        9.1546981224
S                4.7211355642        4.5445894000        7.6539310969
S                6.3028261211        3.6404543148        4.6267432781
S                6.3022511809        3.6407927584        1.4909431851
S                4.8764586621        4.4926465109       10.7727725213
Mo               3.1512568329        7.2774749019       -9.1672481230    0   0   0
Mo               4.7268384135        6.3678043337       -3.0554959052    0   0   0
S                3.1512606125        7.2774972547       -4.6232589675    0   0   0
S                4.7268770050        6.3677884239       -7.6014065489    0   0   0
S                4.7268774587        6.3677895528      -10.7330757790    0   0   0
S                3.1512629079        7.2774963749       -1.4877081835    0   0   0
Mo               3.1515378873        7.2789475299        3.0605624067
Mo               4.7794284159        6.3838946923        9.1849241406
S                3.1520512044        7.2559699285        7.6231060448
S                4.7282130498        6.3693329447        4.6278924470
S                4.7264802388        6.3695290636        1.4917755246
S                3.1520541224        7.3911815128       10.6222777169
Mo               1.5756394905       10.0065304219       -9.1672481230    0   0   0
Mo               3.1512330605        9.0968514907       -3.0554878870    0   0   0
S                1.5756499830       10.0065443759       -4.6232632674    0   0   0
S                3.1512596626        9.0968439439       -7.6014065489    0   0   0
S                3.1512601163        9.0968450728      -10.7330757790    0   0   0
S                1.5756503041       10.0065459699       -1.4877044377    0   0   0
Mo               1.5756780689       10.0083095012        3.0590395686
Mo               3.1520555399        9.1665225891        9.0803086479
S                1.5343627544       10.0303976258        7.5571830755
S                3.1515480418        9.0990744156        4.6277199881
S                3.1515337205        9.0978907710        1.4920327830
S                1.5940603091       10.0233569321       10.7207385126
Mo               9.4537312807        1.8193638619       -9.1672481230    0   0   0
Mo              11.0293863460        0.9096952246       -3.0554894007    0   0   0
S                9.4537395970        1.8193770750       -4.6232328036    0   0   0
S               11.0293514528        0.9096773839       -7.6014065489    0   0   0
S               11.0293519066        0.9096785128      -10.7330757790    0   0   0
S                9.4537393632        1.8193794783       -1.4877366147    0   0   0
Mo               9.4540118726        1.8214188383        3.0572659292
Mo              11.0343778237        0.9171721413        9.1406496749
S                9.4545224399        1.8292873941        7.5675831535
S               11.0295304668        0.9124559276        4.6251771603
S               11.0299980454        0.9110341401        1.4904481270
S                9.4545287745        1.8262627581       10.7035337093
Mo               7.8781139383        4.5484193819       -9.1672481230    0   0   0
Mo               9.4537539161        3.6387607911       -3.0554933032    0   0   0
S                7.8781175448        4.5484378232       -4.6232366318    0   0   0
S                9.4537341104        3.6387329039       -7.6014065489    0   0   0
S                9.4537345641        3.6387340328      -10.7330757790    0   0   0
S                7.8781194018        4.5484411585       -1.4877377057    0   0   0
Mo               7.8783019275        4.5503502963        3.0583642816
Mo               9.4545266282        3.6494893977        9.1391709132
S                7.8872208415        4.5713784729        7.5748163825
S                9.4540194097        3.6404226357        4.6253478761
S                9.4540093412        3.6409739271        1.4901480076
S                7.9079317665        4.5487452592       10.7254838557
Mo               6.3024965959        7.2774749019       -9.1672481230    0   0   0
Mo               7.8781361655        6.3678242352       -3.0555014130    0   0   0
S                6.3024973331        7.2774953556       -4.6232392528    0   0   0
S                7.8781167680        6.3677884239       -7.6014065489    0   0   0
S                7.8781172217        6.3677895528      -10.7330757790    0   0   0
S                6.3024989866        7.2774929744       -1.4877349119    0   0   0
Mo               6.3029304125        7.2791350963        3.0582761713
Mo               7.8913126392        6.3818833827        9.1757411897
S                6.3152577921        7.2906987413        7.6143649052
S                7.8787970180        6.3701060348        4.6256955677
S                7.8782069029        6.3694582847        1.4902108304
S                6.3891265384        7.3320241038       10.8142697426
Mo               4.7268792535       10.0065304219       -9.1672481230    0   0   0
Mo               6.3025111524        9.0968738021       -3.0554915260    0   0   0
S                4.7268840634       10.0065452125       -4.6232380477    0   0   0
S                6.3024994256        9.0968439439       -7.6014065489    0   0   0
S                6.3024998793        9.0968450728      -10.7330757790    0   0   0
S                4.7268847312       10.0065459141       -1.4877283294    0   0   0
Mo               4.7274048235       10.0083082317        3.0590340615
Mo               6.3149006775        9.1169766188        9.1744049472
S                4.7697450022       10.0304000838        7.5571874766
S                6.3040862404        9.0984621823        4.6255961644
S                6.3025619540        9.0986102748        1.4905986482
S                4.7100543683       10.0233557752       10.7207442916
Pt               1.6806657646        6.3226995168       12.1225876099
Pt               4.6234706064        6.3227018907       12.1225844277
Pt               3.1520627177        8.5927296636       12.4899943565
Pt               3.1520642337        3.7708121843       12.0861177703
End final coordinates



     Writing all to output data dir ./outdir/pwscf.save/ :
     XML data file, charge density, pseudopotentials, collected wavefunctions
 
     init_run     :    180.76s CPU    184.57s WALL (       1 calls)
     electrons    : 163860.00s CPU 165814.62s WALL (      18 calls)
     update_pot   :     41.66s CPU     42.65s WALL (      17 calls)
     forces       :   2473.45s CPU   2511.97s WALL (      18 calls)
     force_dftd3  :     12.49s CPU     13.02s WALL (      18 calls)

     Called by init_run:
     wfcinit      :    156.64s CPU    158.48s WALL (       1 calls)
     potinit      :      2.15s CPU      2.65s WALL (       1 calls)
     hinit0       :     13.02s CPU     13.26s WALL (       1 calls)

     Called by electrons:
     c_bands      : 145788.19s CPU 147166.32s WALL (     247 calls)
     sum_band     :  16186.44s CPU  16499.76s WALL (     247 calls)
     v_of_rho     :     88.89s CPU    100.22s WALL (     250 calls)
     newd         :   1387.53s CPU   1640.14s WALL (     250 calls)
     PAW_pot      :    452.31s CPU    455.49s WALL (     267 calls)
     mix_rho      :     24.50s CPU     28.41s WALL (     247 calls)
     energy_dftd3 :      7.32s CPU      7.37s WALL (      18 calls)

     Called by c_bands:
     init_us_2    :    532.10s CPU    534.46s WALL (    2120 calls)
     init_us_2:cp :    532.08s CPU    534.45s WALL (    2120 calls)
     cegterg      : 143440.93s CPU 144798.60s WALL (    1018 calls)

     Called by *egterg:
     cdiaghg      :   9313.70s CPU   9624.02s WALL (   13171 calls)
     h_psi        :  71755.19s CPU  72206.48s WALL (   13323 calls)
     s_psi        :  16324.07s CPU  16426.64s WALL (   13323 calls)
     g_psi        :    127.62s CPU    128.17s WALL (   12301 calls)

     Called by h_psi:
     h_psi:calbec :  16728.77s CPU  16785.18s WALL (   13323 calls)
     vloc_psi     :  38344.16s CPU  38537.17s WALL (   13323 calls)
     add_vuspsi   :  16391.06s CPU  16495.15s WALL (   13323 calls)

     General routines
     calbec       :  23811.41s CPU  23892.33s WALL (   14667 calls)
     fft          :     98.74s CPU    108.90s WALL (    3444 calls)
     ffts         :      5.32s CPU      5.70s WALL (     497 calls)
     fftw         :  29079.78s CPU  29222.13s WALL ( 7516702 calls)
     interpolate  :      7.74s CPU      8.51s WALL (     250 calls)
 
     Parallel routines
 
     PWSCF        :   1d22h28m CPU   1d23h 3m WALL

 
   This run was terminated on:   6:41:30  29Feb2024            

=------------------------------------------------------------------------------=
   JOB DONE.
=------------------------------------------------------------------------------=
