
     Program PWSCF v.7.3 starts on 11Mar2024 at  9:23:45 

     This program is part of the open-source Quantum ESPRESSO suite
     for quantum simulation of materials; please cite
         "P. Giannozzi et al., J. Phys.:Condens. Matter 21 395502 (2009);
         "P. Giannozzi et al., J. Phys.:Condens. Matter 29 465901 (2017);
         "P. Giannozzi et al., J. Chem. Phys. 152 154105 (2020);
          URL http://www.quantum-espresso.org", 
     in publications or presentations arising from this work. More details at
     http://www.quantum-espresso.org/quote

     Parallel version (MPI & OpenMP), running on      36 processor cores
     Number of MPI processes:                36
     Threads/MPI process:                     1

     MPI processes distributed on     1 nodes
     541060 MiB available memory on the printing compute node when the environment starts
 
     Waiting for input...
     Reading input from standard input
Warning: card &CELL ignored
Warning: card / ignored

     Current dimensions of program PWSCF are:
     Max number of different atomic species (ntypx) = 10
     Max number of k-points (npk) =  40000
     Max angular momentum in pseudopotentials (lmaxx) =  4
     file Mo.pbe-spn-kjpaw_psl.1.0.0.UPF: wavefunction(s)  4S 4D renormalized
     file S.pbe-n-kjpaw_psl.1.0.0.UPF: wavefunction(s)  3S 3P renormalized
     file Pd.pbe-spn-kjpaw_psl.1.0.0.UPF: wavefunction(s)  4S 5S 4D renormalized
     file Pt.pbe-spfn-kjpaw_psl.1.0.0.UPF: wavefunction(s)  5P 4F renormalized
 
     R & G space division:  proc/nbgrp/npool/nimage =      36
     Subspace diagonalization in iterative solution of the eigenvalue problem:
     one sub-group per band group will be used
     scalapack distributed-memory algorithm (size of sub-group:  6*  6 procs)

 
     Parallelization info
     --------------------
     sticks:   dense  smooth     PW     G-vecs:    dense   smooth      PW
     Min         586     335     89               165416    71459    9765
     Max         587     337     90               165425    71461    9778
     Sum       21109   12085   3205              5955087  2572543  351657
 
     Using Slab Decomposition
 


     bravais-lattice index     =            0
     lattice parameter (alat)  =      23.8395  a.u.
     unit-cell volume          =   28182.8498 (a.u.)^3
     number of atoms/cell      =          146
     number of atomic types    =            4
     number of electrons       =      1298.00
     number of Kohn-Sham states=          779
     kinetic-energy cutoff     =      77.0000  Ry
     charge density cutoff     =     539.0000  Ry
     scf convergence threshold =      1.0E-06
     mixing beta               =       0.2000
     number of iterations used =            8  plain     mixing
     energy convergence thresh.=      1.0E-04
     force convergence thresh. =      1.0E-03
     Exchange-correlation= SLA  PW   PBX  PBC
                           (   1   4   3   4   0   0   0)
     nstep                     =         1000


     Effective Screening Medium Method
     =================================
     Boundary Conditions: Vacuum-Slab-Vacuum
     total charge in unit cell        =   0.0000
     grid points for fit at edges     =        4 
 

     celldm(1)=  23.839504  celldm(2)=   0.000000  celldm(3)=   0.000000
     celldm(4)=   0.000000  celldm(5)=   0.000000  celldm(6)=   0.000000

     crystal axes: (cart. coord. in units of alat)
               a(1) = (   1.000000   0.000000   0.000000 )  
               a(2) = (  -0.500001   0.866026   0.000000 )  
               a(3) = (   0.000000   0.000000   2.401941 )  

     reciprocal axes: (cart. coord. in units 2 pi/alat)
               b(1) = (  1.000000  0.577351  0.000000 )  
               b(2) = (  0.000000  1.154700  0.000000 )  
               b(3) = (  0.000000  0.000000  0.416330 )  


     PseudoPot. # 1 for Mo read from file:
     ./pseudo/Mo.pbe-spn-kjpaw_psl.1.0.0.UPF
     MD5 check sum: 317bf72632116215fd98f72de1686f13
     Pseudo is Projector augmented-wave + core cor, Zval = 14.0
     Generated using 'atomic' code by A. Dal Corso  v.7.2
     Shape of augmentation charge: PSQ
     Using radial grid of 1229 points,  6 beta functions with: 
                l(1) =   0
                l(2) =   0
                l(3) =   1
                l(4) =   1
                l(5) =   2
                l(6) =   2
     Q(r) pseudized with 0 coefficients 


     PseudoPot. # 2 for S  read from file:
     ./pseudo/S.pbe-n-kjpaw_psl.1.0.0.UPF
     MD5 check sum: 8b7b5302570d38d5e87fed6a1065abda
     Pseudo is Projector augmented-wave + core cor, Zval =  6.0
     Generated using 'atomic' code by A. Dal Corso  v.7.2
     Shape of augmentation charge: PSQ
     Using radial grid of 1151 points,  6 beta functions with: 
                l(1) =   0
                l(2) =   0
                l(3) =   1
                l(4) =   1
                l(5) =   2
                l(6) =   2
     Q(r) pseudized with 0 coefficients 


     PseudoPot. # 3 for Pd read from file:
     ./pseudo/Pd.pbe-spn-kjpaw_psl.1.0.0.UPF
     MD5 check sum: a60571a671f2502b8a6a4569d20a6edb
     Pseudo is Projector augmented-wave + core cor, Zval = 18.0
     Generated using 'atomic' code by A. Dal Corso  v.7.2
     Shape of augmentation charge: PSQ
     Using radial grid of 1235 points,  6 beta functions with: 
                l(1) =   0
                l(2) =   0
                l(3) =   1
                l(4) =   1
                l(5) =   2
                l(6) =   2
     Q(r) pseudized with 0 coefficients 


     PseudoPot. # 4 for Pt read from file:
     ./pseudo/Pt.pbe-spfn-kjpaw_psl.1.0.0.UPF
     MD5 check sum: 620096ebf4e6ebacc94de60fd67efcb5
     Pseudo is Projector augmented-wave + core cor, Zval = 32.0
     Generated using 'atomic' code by A. Dal Corso  v.7.2
     Shape of augmentation charge: PSQ
     Using radial grid of 1277 points,  8 beta functions with: 
                l(1) =   0
                l(2) =   0
                l(3) =   1
                l(4) =   1
                l(5) =   2
                l(6) =   2
                l(7) =   3
                l(8) =   3
     Q(r) pseudized with 0 coefficients 


     atomic species   valence    mass     pseudopotential
     Mo               14.00    95.95000     Mo( 1.00)
     S                 6.00    32.06000     S ( 1.00)
     Pd               18.00   106.42000     Pd( 1.00)
     Pt               32.00   195.08400     Pt( 1.00)

     No symmetry found



   Cartesian axes

     site n.     atom                  positions (alat units)
         1        Mo     tau(   1) = (   0.1244805   0.2154429   0.4826124  )
         2        Mo     tau(   2) = (   0.1250004   0.0721694  -0.4825273  )
         3        Mo     tau(   3) = (   0.0000154   0.1443583  -0.0000534  )
         4        S      tau(   4) = (   0.0000004   0.0000006  -0.6064556  )
         5        S      tau(   5) = (   0.1249822   0.0722030  -0.1241916  )
         6        S      tau(   6) = (   0.0001873   0.1444894   0.3573292  )
         7        S      tau(   7) = (   0.0000004   0.0000005  -0.3584711  )
         8        S      tau(   8) = (   0.1250220   0.0721432   0.1241096  )
         9        S      tau(   9) = (  -0.0009222   0.1433430   0.6062350  )
        10        Mo     tau(  10) = (  -0.0011812   0.4330952   0.4826123  )
        11        Mo     tau(  11) = (   0.0000001   0.2886759  -0.4825273  )
        12        Mo     tau(  12) = (  -0.1249761   0.3608493  -0.0000533  )
        13        S      tau(  13) = (  -0.1249999   0.2165071  -0.6064556  )
        14        S      tau(  14) = (   0.0000232   0.2886904  -0.1241345  )
        15        S      tau(  15) = (  -0.1247753   0.3609305   0.3573291  )
        16        S      tau(  16) = (  -0.1249998   0.2165070  -0.3584711  )
        17        S      tau(  17) = (   0.0000901   0.2887289   0.1242236  )
        18        S      tau(  18) = (  -0.1263226   0.3605428   0.6062351  )
        19        Mo     tau(  19) = (  -0.1251400   0.6495983   0.4819363  )
        20        Mo     tau(  20) = (  -0.1250002   0.5051824  -0.4825273  )
        21        Mo     tau(  21) = (  -0.2500026   0.5773383  -0.0001491  )
        22        S      tau(  22) = (  -0.2500002   0.4330136  -0.6064556  )
        23        S      tau(  23) = (  -0.1249812   0.5051509  -0.1241919  )
        24        S      tau(  24) = (  -0.2500015   0.5775831   0.3575295  )
        25        S      tau(  25) = (  -0.2500001   0.4330135  -0.3584711  )
        26        S      tau(  26) = (  -0.1250129   0.5052153   0.1241101  )
        27        S      tau(  27) = (  -0.2500018   0.5771934   0.6060379  )
        28        Mo     tau(  28) = (   0.2499987  -0.0001601   0.4819365  )
        29        Mo     tau(  29) = (  -0.2500004   0.7216889  -0.4825273  )
        30        Mo     tau(  30) = (  -0.3750135   0.7938631  -0.0001491  )
        31        S      tau(  31) = (  -0.3750004   0.6495201  -0.6064556  )
        32        S      tau(  32) = (  -0.2500026   0.7216883  -0.1242347  )
        33        S      tau(  33) = (  -0.3747997   0.7937400   0.3575295  )
        34        S      tau(  34) = (  -0.3750004   0.6495200  -0.3584711  )
        35        S      tau(  35) = (  -0.2500029   0.7216883   0.1240299  )
        36        S      tau(  36) = (  -0.3751376   0.7939346   0.6060379  )
        37        Mo     tau(  37) = (   0.3755166   0.2154425   0.4826119  )
        38        Mo     tau(  38) = (   0.3750004   0.0721694  -0.4825273  )
        39        Mo     tau(  39) = (   0.2499990   0.1443474  -0.0000968  )
        40        S      tau(  40) = (   0.2500004   0.0000006  -0.6064556  )
        41        S      tau(  41) = (   0.3750152   0.0722028  -0.1241921  )
        42        S      tau(  42) = (   0.2499983   0.1443201   0.3580593  )
        43        S      tau(  43) = (   0.2500004   0.0000005  -0.3584711  )
        44        S      tau(  44) = (   0.3749754   0.0721432   0.1241106  )
        45        S      tau(  45) = (   0.2499987   0.1437775   0.6065499  )
        46        Mo     tau(  46) = (   0.2499984   0.4330123   0.4872880  )
        47        Mo     tau(  47) = (   0.2500001   0.2886759  -0.4825273  )
        48        Mo     tau(  48) = (   0.1250277   0.3608616  -0.0000572  )
        49        S      tau(  49) = (   0.1250001   0.2165071  -0.6064556  )
        50        S      tau(  50) = (   0.2499987   0.2886898  -0.1241693  )
        51        S      tau(  51) = (   0.1266397   0.3617911   0.3615924  )
        52        S      tau(  52) = (   0.1250002   0.2165070  -0.3584711  )
        53        S      tau(  53) = (   0.2499988   0.2886671   0.1241958  )
        54        S      tau(  54) = (   0.1173054   0.3564020   0.6108885  )
        55        Mo     tau(  55) = (   0.1243363   0.6504991   0.4826116  )
        56        Mo     tau(  56) = (   0.1249998   0.5051824  -0.4825273  )
        57        Mo     tau(  57) = (   0.0000060   0.5773464  -0.0000969  )
        58        S      tau(  58) = (  -0.0000002   0.4330136  -0.6064556  )
        59        S      tau(  59) = (   0.1250101   0.5051751  -0.1241696  )
        60        S      tau(  60) = (  -0.0000165   0.5773581   0.3580590  )
        61        S      tau(  61) = (  -0.0000001   0.4330135  -0.3584711  )
        62        S      tau(  62) = (   0.1249907   0.5051868   0.1241956  )
        63        S      tau(  63) = (  -0.0004863   0.5776299   0.6065497  )
        64        Mo     tau(  64) = (   0.5000682   0.0000393   0.4813064  )
        65        Mo     tau(  65) = (  -0.0000004   0.7216889  -0.4825273  )
        66        Mo     tau(  66) = (  -0.1249919   0.7938635  -0.0001489  )
        67        S      tau(  67) = (  -0.1250004   0.6495201  -0.6064556  )
        68        S      tau(  68) = (   0.0000350   0.7216859  -0.1241920  )
        69        S      tau(  69) = (  -0.1252051   0.7937392   0.3575294  )
        70        S      tau(  70) = (  -0.1250004   0.6495200  -0.3584711  )
        71        S      tau(  71) = (  -0.0000364   0.7216812   0.1241103  )
        72        S      tau(  72) = (  -0.1248667   0.7939344   0.6060378  )
        73        Mo     tau(  73) = (   0.6250985   0.2164481   0.4814760  )
        74        Mo     tau(  74) = (   0.6250004   0.0721694  -0.4825273  )
        75        Mo     tau(  75) = (   0.4999807   0.1443583  -0.0000532  )
        76        S      tau(  76) = (   0.5000004   0.0000006  -0.6064556  )
        77        S      tau(  77) = (   0.6249710   0.0721537  -0.1241599  )
        78        S      tau(  78) = (   0.4998101   0.1444887   0.3573287  )
        79        S      tau(  79) = (   0.5000004   0.0000005  -0.3584711  )
        80        S      tau(  80) = (   0.6250072   0.0721744   0.1241160  )
        81        S      tau(  81) = (   0.5009199   0.1433424   0.6062338  )
        82        Mo     tau(  82) = (   0.5011786   0.4330950   0.4826115  )
        83        Mo     tau(  83) = (   0.5000001   0.2886759  -0.4825273  )
        84        Mo     tau(  84) = (   0.3749686   0.3608615  -0.0000573  )
        85        S      tau(  85) = (   0.3750001   0.2165071  -0.6064556  )
        86        S      tau(  86) = (   0.4999725   0.2886900  -0.1241349  )
        87        S      tau(  87) = (   0.3733572   0.3617909   0.3615920  )
        88        S      tau(  88) = (   0.3750002   0.2165070  -0.3584711  )
        89        S      tau(  89) = (   0.4999057   0.2887288   0.1242238  )
        90        S      tau(  90) = (   0.3826919   0.3564018   0.6108876  )
        91        Mo     tau(  91) = (   0.3756598   0.6504996   0.4826113  )
        92        Mo     tau(  92) = (   0.3749998   0.5051824  -0.4825273  )
        93        Mo     tau(  93) = (   0.2499978   0.5773166  -0.0000576  )
        94        S      tau(  94) = (   0.2499998   0.4330136  -0.6064556  )
        95        S      tau(  95) = (   0.3749857   0.5051746  -0.1241697  )
        96        S      tau(  96) = (   0.2499981   0.5754545   0.3615919  )
        97        S      tau(  97) = (   0.2499999   0.4330135  -0.3584711  )
        98        S      tau(  98) = (   0.3750048   0.5051860   0.1241960  )
        99        S      tau(  99) = (   0.2499983   0.5862331   0.6108872  )
       100        Mo     tau( 100) = (   0.7499988   0.0001148   0.4814756  )
       101        Mo     tau( 101) = (   0.2499996   0.7216889  -0.4825273  )
       102        Mo     tau( 102) = (   0.1250062   0.7938321  -0.0000534  )
       103        S      tau( 103) = (   0.1249996   0.6495201  -0.6064556  )
       104        S      tau( 104) = (   0.2499971   0.7216593  -0.1241350  )
       105        S      tau( 105) = (   0.1250350   0.7936175   0.3573284  )
       106        S      tau( 106) = (   0.1249996   0.6495200  -0.3584711  )
       107        S      tau( 107) = (   0.2499972   0.7215818   0.1242234  )
       108        S      tau( 108) = (   0.1245975   0.7951515   0.6062336  )
       109        Mo     tau( 109) = (  -0.1251006   0.2164484   0.4814769  )
       110        Mo     tau( 110) = (   0.8750004   0.0721694  -0.4825273  )
       111        Mo     tau( 111) = (   0.7499976   0.1443379  -0.0001196  )
       112        S      tau( 112) = (   0.7500004   0.0000006  -0.6064556  )
       113        S      tau( 113) = (   0.8750246   0.0721533  -0.1241599  )
       114        S      tau( 114) = (   0.7499994   0.1443376   0.3572937  )
       115        S      tau( 115) = (   0.7500004   0.0000005  -0.3584711  )
       116        S      tau( 116) = (   0.8749884   0.0721739   0.1241157  )
       117        S      tau( 117) = (   0.7499987   0.1443370   0.6058240  )
       118        Mo     tau( 118) = (  -0.2500010   0.4329316   0.4813070  )
       119        Mo     tau( 119) = (   0.7500001   0.2886759  -0.4825273  )
       120        Mo     tau( 120) = (   0.6249710   0.3608493  -0.0000534  )
       121        S      tau( 121) = (   0.6250001   0.2165071  -0.6064556  )
       122        S      tau( 122) = (   0.7499973   0.2887067  -0.1241600  )
       123        S      tau( 123) = (   0.6247737   0.3609305   0.3573287  )
       124        S      tau( 124) = (   0.6250002   0.2165070  -0.3584711  )
       125        S      tau( 125) = (   0.7499971   0.2886649   0.1241160  )
       126        S      tau( 126) = (   0.6263203   0.3605423   0.6062340  )
       127        Mo     tau( 127) = (  -0.3748636   0.6495986   0.4819361  )
       128        Mo     tau( 128) = (   0.6249998   0.5051824  -0.4825273  )
       129        Mo     tau( 129) = (   0.4999891   0.5773453  -0.0000967  )
       130        S      tau( 130) = (   0.4999998   0.4330136  -0.6064556  )
       131        S      tau( 131) = (   0.6249761   0.5051506  -0.1241920  )
       132        S      tau( 132) = (   0.5000130   0.5773585   0.3580587  )
       133        S      tau( 133) = (   0.4999999   0.4330135  -0.3584711  )
       134        S      tau( 134) = (   0.6250081   0.5052147   0.1241104  )
       135        S      tau( 135) = (   0.5004826   0.5776298   0.6065487  )
       136        Mo     tau( 136) = (  -0.0000706   0.0000401   0.4813070  )
       137        Mo     tau( 137) = (   0.4999996   0.7216889  -0.4825273  )
       138        Mo     tau( 138) = (   0.3749881   0.7938314  -0.0000535  )
       139        S      tau( 139) = (   0.3749996   0.6495201  -0.6064556  )
       140        S      tau( 140) = (   0.4999594   0.7216844  -0.1241918  )
       141        S      tau( 141) = (   0.3749610   0.7936184   0.3573285  )
       142        S      tau( 142) = (   0.3749996   0.6495200  -0.3584711  )
       143        S      tau( 143) = (   0.5000310   0.7216802   0.1241101  )
       144        S      tau( 144) = (   0.3753979   0.7951517   0.6062337  )
       145        Pd     tau( 145) = (   0.2499985   0.4330123   0.7148096  )
       146        Pt     tau( 146) = (   0.5001061   0.0000000   0.7251499  )

     --------------------------------------------
     DFT-D3 Dispersion Correction (3-body terms):
     --------------------------------------------
       Reference C6 values for interpolation: 

         atom   Coordination number   C6
         S          0.000           268.01
         S          0.995           261.99
         S          1.990           251.62
         Mo         0.000          1691.79
         Mo         1.942          1004.01
         Mo        11.056           674.22
         Pd         0.000          1217.01
         Pd         1.863           573.90
         Pd         5.710           531.75
         Pt         0.000           782.29
         Pt         1.919           692.72
         Pt         6.667           673.75

       Values used:

         atom   Coordination number  R0_AB[au]  C6      C8
         Mo        10.173            3.547    674.22  77634.20
         Mo        10.189            3.547    674.22  77634.20
         Mo        10.201            3.547    674.22  77634.20
         S          3.753            3.128    251.62  12327.25
         S          3.858            3.128    251.62  12327.25
         S          3.848            3.128    251.62  12327.25
         S          3.859            3.128    251.62  12327.25
         S          3.860            3.128    251.62  12327.25
         S          3.798            3.128    251.62  12327.25
         Mo        10.173            3.547    674.22  77634.20
         Mo        10.189            3.547    674.22  77634.20
         Mo        10.201            3.547    674.22  77634.20
         S          3.753            3.128    251.62  12327.25
         S          3.859            3.128    251.62  12327.25
         S          3.848            3.128    251.62  12327.25
         S          3.858            3.128    251.62  12327.25
         S          3.855            3.128    251.62  12327.25
         S          3.798            3.128    251.62  12327.25
         Mo        10.219            3.547    674.22  77634.20
         Mo        10.189            3.547    674.22  77634.20
         Mo        10.200            3.547    674.22  77634.20
         S          3.753            3.128    251.62  12327.25
         S          3.858            3.128    251.62  12327.25
         S          3.862            3.128    251.62  12327.25
         S          3.859            3.128    251.62  12327.25
         S          3.860            3.128    251.62  12327.25
         S          3.760            3.128    251.62  12327.25
         Mo        10.219            3.547    674.22  77634.20
         Mo        10.189            3.547    674.22  77634.20
         Mo        10.200            3.547    674.22  77634.20
         S          3.753            3.128    251.62  12327.25
         S          3.858            3.128    251.62  12327.25
         S          3.862            3.128    251.62  12327.25
         S          3.859            3.128    251.62  12327.25
         S          3.862            3.128    251.62  12327.25
         S          3.760            3.128    251.62  12327.25
         Mo        10.183            3.547    674.22  77634.20
         Mo        10.189            3.547    674.22  77634.20
         Mo        10.202            3.547    674.22  77634.20
         S          3.753            3.128    251.62  12327.25
         S          3.858            3.128    251.62  12327.25
         S          3.857            3.128    251.62  12327.25
         S          3.859            3.128    251.62  12327.25
         S          3.860            3.128    251.62  12327.25
         S          3.763            3.128    251.62  12327.25
         Mo        10.810            3.547    674.22  77634.20
         Mo        10.189            3.547    674.22  77634.20
         Mo        10.202            3.547    674.22  77634.20
         S          3.753            3.128    251.62  12327.25
         S          3.859            3.128    251.62  12327.25
         S          3.866            3.128    251.62  12327.25
         S          3.859            3.128    251.62  12327.25
         S          3.853            3.128    251.62  12327.25
         S          4.646            3.128    251.62  12327.25
         Mo        10.184            3.547    674.22  77634.20
         Mo        10.189            3.547    674.22  77634.20
         Mo        10.202            3.547    674.22  77634.20
         S          3.753            3.128    251.62  12327.25
         S          3.859            3.128    251.62  12327.25
         S          3.857            3.128    251.62  12327.25
         S          3.859            3.128    251.62  12327.25
         S          3.853            3.128    251.62  12327.25
         S          3.763            3.128    251.62  12327.25
         Mo        10.813            3.547    674.22  77634.20
         Mo        10.189            3.547    674.22  77634.20
         Mo        10.201            3.547    674.22  77634.20
         S          3.753            3.128    251.62  12327.25
         S          3.858            3.128    251.62  12327.25
         S          3.863            3.128    251.62  12327.25
         S          3.859            3.128    251.62  12327.25
         S          3.860            3.128    251.62  12327.25
         S          4.725            3.128    251.62  12327.25
         Mo        10.223            3.547    674.22  77634.20
         Mo        10.189            3.547    674.22  77634.20
         Mo        10.201            3.547    674.22  77634.20
         S          3.753            3.128    251.62  12327.25
         S          3.858            3.128    251.62  12327.25
         S          3.849            3.128    251.62  12327.25
         S          3.859            3.128    251.62  12327.25
         S          3.860            3.128    251.62  12327.25
         S          4.767            3.128    251.62  12327.25
         Mo        10.173            3.547    674.22  77634.20
         Mo        10.189            3.547    674.22  77634.20
         Mo        10.202            3.547    674.22  77634.20
         S          3.753            3.128    251.62  12327.25
         S          3.859            3.128    251.62  12327.25
         S          3.866            3.128    251.62  12327.25
         S          3.859            3.128    251.62  12327.25
         S          3.855            3.128    251.62  12327.25
         S          4.646            3.128    251.62  12327.25
         Mo        10.173            3.547    674.22  77634.20
         Mo        10.189            3.547    674.22  77634.20
         Mo        10.202            3.547    674.22  77634.20
         S          3.753            3.128    251.62  12327.25
         S          3.859            3.128    251.62  12327.25
         S          3.866            3.128    251.62  12327.25
         S          3.859            3.128    251.62  12327.25
         S          3.853            3.128    251.62  12327.25
         S          4.646            3.128    251.62  12327.25
         Mo        10.223            3.547    674.22  77634.20
         Mo        10.189            3.547    674.22  77634.20
         Mo        10.201            3.547    674.22  77634.20
         S          3.753            3.128    251.62  12327.25
         S          3.859            3.128    251.62  12327.25
         S          3.849            3.128    251.62  12327.25
         S          3.859            3.128    251.62  12327.25
         S          3.855            3.128    251.62  12327.25
         S          4.767            3.128    251.62  12327.25
         Mo        10.213            3.547    674.22  77634.20
         Mo        10.189            3.547    674.22  77634.20
         Mo        10.199            3.547    674.22  77634.20
         S          3.753            3.128    251.62  12327.25
         S          3.858            3.128    251.62  12327.25
         S          3.856            3.128    251.62  12327.25
         S          3.858            3.128    251.62  12327.25
         S          3.860            3.128    251.62  12327.25
         S          3.789            3.128    251.62  12327.25
         Mo        10.223            3.547    674.22  77634.20
         Mo        10.189            3.547    674.22  77634.20
         Mo        10.201            3.547    674.22  77634.20
         S          3.753            3.128    251.62  12327.25
         S          3.858            3.128    251.62  12327.25
         S          3.848            3.128    251.62  12327.25
         S          3.858            3.128    251.62  12327.25
         S          3.860            3.128    251.62  12327.25
         S          3.799            3.128    251.62  12327.25
         Mo        10.209            3.547    674.22  77634.20
         Mo        10.189            3.547    674.22  77634.20
         Mo        10.202            3.547    674.22  77634.20
         S          3.753            3.128    251.62  12327.25
         S          3.859            3.128    251.62  12327.25
         S          3.857            3.128    251.62  12327.25
         S          3.859            3.128    251.62  12327.25
         S          3.860            3.128    251.62  12327.25
         S          3.751            3.128    251.62  12327.25
         Mo        10.223            3.547    674.22  77634.20
         Mo        10.189            3.547    674.22  77634.20
         Mo        10.201            3.547    674.22  77634.20
         S          3.753            3.128    251.62  12327.25
         S          3.858            3.128    251.62  12327.25
         S          3.848            3.128    251.62  12327.25
         S          3.859            3.128    251.62  12327.25
         S          3.860            3.128    251.62  12327.25
         S          3.799            3.128    251.62  12327.25
         Pd         3.772            3.168    556.96  51030.55
         Pt         3.613            3.168    692.72  72035.25

         Molecular C6 ( Ry / a.u.^6 ) =   7935772.22


     number of k points=     4  Gaussian smearing, width (Ry)=  0.0100
                       cart. coord. in units 2pi/alat
        k(    1) = (   0.0000000   0.0000000   0.0000000), wk =   0.5000000
        k(    2) = (   0.0000000  -0.5773499   0.0000000), wk =   0.5000000
        k(    3) = (  -0.5000000  -0.2886755   0.0000000), wk =   0.5000000
        k(    4) = (  -0.5000000  -0.8660254   0.0000000), wk =   0.5000000

     Dense  grid:  5955087 G-vectors     FFT dimensions: ( 180, 180, 432)

     Smooth grid:  2572543 G-vectors     FFT dimensions: ( 135, 135, 320)

     Estimated max dynamical RAM per process >       3.07 GB

     Estimated total dynamical RAM >     110.53 GB

     Initial potential from superposition of free atoms

     starting charge    1297.9541, renormalised to    1298.0000

     negative rho (up, down):  8.856E-04 0.000E+00
     Starting wfcs are  891 randomized atomic wfcs
     Checking if some PAW data can be deallocated... 

     total cpu time spent up to now is       99.8 secs

     Self-consistent Calculation

     iteration #  1     ecut=    77.00 Ry     beta= 0.20
     Davidson diagonalization with overlap
     ethr =  1.00E-02,  avg # of iterations =  2.0

     Threshold (ethr) on eigenvalues was too large:
     Diagonalizing with lowered threshold

     Davidson diagonalization with overlap
     ethr =  1.78E-04,  avg # of iterations = 13.2

     negative rho (up, down):  2.776E-04 0.000E+00

     total cpu time spent up to now is     1136.4 secs

     total energy              =  -26031.70660779 Ry
     estimated scf accuracy    <       5.02706060 Ry

     iteration #  2     ecut=    77.00 Ry     beta= 0.20
     Davidson diagonalization with overlap
     ethr =  3.87E-04,  avg # of iterations =  2.0

     negative rho (up, down):  4.077E-05 0.000E+00

     total cpu time spent up to now is     1356.2 secs

     total energy              =  -26030.68724100 Ry
     estimated scf accuracy    <       2.60830303 Ry

     iteration #  3     ecut=    77.00 Ry     beta= 0.20
     Davidson diagonalization with overlap
     ethr =  2.01E-04,  avg # of iterations = 12.2

     negative rho (up, down):  3.059E-05 0.000E+00

     total cpu time spent up to now is     1642.9 secs

     total energy              =  -26031.03282485 Ry
     estimated scf accuracy    <       0.68761001 Ry

     iteration #  4     ecut=    77.00 Ry     beta= 0.20
     Davidson diagonalization with overlap
     c_bands:  1 eigenvalues not converged
     c_bands:  4 eigenvalues not converged
     c_bands:  2 eigenvalues not converged
     ethr =  5.30E-05,  avg # of iterations = 20.0

     negative rho (up, down):  3.442E-05 0.000E+00

     total cpu time spent up to now is     2260.9 secs

     total energy              =  -26031.59934463 Ry
     estimated scf accuracy    <       0.25102905 Ry

     iteration #  5     ecut=    77.00 Ry     beta= 0.20
     Davidson diagonalization with overlap
     c_bands:  3 eigenvalues not converged
     ethr =  1.93E-05,  avg # of iterations = 27.5

     negative rho (up, down):  7.292E-05 0.000E+00

     total cpu time spent up to now is     2825.8 secs

     total energy              =  -26031.71528211 Ry
     estimated scf accuracy    <       0.15263292 Ry

     iteration #  6     ecut=    77.00 Ry     beta= 0.20
     Davidson diagonalization with overlap
     c_bands:  2 eigenvalues not converged
     ethr =  1.18E-05,  avg # of iterations = 13.0

     negative rho (up, down):  2.916E-04 0.000E+00

     total cpu time spent up to now is     3078.6 secs

     total energy              =  -26031.69994098 Ry
     estimated scf accuracy    <       0.09472186 Ry

     iteration #  7     ecut=    77.00 Ry     beta= 0.20
     Davidson diagonalization with overlap
     c_bands:  3 eigenvalues not converged
     c_bands:  4 eigenvalues not converged
     ethr =  7.30E-06,  avg # of iterations = 35.8

     negative rho (up, down):  7.372E-04 0.000E+00

     total cpu time spent up to now is     3671.7 secs

     total energy              =  -26031.74945465 Ry
     estimated scf accuracy    <       0.04717728 Ry

     iteration #  8     ecut=    77.00 Ry     beta= 0.20
     Davidson diagonalization with overlap
     c_bands:  1 eigenvalues not converged
     ethr =  3.63E-06,  avg # of iterations = 14.2

     negative rho (up, down):  5.777E-04 0.000E+00

     total cpu time spent up to now is     4020.3 secs

     total energy              =  -26031.74718091 Ry
     estimated scf accuracy    <       0.03971477 Ry

     iteration #  9     ecut=    77.00 Ry     beta= 0.20
     Davidson diagonalization with overlap
     ethr =  3.06E-06,  avg # of iterations =  9.5

     negative rho (up, down):  5.138E-04 0.000E+00

     total cpu time spent up to now is     4272.1 secs

     total energy              =  -26031.74899570 Ry
     estimated scf accuracy    <       0.00642657 Ry

     iteration # 10     ecut=    77.00 Ry     beta= 0.20
     Davidson diagonalization with overlap
     c_bands:  4 eigenvalues not converged
     c_bands:  1 eigenvalues not converged
     c_bands:  1 eigenvalues not converged
     ethr =  4.95E-07,  avg # of iterations = 48.8

     negative rho (up, down):  5.480E-04 0.000E+00

     total cpu time spent up to now is     5436.5 secs

     total energy              =  -26031.76435283 Ry
     estimated scf accuracy    <       0.00597861 Ry

     iteration # 11     ecut=    77.00 Ry     beta= 0.20
     Davidson diagonalization with overlap
     ethr =  4.61E-07,  avg # of iterations =  4.0

     negative rho (up, down):  7.703E-04 0.000E+00

     total cpu time spent up to now is     5650.2 secs

     total energy              =  -26031.76201031 Ry
     estimated scf accuracy    <       0.00376025 Ry

     iteration # 12     ecut=    77.00 Ry     beta= 0.20
     Davidson diagonalization with overlap
     ethr =  2.90E-07,  avg # of iterations = 10.8

     negative rho (up, down):  9.446E-04 0.000E+00

     total cpu time spent up to now is     6011.9 secs

     total energy              =  -26031.76399092 Ry
     estimated scf accuracy    <       0.00033329 Ry

     iteration # 13     ecut=    77.00 Ry     beta= 0.20
     Davidson diagonalization with overlap
     c_bands:  3 eigenvalues not converged
     c_bands:  1 eigenvalues not converged
     ethr =  2.57E-08,  avg # of iterations = 20.5

     negative rho (up, down):  7.912E-04 0.000E+00

     total cpu time spent up to now is     7216.5 secs

     total energy              =  -26031.76380315 Ry
     estimated scf accuracy    <       0.00364153 Ry

     iteration # 14     ecut=    77.00 Ry     beta= 0.20
     Davidson diagonalization with overlap
     c_bands:  1 eigenvalues not converged
     ethr =  2.57E-08,  avg # of iterations = 14.0

     negative rho (up, down):  8.142E-04 0.000E+00

     total cpu time spent up to now is     7765.2 secs

     total energy              =  -26031.76448133 Ry
     estimated scf accuracy    <       0.00014114 Ry

     iteration # 15     ecut=    77.00 Ry     beta= 0.20
     Davidson diagonalization with overlap
     c_bands:  2 eigenvalues not converged
     ethr =  1.09E-08,  avg # of iterations = 18.5

     negative rho (up, down):  8.557E-04 0.000E+00

     total cpu time spent up to now is     8220.0 secs

     total energy              =  -26031.76455770 Ry
     estimated scf accuracy    <       0.00004523 Ry

     iteration # 16     ecut=    77.00 Ry     beta= 0.20
     Davidson diagonalization with overlap
     c_bands:  3 eigenvalues not converged
     ethr =  3.48E-09,  avg # of iterations = 15.8

     negative rho (up, down):  8.939E-04 0.000E+00

     total cpu time spent up to now is     8726.1 secs

     total energy              =  -26031.76456741 Ry
     estimated scf accuracy    <       0.00006172 Ry

     iteration # 17     ecut=    77.00 Ry     beta= 0.20
     Davidson diagonalization with overlap
     c_bands:  2 eigenvalues not converged
     ethr =  3.48E-09,  avg # of iterations =  9.8

     negative rho (up, down):  8.978E-04 0.000E+00

     total cpu time spent up to now is     9086.5 secs

     total energy              =  -26031.76458586 Ry
     estimated scf accuracy    <       0.00000647 Ry

     iteration # 18     ecut=    77.00 Ry     beta= 0.20
     Davidson diagonalization with overlap
     c_bands:  1 eigenvalues not converged
     ethr =  4.98E-10,  avg # of iterations = 17.5

     negative rho (up, down):  8.994E-04 0.000E+00

     total cpu time spent up to now is     9632.6 secs

     total energy              =  -26031.76458664 Ry
     estimated scf accuracy    <       0.00001060 Ry

     iteration # 19     ecut=    77.00 Ry     beta= 0.20
     Davidson diagonalization with overlap
     ethr =  4.98E-10,  avg # of iterations =  7.5

     negative rho (up, down):  9.063E-04 0.000E+00

     total cpu time spent up to now is     9926.9 secs

     End of self-consistent calculation

          k = 0.0000 0.0000 0.0000 (321495 PWs)   bands (ev):

  -102.1739 -88.6266 -70.4882 -70.4870 -70.4842 -70.4827 -70.4581 -70.4572
   -70.4416 -66.6537 -66.6326 -66.6326 -66.6326 -66.6326 -66.6326 -66.6325
   -66.6114 -66.6114 -66.6114 -66.6114 -66.6114 -66.6114 -66.6114 -66.6113
   -66.6113 -66.5879 -66.5672 -66.5671 -66.5668 -66.5667 -66.5666 -66.5664
   -66.5463 -66.5460 -66.5458 -66.5457 -66.5456 -66.5455 -66.5453 -66.5452
   -66.5450 -66.5140 -66.5072 -66.4974 -66.4953 -66.4816 -66.4789 -66.4756
   -66.4711 -66.4670 -66.4614 -66.4598 -66.4589 -66.4520 -66.4517 -66.4341
   -66.4329 -56.4327 -56.4048 -56.4033 -54.4476 -54.4207 -54.4178 -40.9800
   -40.9800 -40.9800 -40.9133 -40.9130 -40.9130 -40.9052 -40.9052 -40.9052
   -40.9052 -40.9052 -40.9052 -40.8386 -40.8385 -40.8384 -40.8382 -40.8382
   -40.8381 -40.8314 -40.8272 -40.8226 -40.8138 -40.7797 -40.7797 -40.7797
   -40.7797 -40.7797 -40.7796 -40.7724 -40.7724 -40.7724 -40.7724 -40.7723
   -40.7723 -40.7598 -40.7542 -40.7485 -40.7485 -40.7461 -40.7459 -40.7448
   -40.7448 -40.7448 -40.7448 -40.7448 -40.7448 -40.7440 -40.7307 -40.7307
   -40.7307 -40.7307 -40.7307 -40.7307 -40.7306 -40.7306 -40.7306 -40.7131
   -40.7130 -40.7130 -40.7128 -40.7128 -40.7127 -40.7075 -40.7074 -40.7072
   -40.7070 -40.7069 -40.7067 -40.6970 -40.6783 -40.6783 -40.6782 -40.6781
   -40.6779 -40.6779 -40.6724 -40.6670 -40.6670 -40.6670 -40.6661 -40.6659
   -40.6656 -40.6655 -40.6654 -40.6653 -40.6652 -40.6651 -40.6649 -40.6529
   -40.6400 -40.6380 -40.6341 -40.6317 -40.6295 -40.6276 -40.6239 -40.6228
   -40.6202 -40.6202 -40.6202 -40.6202 -40.6202 -40.6202 -40.6197 -40.6113
   -40.6063 -40.6037 -40.6015 -40.6004 -40.6004 -40.6004 -40.5966 -40.5940
   -40.5934 -40.5921 -40.5910 -40.5895 -40.5876 -40.5849 -40.5804 -40.5752
   -40.5742 -40.5734 -40.5729 -40.5729 -40.5540 -40.5537 -40.5537 -40.5535
   -40.5535 -40.5533 -40.5179 -40.5098 -40.5095 -40.5064 -40.5064 -40.4726
   -40.4660 -40.4651 -40.4624 -40.4591 -40.4531 -40.4162 -40.4112 -20.0930
   -20.0122 -19.8808 -19.3435 -19.2306 -19.2252 -19.2197 -19.2191 -19.2181
   -19.2083 -19.1757 -19.1570 -19.1236 -19.1169 -19.1022 -19.0605 -19.0452
   -19.0376 -19.0156 -19.0064 -18.9750 -18.8428 -18.6809 -18.5119 -18.4876
   -18.4818 -18.4733 -18.4433 -18.4244 -18.4209 -18.3610 -18.3602 -18.3518
   -18.3253 -18.3068 -18.2939 -18.2642 -18.2179 -18.1861 -18.1796 -18.1787
   -18.1584 -18.1246 -18.1143 -18.1134 -18.1133 -18.1131 -18.1130 -18.1127
   -18.1042 -18.0731 -18.0729 -18.0729 -18.0645 -18.0457 -18.0356 -18.0323
   -18.0297 -18.0261 -18.0225 -18.0049 -18.0008 -18.0001 -17.9981 -17.9586
   -17.9426 -17.9419 -17.9351 -17.9296 -17.9181 -17.9160 -17.9098 -17.9070
   -17.9019 -17.8875 -17.8873 -17.8858 -17.8816 -17.8587 -17.8562 -17.8440
   -17.8430 -17.8289 -17.8230 -17.8178 -17.8146 -17.8097 -17.7907 -17.7888
   -17.7677 -17.7616 -17.7515 -17.7393 -17.7341 -17.7300 -17.7199 -12.0331
   -11.8752 -11.7410 -11.7353 -11.7274 -11.7095 -11.6971 -11.6469 -11.6322
   -11.6281 -11.5820 -11.4328 -11.2590 -11.2030 -11.1917 -11.1783 -11.1759
   -11.1741 -11.1468 -11.1442 -11.1085 -11.1040 -11.1027 -11.1008 -11.0960
   -11.0919 -11.0782 -11.0155 -10.9902 -10.9770 -10.9717 -10.9685 -10.9599
   -10.9410 -10.9334 -10.9070 -10.9050 -10.9040 -10.8929 -10.8780 -10.8750
   -10.8710 -10.8340 -10.8266 -10.8200 -10.8086 -10.8064 -10.8052 -10.8027
   -10.8022 -10.8013 -10.7924 -10.7912 -10.7783 -10.7730 -10.7710 -10.7678
   -10.7591 -10.7572 -10.7555 -10.7515 -10.7498 -10.7299 -10.7085 -10.7083
   -10.6950 -10.6777 -10.6552 -10.6454 -10.6391 -10.5968 -10.5891 -10.5867
   -10.5785 -10.5644 -10.2480 -10.2229 -10.1244 -10.1211 -10.0263 -10.0177
   -10.0166  -9.9313  -9.8486  -9.8484  -9.8393  -9.7722  -9.7578  -9.7546
    -9.7478  -9.7446  -9.7391  -9.7293  -9.7001  -9.6714  -9.6685  -9.6659
    -9.6577  -9.6515  -9.6254  -9.6195  -9.6082  -9.6058  -9.5984  -9.5888
    -9.5885  -9.5826  -9.5695  -9.5555  -9.5490  -9.5481  -9.5465  -9.5455
    -9.5446  -9.5380  -9.5131  -9.4987  -9.4952  -9.4805  -9.4737  -9.4417
    -9.4341  -9.4174  -9.4144  -9.4081  -9.3999  -9.3539  -9.3423  -9.3204
    -9.3030  -9.3014  -9.3013  -9.2888  -9.2817  -9.2697  -9.2560  -9.2009
    -9.1765  -9.1684  -9.1656  -9.1642  -9.1613  -9.1599  -9.1480  -9.0582
    -9.0533  -9.0209  -9.0105  -8.9991  -8.9942  -8.9915  -8.9913  -8.9907
    -8.9863  -8.9833  -8.9409  -8.9223  -8.9125  -8.9096  -8.9008  -8.8845
    -8.8738  -8.8635  -8.8388  -8.8160  -8.7923  -8.7842  -8.7796  -8.7734
    -8.7711  -8.7672  -8.7612  -8.7503  -8.7238  -8.7162  -8.7125  -8.7123
    -8.7061  -8.6976  -8.6896  -8.6873  -8.6741  -8.6621  -8.4843  -8.4527
    -8.4027  -8.4027  -8.3893  -8.3309  -8.3304  -8.3098  -8.2908  -8.2907
    -8.2906  -8.2906  -8.2905  -8.2904  -8.2496  -8.2403  -8.2228  -8.2226
    -8.2191  -8.2143  -8.2128  -8.2048  -8.1834  -8.1802  -8.1570  -8.1288
    -8.1107  -8.0509  -8.0280  -7.9251  -7.8990  -7.8942  -7.8657  -7.8591
    -7.7009  -7.6404  -7.6148  -7.5771  -7.5554  -7.5553  -7.5553  -7.5551
    -7.5551  -7.5550  -7.5096  -7.5096  -7.5090  -7.5088  -7.5087  -7.5084
    -7.4976  -7.4940  -7.4932  -7.4879  -7.4828  -7.4814  -7.4678  -7.4612
    -7.4595  -7.4557  -7.4556  -7.4395  -7.4380  -7.4344  -7.4334  -7.4330
    -7.4300  -7.4197  -7.4153  -7.4125  -7.3950  -7.3946  -7.3907  -7.3898
    -7.3860  -7.3836  -7.3539  -7.3120  -7.2912  -7.2850  -7.2739  -7.2739
    -7.2171  -7.2066  -7.2048  -7.1924  -7.1773  -7.1536  -7.1485  -7.0892
    -7.0094  -6.9935  -6.9501  -6.9278  -6.9174  -6.8807  -6.8534  -6.8165
    -6.7794  -6.7697  -6.7693  -6.7413  -6.6977  -6.6834  -6.6831  -6.6648
    -6.6450  -6.6371  -6.6257  -6.6245  -6.5994  -6.5942  -6.5893  -6.5779
    -6.5667  -6.5523  -6.5388  -6.4972  -6.4921  -6.4897  -6.4892  -6.4811
    -6.4719  -6.4700  -6.4556  -6.4433  -6.4235  -6.4108  -6.4048  -6.3999
    -6.3951  -6.3910  -6.3888  -6.3460  -6.3218  -6.3218  -6.3218  -6.3218
    -6.3218  -6.3218  -6.2955  -6.2801  -6.2517  -6.2481  -6.2442  -6.2441
    -6.2437  -6.2431  -6.2285  -6.2198  -6.1792  -6.1547  -6.1047  -6.0464
    -6.0138  -5.7784  -5.6634  -5.6216  -5.6030  -5.3890  -5.3272  -5.3189
    -5.0987  -4.3135  -3.8405  -3.8103  -3.8072  -3.8041  -3.7998  -3.7793
    -3.7758  -3.7748  -3.7723  -3.7721  -3.7681  -3.7499  -3.6655  -3.5909
    -3.5812  -3.5665  -3.5524  -3.5487  -3.5459  -3.5394  -3.5355  -3.5293
    -3.5232  -3.4622  -3.4622  -3.4622  -3.4475  -3.4447  -3.4446  -3.4438
    -3.4431  -3.4423  -3.4054  -3.3952  -3.3949  -3.3949  -3.3631  -3.3616
    -3.3569  -3.3489  -3.3422  -3.3393  -3.3384  -3.3354  -3.3324  -3.3281
    -3.3251  -3.3202  -3.3124  -3.2970  -3.2965  -3.2811  -3.2579  -3.2364
    -3.2310  -3.2304  -3.2171  -3.2131  -3.2076  -3.1887  -3.1760  -3.1399
    -2.9973  -2.9956  -2.9955  -2.9907  -2.9905  -2.9864  -2.9307  -2.9242
    -2.9240  -2.9232  -2.9232  -2.9231  -2.9230  -2.9226  -2.9224  -2.9034
    -2.9005  -2.8994  -2.8901  -2.8848  -2.8676  -2.8666  -2.8635  -2.8546
    -2.8544  -2.8517  -2.8494  -2.8490  -2.8395  -2.8394  -2.8360  -2.8103
    -2.7996  -2.7878  -2.7798  -2.7693  -2.7574  -2.7444  -2.7437  -2.7353
    -2.7348  -2.7111  -2.7086  -2.7083  -2.7070  -2.7061  -2.7035  -2.6786
    -2.6621  -2.6599  -2.6362  -2.6216  -2.6171  -2.5972  -2.5883  -2.5763
    -2.5686  -2.5118  -2.4995  -2.4916  -2.4833  -2.4697  -2.4581  -2.4389
    -2.4341  -2.4179  -2.4135

          k = 0.0000-0.5773 0.0000 (321564 PWs)   bands (ev):

  -102.1739 -88.6266 -70.4882 -70.4870 -70.4842 -70.4827 -70.4581 -70.4572
   -70.4416 -66.6475 -66.6475 -66.6370 -66.6369 -66.6220 -66.6220 -66.6220
   -66.6220 -66.6176 -66.6176 -66.6114 -66.6114 -66.6114 -66.6114 -66.6070
   -66.6070 -66.5819 -66.5815 -66.5712 -66.5711 -66.5564 -66.5563 -66.5562
   -66.5560 -66.5520 -66.5516 -66.5459 -66.5458 -66.5455 -66.5451 -66.5412
   -66.5412 -66.5121 -66.5069 -66.5045 -66.4875 -66.4847 -66.4803 -66.4750
   -66.4698 -66.4657 -66.4633 -66.4607 -66.4553 -66.4547 -66.4516 -66.4340
   -66.4329 -56.4327 -56.4048 -56.4033 -54.4476 -54.4207 -54.4178 -40.9486
   -40.9486 -40.9486 -40.9486 -40.9220 -40.9220 -40.9101 -40.9101 -40.8820
   -40.8818 -40.8817 -40.8814 -40.8596 -40.8596 -40.8596 -40.8596 -40.8552
   -40.8549 -40.8432 -40.8431 -40.8017 -40.8017 -40.8002 -40.7956 -40.7946
   -40.7935 -40.7929 -40.7928 -40.7928 -40.7927 -40.7917 -40.7917 -40.7810
   -40.7810 -40.7750 -40.7736 -40.7516 -40.7516 -40.7515 -40.7515 -40.7495
   -40.7442 -40.7429 -40.7429 -40.7366 -40.7362 -40.7307 -40.7307 -40.7307
   -40.7306 -40.7306 -40.7306 -40.7250 -40.7250 -40.7220 -40.7220 -40.7157
   -40.7157 -40.7046 -40.7035 -40.7027 -40.7009 -40.6999 -40.6999 -40.6999
   -40.6999 -40.6939 -40.6865 -40.6865 -40.6862 -40.6862 -40.6778 -40.6775
   -40.6703 -40.6658 -40.6656 -40.6654 -40.6654 -40.6654 -40.6654 -40.6654
   -40.6650 -40.6640 -40.6640 -40.6587 -40.6568 -40.6568 -40.6534 -40.6533
   -40.6516 -40.6388 -40.6342 -40.6342 -40.6341 -40.6336 -40.6335 -40.6331
   -40.6329 -40.6238 -40.6191 -40.6173 -40.6173 -40.6167 -40.6139 -40.6048
   -40.6034 -40.5989 -40.5988 -40.5987 -40.5987 -40.5951 -40.5941 -40.5869
   -40.5868 -40.5868 -40.5866 -40.5861 -40.5857 -40.5792 -40.5752 -40.5742
   -40.5723 -40.5678 -40.5673 -40.5523 -40.5507 -40.5507 -40.5480 -40.5455
   -40.5409 -40.5205 -40.5200 -40.5130 -40.5104 -40.5095 -40.5059 -40.4946
   -40.4929 -40.4822 -40.4769 -40.4571 -40.4516 -40.4301 -40.4276 -19.8739
   -19.8503 -19.8111 -19.7489 -19.6626 -19.6299 -19.4199 -19.4163 -19.3501
   -19.3242 -19.2286 -19.2102 -18.8297 -18.7589 -18.7246 -18.7168 -18.7075
   -18.7058 -18.6931 -18.6893 -18.6721 -18.6259 -18.5936 -18.5841 -18.5709
   -18.5680 -18.5478 -18.5355 -18.5124 -18.5097 -18.4588 -18.4583 -18.4260
   -18.4116 -18.3971 -18.3867 -18.3680 -18.3611 -18.3327 -18.3235 -18.2616
   -18.2384 -18.2128 -18.2126 -18.1908 -18.1879 -18.1461 -18.1326 -18.1191
   -18.1078 -18.0936 -18.0935 -18.0934 -18.0932 -18.0713 -18.0688 -18.0440
   -18.0368 -18.0214 -18.0188 -18.0138 -18.0131 -18.0046 -18.0002 -17.9783
   -17.9678 -17.9552 -17.9510 -17.9389 -17.9357 -17.9130 -17.9123 -17.9032
   -17.8984 -17.8917 -17.8894 -17.8486 -17.8440 -17.8345 -17.8311 -17.8300
   -17.8300 -17.7829 -17.7823 -17.7705 -17.7702 -17.7615 -17.7564 -17.7535
   -17.7532 -17.7287 -17.7156 -17.7095 -17.7041 -17.6461 -17.6446 -11.9158
   -11.6537 -11.6213 -11.5153 -11.5064 -11.4663 -11.4421 -11.4379 -11.4369
   -11.4320 -11.4184 -11.4076 -11.3734 -11.3615 -11.3490 -11.3379 -11.3290
   -11.3129 -11.3110 -11.2946 -11.2678 -11.2534 -11.2485 -11.2437 -11.2228
   -11.2228 -11.1848 -11.1776 -11.1767 -11.1640 -11.1246 -11.1213 -11.1193
   -11.1167 -11.0506 -10.9854 -10.9658 -10.9586 -10.9447 -10.9411 -10.9018
   -10.8883 -10.8790 -10.8770 -10.8574 -10.8471 -10.8250 -10.8160 -10.8112
   -10.8055 -10.7973 -10.7968 -10.7951 -10.7930 -10.7894 -10.7820 -10.7586
   -10.7491 -10.7381 -10.7352 -10.7194 -10.7175 -10.7077 -10.6852 -10.5607
   -10.5580 -10.4717 -10.4610 -10.4277 -10.3775 -10.3328 -10.3141 -10.2812
   -10.2518 -10.1723 -10.1360 -10.0936 -10.0917 -10.0816 -10.0751 -10.0201
   -10.0151  -9.9960  -9.9844  -9.9354  -9.9258  -9.9090  -9.9033  -9.8974
    -9.8947  -9.8902  -9.8779  -9.8612  -9.8592  -9.8470  -9.8424  -9.7830
    -9.7672  -9.7308  -9.7255  -9.7187  -9.7150  -9.7011  -9.6889  -9.6801
    -9.6792  -9.6658  -9.6629  -9.6421  -9.6317  -9.6132  -9.6027  -9.5875
    -9.5805  -9.5789  -9.5699  -9.5112  -9.5068  -9.4961  -9.4938  -9.4801
    -9.4691  -9.4419  -9.4352  -9.4347  -9.4199  -9.3155  -9.3120  -9.2859
    -9.2711  -9.1954  -9.1815  -9.1557  -9.1511  -9.1288  -9.1224  -9.1099
    -9.1047  -9.0955  -9.0945  -9.0707  -9.0654  -9.0164  -9.0063  -8.9982
    -8.9923  -8.9808  -8.9766  -8.9587  -8.9568  -8.9436  -8.9325  -8.9290
    -8.9251  -8.9129  -8.9057  -8.8987  -8.8975  -8.8881  -8.8866  -8.8565
    -8.8529  -8.8324  -8.8288  -8.8218  -8.8193  -8.8117  -8.8077  -8.8054
    -8.8041  -8.7905  -8.7899  -8.7816  -8.7687  -8.7670  -8.7612  -8.7306
    -8.7287  -8.7070  -8.7050  -8.6924  -8.6725  -8.5166  -8.5098  -8.4773
    -8.4771  -8.4340  -8.4292  -8.3959  -8.3948  -8.3102  -8.2869  -8.1709
    -8.1591  -8.1591  -8.1477  -8.1229  -8.1159  -8.0876  -8.0866  -8.0218
    -8.0093  -7.9792  -7.9418  -7.8991  -7.8988  -7.8499  -7.8355  -7.8301
    -7.8286  -7.8160  -7.8147  -7.8125  -7.8124  -7.8119  -7.8053  -7.7921
    -7.7878  -7.7670  -7.7668  -7.7656  -7.7647  -7.7461  -7.7439  -7.7376
    -7.7352  -7.7182  -7.7181  -7.7104  -7.7087  -7.6942  -7.6935  -7.6866
    -7.6811  -7.6750  -7.6642  -7.6567  -7.6527  -7.6366  -7.6335  -7.6273
    -7.6272  -7.6106  -7.6069  -7.5936  -7.5906  -7.5679  -7.5645  -7.5591
    -7.5587  -7.5315  -7.5263  -7.4934  -7.4910  -7.4836  -7.4797  -7.4233
    -7.4207  -7.3144  -7.3027  -7.2343  -7.2265  -7.1984  -7.1973  -7.1730
    -7.1680  -7.0983  -7.0960  -7.0810  -7.0788  -7.0244  -7.0182  -6.9890
    -6.9841  -6.9741  -6.9739  -6.9476  -6.9364  -6.9217  -6.9158  -6.8771
    -6.8725  -6.8599  -6.8499  -6.8041  -6.7987  -6.7476  -6.7374  -6.7183
    -6.7116  -6.6605  -6.6555  -6.6269  -6.6242  -6.6241  -6.6241  -6.6235
    -6.6154  -6.5918  -6.5727  -6.5629  -6.5574  -6.5549  -6.5538  -6.5475
    -6.5199  -6.5143  -6.5060  -6.4265  -6.4219  -6.3737  -6.3703  -6.2948
    -6.2926  -6.2925  -6.2922  -6.2834  -6.2437  -6.2291  -6.2220  -6.2138
    -6.2128  -6.2097  -6.2070  -6.1922  -6.1739  -6.1675  -6.1411  -6.1348
    -6.0864  -5.9440  -5.9440  -5.8751  -5.8721  -5.8603  -5.8505  -5.7897
    -5.7684  -5.6232  -5.6191  -5.5982  -5.5782  -5.4705  -5.3765  -5.3192
    -5.2775  -4.3018  -3.9884  -3.9815  -3.9788  -3.9571  -3.8596  -3.8595
    -3.8507  -3.8247  -3.7950  -3.7947  -3.7723  -3.7388  -3.7316  -3.7237
    -3.7152  -3.6886  -3.6665  -3.5921  -3.5648  -3.5625  -3.5608  -3.5573
    -3.5451  -3.5449  -3.5408  -3.5124  -3.5014  -3.4814  -3.4761  -3.4662
    -3.4646  -3.4465  -3.4416  -3.4336  -3.4312  -3.4279  -3.4266  -3.3887
    -3.3755  -3.3602  -3.3460  -3.3243  -3.3196  -3.3131  -3.3120  -3.3027
    -3.2889  -3.2805  -3.2765  -3.2714  -3.2646  -3.2359  -3.2356  -3.2350
    -3.2346  -3.2293  -3.2252  -3.2061  -3.1981  -3.1947  -3.1868  -3.1690
    -3.1670  -3.1618  -3.1536  -3.1485  -3.1427  -3.1225  -3.1011  -3.0804
    -3.0708  -3.0554  -3.0468  -3.0308  -3.0301  -2.9972  -2.9951  -2.9910
    -2.9894  -2.9727  -2.9723  -2.9722  -2.9720  -2.9334  -2.9296  -2.9240
    -2.9228  -2.9074  -2.8985  -2.8832  -2.8823  -2.8804  -2.8789  -2.8625
    -2.8562  -2.8456  -2.8441  -2.8398  -2.8225  -2.8104  -2.8011  -2.7846
    -2.7803  -2.7723  -2.7692  -2.7626  -2.7612  -2.6965  -2.6910  -2.6678
    -2.6578  -2.6227  -2.6112  -2.6099  -2.6062  -2.5985  -2.5911  -2.5288
    -2.5245  -2.4937  -2.4680  -2.4634  -2.4497  -2.4450  -2.4301  -2.3856
    -2.3250  -2.3086  -2.2538

          k =-0.5000-0.2887 0.0000 (321564 PWs)   bands (ev):

  -102.1739 -88.6266 -70.4882 -70.4870 -70.4842 -70.4827 -70.4581 -70.4572
   -70.4416 -66.6475 -66.6475 -66.6370 -66.6369 -66.6220 -66.6220 -66.6220
   -66.6220 -66.6176 -66.6176 -66.6114 -66.6114 -66.6114 -66.6113 -66.6070
   -66.6070 -66.5819 -66.5816 -66.5713 -66.5711 -66.5564 -66.5564 -66.5563
   -66.5559 -66.5520 -66.5517 -66.5460 -66.5456 -66.5455 -66.5453 -66.5413
   -66.5411 -66.5115 -66.5100 -66.4976 -66.4954 -66.4822 -66.4811 -66.4704
   -66.4695 -66.4676 -66.4629 -66.4615 -66.4590 -66.4517 -66.4517 -66.4339
   -66.4330 -56.4327 -56.4048 -56.4033 -54.4476 -54.4207 -54.4178 -40.9486
   -40.9486 -40.9486 -40.9486 -40.9220 -40.9219 -40.9101 -40.9101 -40.8820
   -40.8817 -40.8816 -40.8815 -40.8596 -40.8596 -40.8596 -40.8596 -40.8552
   -40.8550 -40.8432 -40.8430 -40.8154 -40.8017 -40.8017 -40.7982 -40.7929
   -40.7928 -40.7927 -40.7927 -40.7917 -40.7917 -40.7859 -40.7810 -40.7810
   -40.7786 -40.7739 -40.7586 -40.7584 -40.7527 -40.7516 -40.7515 -40.7515
   -40.7515 -40.7429 -40.7429 -40.7365 -40.7363 -40.7307 -40.7307 -40.7307
   -40.7307 -40.7306 -40.7306 -40.7250 -40.7249 -40.7220 -40.7220 -40.7158
   -40.7157 -40.7087 -40.7076 -40.7029 -40.7016 -40.7000 -40.6999 -40.6999
   -40.6999 -40.6948 -40.6865 -40.6865 -40.6863 -40.6861 -40.6778 -40.6775
   -40.6679 -40.6659 -40.6654 -40.6654 -40.6654 -40.6654 -40.6654 -40.6653
   -40.6653 -40.6650 -40.6640 -40.6639 -40.6569 -40.6568 -40.6534 -40.6533
   -40.6422 -40.6395 -40.6350 -40.6342 -40.6341 -40.6334 -40.6334 -40.6332
   -40.6331 -40.6300 -40.6206 -40.6173 -40.6173 -40.6098 -40.6072 -40.6048
   -40.6045 -40.6034 -40.5989 -40.5988 -40.5987 -40.5987 -40.5916 -40.5875
   -40.5869 -40.5868 -40.5868 -40.5866 -40.5818 -40.5786 -40.5780 -40.5722
   -40.5721 -40.5677 -40.5674 -40.5590 -40.5508 -40.5506 -40.5461 -40.5397
   -40.5329 -40.5204 -40.5201 -40.5150 -40.5128 -40.5094 -40.5079 -40.5009
   -40.4849 -40.4845 -40.4712 -40.4624 -40.4568 -40.4380 -40.4170 -19.8836
   -19.8489 -19.8179 -19.7329 -19.6633 -19.6078 -19.4276 -19.4165 -19.3700
   -19.3260 -19.2346 -19.2134 -18.8166 -18.7378 -18.7255 -18.7240 -18.7121
   -18.7049 -18.6909 -18.6896 -18.6841 -18.6076 -18.5996 -18.5865 -18.5707
   -18.5692 -18.5614 -18.5069 -18.5058 -18.4834 -18.4770 -18.4580 -18.4531
   -18.4068 -18.3971 -18.3690 -18.3653 -18.3587 -18.3318 -18.3231 -18.2710
   -18.2417 -18.2355 -18.2271 -18.1850 -18.1828 -18.1791 -18.1254 -18.1155
   -18.0938 -18.0935 -18.0935 -18.0934 -18.0922 -18.0866 -18.0727 -18.0547
   -18.0482 -18.0184 -18.0165 -18.0145 -18.0130 -17.9933 -17.9886 -17.9791
   -17.9706 -17.9651 -17.9384 -17.9337 -17.9320 -17.9164 -17.9153 -17.9009
   -17.8890 -17.8886 -17.8763 -17.8568 -17.8358 -17.8300 -17.8300 -17.8244
   -17.8231 -17.7875 -17.7856 -17.7701 -17.7699 -17.7622 -17.7535 -17.7535
   -17.7441 -17.7385 -17.7246 -17.7110 -17.7086 -17.6548 -17.6395 -11.9450
   -11.6462 -11.6312 -11.5191 -11.4888 -11.4409 -11.4408 -11.4377 -11.4344
   -11.4173 -11.4150 -11.3741 -11.3599 -11.3561 -11.3456 -11.3379 -11.3232
   -11.3082 -11.2990 -11.2740 -11.2673 -11.2642 -11.2575 -11.2377 -11.2313
   -11.2228 -11.2227 -11.2015 -11.1773 -11.1770 -11.1520 -11.1180 -11.1178
   -11.1156 -11.0927 -10.9716 -10.9573 -10.9451 -10.9343 -10.9212 -10.9151
   -10.9121 -10.8811 -10.8747 -10.8620 -10.8391 -10.8262 -10.8089 -10.8082
   -10.7991 -10.7977 -10.7961 -10.7939 -10.7866 -10.7803 -10.7754 -10.7704
   -10.7615 -10.7521 -10.7314 -10.7224 -10.7223 -10.7148 -10.6474 -10.5756
   -10.5466 -10.5109 -10.4570 -10.4387 -10.3406 -10.3359 -10.3258 -10.2912
   -10.2125 -10.2008 -10.1408 -10.1071 -10.0902 -10.0745 -10.0588 -10.0542
   -10.0389  -9.9977  -9.9627  -9.9497  -9.9277  -9.9043  -9.9014  -9.8974
    -9.8900  -9.8886  -9.8673  -9.8583  -9.8542  -9.8428  -9.8272  -9.7842
    -9.7606  -9.7563  -9.7235  -9.7227  -9.7198  -9.7003  -9.6972  -9.6822
    -9.6747  -9.6737  -9.6604  -9.6496  -9.6318  -9.6126  -9.6099  -9.6018
    -9.6011  -9.5752  -9.5710  -9.5462  -9.5152  -9.5063  -9.4946  -9.4923
    -9.4410  -9.4350  -9.4348  -9.4010  -9.3923  -9.3079  -9.2825  -9.2340
    -9.2259  -9.1885  -9.1667  -9.1661  -9.1456  -9.1344  -9.1162  -9.1018
    -9.0983  -9.0959  -9.0916  -9.0628  -9.0594  -9.0524  -9.0201  -9.0104
    -8.9916  -8.9839  -8.9794  -8.9598  -8.9479  -8.9452  -8.9298  -8.9274
    -8.9231  -8.9207  -8.9160  -8.9149  -8.8972  -8.8864  -8.8849  -8.8765
    -8.8534  -8.8429  -8.8396  -8.8297  -8.8287  -8.8212  -8.8054  -8.8049
    -8.8022  -8.8012  -8.7891  -8.7767  -8.7594  -8.7556  -8.7422  -8.7363
    -8.7311  -8.7251  -8.7052  -8.7050  -8.6695  -8.5513  -8.5097  -8.4791
    -8.4776  -8.4259  -8.4081  -8.3943  -8.3852  -8.3777  -8.2875  -8.1808
    -8.1591  -8.1591  -8.1520  -8.0877  -8.0873  -8.0498  -8.0401  -8.0236
    -8.0108  -7.9937  -7.9555  -7.8982  -7.8953  -7.8729  -7.8388  -7.8288
    -7.8286  -7.8191  -7.8152  -7.8124  -7.8124  -7.8057  -7.7901  -7.7865
    -7.7810  -7.7699  -7.7667  -7.7665  -7.7603  -7.7539  -7.7435  -7.7402
    -7.7255  -7.7229  -7.7139  -7.7102  -7.7039  -7.6998  -7.6913  -7.6899
    -7.6826  -7.6769  -7.6599  -7.6553  -7.6542  -7.6486  -7.6275  -7.6272
    -7.6261  -7.6204  -7.6052  -7.5890  -7.5711  -7.5641  -7.5578  -7.5460
    -7.5456  -7.5336  -7.5034  -7.5031  -7.4987  -7.4820  -7.4363  -7.4251
    -7.4115  -7.3706  -7.3394  -7.2868  -7.2102  -7.1973  -7.1967  -7.1811
    -7.1511  -7.1117  -7.1034  -7.0727  -7.0722  -7.0279  -7.0276  -6.9937
    -6.9831  -6.9798  -6.9728  -6.9462  -6.9127  -6.9071  -6.8991  -6.8881
    -6.8655  -6.8328  -6.8219  -6.8215  -6.8030  -6.7877  -6.7823  -6.7078
    -6.7040  -6.6856  -6.6562  -6.6479  -6.6272  -6.6241  -6.6241  -6.6238
    -6.6230  -6.6135  -6.5572  -6.5568  -6.5548  -6.5539  -6.5393  -6.5333
    -6.5293  -6.5147  -6.4847  -6.4383  -6.4180  -6.3847  -6.3366  -6.2993
    -6.2931  -6.2927  -6.2921  -6.2917  -6.2714  -6.2387  -6.2276  -6.2214
    -6.2132  -6.2080  -6.2076  -6.2006  -6.1661  -6.1603  -6.1353  -6.1149
    -6.0968  -5.9440  -5.9440  -5.8778  -5.8692  -5.8682  -5.8222  -5.8024
    -5.7199  -5.6217  -5.6200  -5.6016  -5.5497  -5.5135  -5.3727  -5.3056
    -5.2997  -4.3144  -3.9889  -3.9875  -3.9734  -3.9541  -3.8593  -3.8593
    -3.8400  -3.8234  -3.7947  -3.7945  -3.7543  -3.7456  -3.7284  -3.7169
    -3.7106  -3.6873  -3.6375  -3.6370  -3.5646  -3.5615  -3.5594  -3.5590
    -3.5451  -3.5445  -3.5355  -3.5139  -3.5113  -3.4929  -3.4679  -3.4643
    -3.4506  -3.4467  -3.4447  -3.4420  -3.4320  -3.4272  -3.4253  -3.4073
    -3.3786  -3.3620  -3.3325  -3.3200  -3.3139  -3.3123  -3.3101  -3.3051
    -3.2843  -3.2821  -3.2740  -3.2727  -3.2524  -3.2450  -3.2363  -3.2356
    -3.2356  -3.2325  -3.2222  -3.2032  -3.1997  -3.1944  -3.1849  -3.1762
    -3.1666  -3.1645  -3.1531  -3.1484  -3.1364  -3.1282  -3.0965  -3.0837
    -3.0738  -3.0495  -3.0436  -3.0329  -3.0308  -2.9975  -2.9920  -2.9917
    -2.9878  -2.9733  -2.9724  -2.9723  -2.9718  -2.9401  -2.9255  -2.9235
    -2.9225  -2.9044  -2.9004  -2.8871  -2.8832  -2.8764  -2.8737  -2.8719
    -2.8562  -2.8435  -2.8378  -2.8357  -2.8275  -2.8185  -2.8108  -2.7896
    -2.7821  -2.7646  -2.7611  -2.7600  -2.7559  -2.6939  -2.6911  -2.6689
    -2.6599  -2.6188  -2.6103  -2.6083  -2.5991  -2.5943  -2.5872  -2.5284
    -2.5246  -2.5169  -2.4661  -2.4659  -2.4502  -2.4458  -2.4389  -2.4343
    -2.3300  -2.2908  -2.2630

          k =-0.5000-0.8660 0.0000 (321564 PWs)   bands (ev):

  -102.1739 -88.6266 -70.4882 -70.4870 -70.4842 -70.4827 -70.4581 -70.4572
   -70.4416 -66.6475 -66.6475 -66.6370 -66.6369 -66.6220 -66.6220 -66.6220
   -66.6220 -66.6176 -66.6176 -66.6114 -66.6114 -66.6114 -66.6114 -66.6070
   -66.6070 -66.5819 -66.5815 -66.5712 -66.5711 -66.5564 -66.5563 -66.5562
   -66.5560 -66.5520 -66.5516 -66.5459 -66.5458 -66.5455 -66.5452 -66.5412
   -66.5412 -66.5121 -66.5069 -66.5045 -66.4875 -66.4847 -66.4803 -66.4750
   -66.4698 -66.4657 -66.4633 -66.4607 -66.4553 -66.4547 -66.4516 -66.4340
   -66.4329 -56.4327 -56.4048 -56.4033 -54.4476 -54.4207 -54.4178 -40.9486
   -40.9486 -40.9486 -40.9486 -40.9220 -40.9220 -40.9101 -40.9101 -40.8820
   -40.8818 -40.8816 -40.8814 -40.8596 -40.8596 -40.8596 -40.8596 -40.8552
   -40.8549 -40.8432 -40.8431 -40.8017 -40.8017 -40.8002 -40.7956 -40.7946
   -40.7935 -40.7929 -40.7928 -40.7928 -40.7927 -40.7917 -40.7917 -40.7810
   -40.7810 -40.7750 -40.7736 -40.7516 -40.7516 -40.7515 -40.7515 -40.7495
   -40.7442 -40.7429 -40.7429 -40.7366 -40.7362 -40.7307 -40.7307 -40.7307
   -40.7307 -40.7306 -40.7306 -40.7250 -40.7250 -40.7220 -40.7220 -40.7157
   -40.7157 -40.7046 -40.7035 -40.7027 -40.7009 -40.6999 -40.6999 -40.6999
   -40.6999 -40.6939 -40.6865 -40.6865 -40.6862 -40.6862 -40.6778 -40.6775
   -40.6704 -40.6658 -40.6656 -40.6654 -40.6654 -40.6654 -40.6654 -40.6654
   -40.6651 -40.6640 -40.6640 -40.6587 -40.6568 -40.6568 -40.6534 -40.6533
   -40.6516 -40.6388 -40.6342 -40.6342 -40.6341 -40.6336 -40.6335 -40.6331
   -40.6330 -40.6238 -40.6191 -40.6173 -40.6173 -40.6167 -40.6139 -40.6048
   -40.6034 -40.5989 -40.5988 -40.5987 -40.5987 -40.5951 -40.5942 -40.5869
   -40.5868 -40.5868 -40.5866 -40.5861 -40.5857 -40.5792 -40.5752 -40.5742
   -40.5723 -40.5678 -40.5673 -40.5523 -40.5507 -40.5507 -40.5480 -40.5455
   -40.5409 -40.5205 -40.5200 -40.5130 -40.5104 -40.5095 -40.5059 -40.4947
   -40.4929 -40.4822 -40.4769 -40.4571 -40.4516 -40.4301 -40.4276 -19.8739
   -19.8503 -19.8111 -19.7489 -19.6626 -19.6299 -19.4199 -19.4163 -19.3501
   -19.3242 -19.2286 -19.2102 -18.8295 -18.7591 -18.7245 -18.7168 -18.7075
   -18.7058 -18.6931 -18.6893 -18.6723 -18.6259 -18.5936 -18.5841 -18.5709
   -18.5680 -18.5478 -18.5356 -18.5124 -18.5097 -18.4588 -18.4583 -18.4259
   -18.4116 -18.3972 -18.3867 -18.3680 -18.3611 -18.3327 -18.3235 -18.2615
   -18.2384 -18.2128 -18.2126 -18.1908 -18.1879 -18.1461 -18.1326 -18.1191
   -18.1078 -18.0936 -18.0935 -18.0934 -18.0932 -18.0713 -18.0688 -18.0440
   -18.0368 -18.0214 -18.0188 -18.0138 -18.0131 -18.0046 -18.0002 -17.9783
   -17.9678 -17.9552 -17.9510 -17.9389 -17.9357 -17.9130 -17.9123 -17.9032
   -17.8984 -17.8917 -17.8894 -17.8486 -17.8440 -17.8345 -17.8311 -17.8300
   -17.8300 -17.7829 -17.7823 -17.7705 -17.7702 -17.7616 -17.7564 -17.7535
   -17.7532 -17.7287 -17.7156 -17.7095 -17.7041 -17.6461 -17.6446 -11.9158
   -11.6538 -11.6213 -11.5153 -11.5064 -11.4663 -11.4421 -11.4379 -11.4369
   -11.4320 -11.4184 -11.4076 -11.3734 -11.3614 -11.3490 -11.3379 -11.3290
   -11.3129 -11.3110 -11.2946 -11.2678 -11.2534 -11.2485 -11.2437 -11.2228
   -11.2228 -11.1848 -11.1776 -11.1767 -11.1640 -11.1245 -11.1213 -11.1193
   -11.1167 -11.0505 -10.9854 -10.9659 -10.9586 -10.9447 -10.9411 -10.9019
   -10.8883 -10.8790 -10.8771 -10.8574 -10.8471 -10.8250 -10.8160 -10.8112
   -10.8055 -10.7973 -10.7968 -10.7951 -10.7930 -10.7894 -10.7820 -10.7585
   -10.7491 -10.7381 -10.7352 -10.7194 -10.7175 -10.7076 -10.6852 -10.5608
   -10.5580 -10.4717 -10.4610 -10.4279 -10.3775 -10.3329 -10.3137 -10.2810
   -10.2518 -10.1726 -10.1359 -10.0936 -10.0917 -10.0816 -10.0751 -10.0201
   -10.0151  -9.9960  -9.9844  -9.9354  -9.9258  -9.9090  -9.9033  -9.8974
    -9.8947  -9.8902  -9.8779  -9.8612  -9.8592  -9.8470  -9.8424  -9.7830
    -9.7672  -9.7308  -9.7255  -9.7187  -9.7150  -9.7011  -9.6889  -9.6801
    -9.6792  -9.6658  -9.6629  -9.6421  -9.6317  -9.6131  -9.6027  -9.5875
    -9.5805  -9.5789  -9.5699  -9.5112  -9.5068  -9.4961  -9.4938  -9.4801
    -9.4691  -9.4418  -9.4352  -9.4347  -9.4199  -9.3155  -9.3120  -9.2859
    -9.2711  -9.1954  -9.1814  -9.1557  -9.1511  -9.1288  -9.1224  -9.1099
    -9.1047  -9.0955  -9.0945  -9.0707  -9.0654  -9.0164  -9.0063  -8.9982
    -8.9923  -8.9808  -8.9765  -8.9587  -8.9567  -8.9437  -8.9325  -8.9290
    -8.9251  -8.9129  -8.9057  -8.8987  -8.8975  -8.8881  -8.8866  -8.8565
    -8.8529  -8.8324  -8.8288  -8.8218  -8.8193  -8.8117  -8.8077  -8.8054
    -8.8040  -8.7905  -8.7899  -8.7816  -8.7687  -8.7669  -8.7612  -8.7306
    -8.7287  -8.7070  -8.7051  -8.6924  -8.6725  -8.5167  -8.5099  -8.4773
    -8.4771  -8.4340  -8.4292  -8.3959  -8.3948  -8.3102  -8.2868  -8.1710
    -8.1591  -8.1591  -8.1477  -8.1229  -8.1158  -8.0876  -8.0866  -8.0217
    -8.0092  -7.9793  -7.9418  -7.8991  -7.8988  -7.8499  -7.8355  -7.8301
    -7.8286  -7.8160  -7.8147  -7.8125  -7.8124  -7.8119  -7.8053  -7.7921
    -7.7877  -7.7670  -7.7668  -7.7656  -7.7647  -7.7461  -7.7439  -7.7376
    -7.7352  -7.7182  -7.7181  -7.7104  -7.7087  -7.6942  -7.6935  -7.6866
    -7.6811  -7.6750  -7.6642  -7.6566  -7.6527  -7.6367  -7.6335  -7.6273
    -7.6272  -7.6106  -7.6069  -7.5936  -7.5906  -7.5679  -7.5645  -7.5591
    -7.5587  -7.5315  -7.5263  -7.4934  -7.4909  -7.4836  -7.4797  -7.4232
    -7.4207  -7.3144  -7.3027  -7.2343  -7.2265  -7.1984  -7.1972  -7.1730
    -7.1680  -7.0983  -7.0960  -7.0810  -7.0787  -7.0244  -7.0182  -6.9890
    -6.9841  -6.9741  -6.9739  -6.9476  -6.9364  -6.9217  -6.9159  -6.8771
    -6.8725  -6.8599  -6.8499  -6.8041  -6.7987  -6.7476  -6.7375  -6.7183
    -6.7116  -6.6605  -6.6555  -6.6269  -6.6242  -6.6241  -6.6241  -6.6235
    -6.6154  -6.5918  -6.5727  -6.5628  -6.5574  -6.5549  -6.5538  -6.5475
    -6.5199  -6.5143  -6.5060  -6.4265  -6.4219  -6.3737  -6.3703  -6.2948
    -6.2926  -6.2925  -6.2922  -6.2834  -6.2437  -6.2291  -6.2220  -6.2138
    -6.2128  -6.2097  -6.2070  -6.1922  -6.1739  -6.1675  -6.1411  -6.1348
    -6.0864  -5.9440  -5.9440  -5.8751  -5.8721  -5.8603  -5.8505  -5.7897
    -5.7684  -5.6232  -5.6191  -5.5982  -5.5782  -5.4704  -5.3765  -5.3192
    -5.2774  -4.3019  -3.9883  -3.9816  -3.9787  -3.9571  -3.8594  -3.8594
    -3.8507  -3.8247  -3.7948  -3.7945  -3.7723  -3.7388  -3.7315  -3.7238
    -3.7151  -3.6886  -3.6665  -3.5921  -3.5650  -3.5626  -3.5608  -3.5572
    -3.5451  -3.5449  -3.5409  -3.5122  -3.5010  -3.4813  -3.4760  -3.4661
    -3.4645  -3.4464  -3.4419  -3.4335  -3.4314  -3.4278  -3.4266  -3.3884
    -3.3756  -3.3602  -3.3460  -3.3243  -3.3198  -3.3133  -3.3120  -3.3025
    -3.2892  -3.2809  -3.2763  -3.2711  -3.2646  -3.2360  -3.2357  -3.2350
    -3.2347  -3.2292  -3.2253  -3.2059  -3.1983  -3.1948  -3.1867  -3.1690
    -3.1669  -3.1617  -3.1532  -3.1482  -3.1426  -3.1221  -3.1007  -3.0800
    -3.0704  -3.0550  -3.0468  -3.0318  -3.0312  -2.9969  -2.9949  -2.9908
    -2.9893  -2.9727  -2.9723  -2.9722  -2.9720  -2.9334  -2.9291  -2.9234
    -2.9225  -2.9074  -2.8985  -2.8833  -2.8824  -2.8810  -2.8791  -2.8624
    -2.8568  -2.8457  -2.8442  -2.8391  -2.8236  -2.8100  -2.8007  -2.7845
    -2.7803  -2.7723  -2.7693  -2.7622  -2.7610  -2.6956  -2.6900  -2.6668
    -2.6561  -2.6225  -2.6109  -2.6098  -2.6059  -2.5981  -2.5906  -2.5289
    -2.5245  -2.4939  -2.4683  -2.4634  -2.4489  -2.4450  -2.4296  -2.3850
    -2.3183  -2.3079  -2.2416

     the Fermi energy is    -4.7191 ev

!    total energy              =  -26031.76458522 Ry
     total all-electron energy =   -512284.334213 Ry
     estimated scf accuracy    <       0.00000066 Ry
     smearing contrib. (-TS)   =      -0.00000122 Ry
     internal energy E=F+TS    =  -26031.76458400 Ry

     The total energy is F=E-TS. E is the sum of the following terms:
     one-electron contribution =  492158.85197025 Ry
     hartree contribution      = -246219.16508386 Ry
     xc contribution           =   -1534.65839212 Ry
     ewald contribution        = -254244.00654775 Ry
     DFT-D3 Dispersion         =      -4.01980451 Ry
     one-center paw contrib.   =  -16188.76672602 Ry

     convergence has been achieved in  19 iterations

     negative rho (up, down):  9.063E-04 0.000E+00

     Forces acting on atoms (cartesian axes, Ry/au):

     atom    1 type  1   force =    -0.00014835    0.00046576    0.00086687
     atom    2 type  1   force =    -0.00001170   -0.00000085    0.00192493
     atom    3 type  1   force =    -0.00001482   -0.00006642   -0.00002476
     atom    4 type  2   force =    -0.00000200    0.00000191   -0.00307468
     atom    5 type  2   force =     0.00001177    0.00000570    0.00017536
     atom    6 type  2   force =     0.00008485   -0.00001611    0.00007165
     atom    7 type  2   force =     0.00000140   -0.00000208    0.00126962
     atom    8 type  2   force =    -0.00000273    0.00000031   -0.00022223
     atom    9 type  2   force =    -0.00010929   -0.00037431   -0.00036323
     atom   10 type  1   force =     0.00033413   -0.00035584    0.00087882
     atom   11 type  1   force =    -0.00000696   -0.00000018    0.00192326
     atom   12 type  1   force =    -0.00006966    0.00001843   -0.00002736
     atom   13 type  2   force =    -0.00000568   -0.00000033   -0.00307969
     atom   14 type  2   force =    -0.00002105   -0.00000950    0.00019530
     atom   15 type  2   force =     0.00002882    0.00008200    0.00006847
     atom   16 type  2   force =    -0.00000697   -0.00000065    0.00129082
     atom   17 type  2   force =    -0.00003692   -0.00002179   -0.00021299
     atom   18 type  2   force =    -0.00037761    0.00009529   -0.00036417
     atom   19 type  1   force =    -0.00147287   -0.00368416   -0.00192331
     atom   20 type  1   force =    -0.00001134   -0.00000995    0.00192052
     atom   21 type  1   force =     0.00001770   -0.00004468   -0.00000705
     atom   22 type  2   force =    -0.00000209   -0.00000198   -0.00306929
     atom   23 type  2   force =     0.00000817    0.00000849    0.00017756
     atom   24 type  2   force =     0.00026634   -0.00020324    0.00000660
     atom   25 type  2   force =    -0.00000331    0.00000040    0.00126774
     atom   26 type  2   force =    -0.00000683   -0.00000095   -0.00022525
     atom   27 type  2   force =    -0.00033370   -0.00023229    0.00048434
     atom   28 type  1   force =    -0.00394192    0.00056567   -0.00194105
     atom   29 type  1   force =    -0.00000051   -0.00000091    0.00192562
     atom   30 type  1   force =    -0.00003051    0.00003896   -0.00000446
     atom   31 type  2   force =    -0.00000393    0.00000103   -0.00308594
     atom   32 type  2   force =    -0.00000012    0.00000097    0.00017273
     atom   33 type  2   force =    -0.00004476    0.00033301    0.00000832
     atom   34 type  2   force =    -0.00000283   -0.00000298    0.00128847
     atom   35 type  2   force =     0.00000828   -0.00000069   -0.00012768
     atom   36 type  2   force =    -0.00036674   -0.00017489    0.00048393
     atom   37 type  1   force =    -0.00202838    0.00367587   -0.00157076
     atom   38 type  1   force =    -0.00000291   -0.00000131    0.00192834
     atom   39 type  1   force =    -0.00005972    0.00003836    0.00004268
     atom   40 type  2   force =    -0.00000115    0.00000082   -0.00308424
     atom   41 type  2   force =    -0.00001316    0.00000612    0.00020672
     atom   42 type  2   force =    -0.00112495    0.00101344   -0.00108728
     atom   43 type  2   force =    -0.00000072    0.00000366    0.00128680
     atom   44 type  2   force =    -0.00001864   -0.00000012   -0.00014585
     atom   45 type  2   force =     0.00089129   -0.00038013   -0.00237886
     atom   46 type  1   force =     0.00058902    0.00034033   -0.00014997
     atom   47 type  1   force =    -0.00000851   -0.00000037    0.00192443
     atom   48 type  1   force =     0.00003057    0.00000897   -0.00001964
     atom   49 type  2   force =     0.00000330    0.00000244   -0.00308067
     atom   50 type  2   force =    -0.00000077    0.00000671    0.00018537
     atom   51 type  2   force =     0.00018034    0.00010522    0.00002408
     atom   52 type  2   force =     0.00000263    0.00000606    0.00127648
     atom   53 type  2   force =    -0.00001573    0.00002692   -0.00020539
     atom   54 type  2   force =     0.00019860    0.00011603   -0.00068901
     atom   55 type  1   force =     0.00215769   -0.00359687   -0.00155006
     atom   56 type  1   force =     0.00000018   -0.00000363    0.00191936
     atom   57 type  1   force =     0.00000489   -0.00006797    0.00003990
     atom   58 type  2   force =    -0.00000069    0.00000153   -0.00308179
     atom   59 type  2   force =     0.00000577   -0.00000270    0.00018656
     atom   60 type  2   force =     0.00031522   -0.00147926   -0.00108375
     atom   61 type  2   force =     0.00000678   -0.00000063    0.00127570
     atom   62 type  2   force =     0.00001559   -0.00002777   -0.00019768
     atom   63 type  2   force =     0.00011637    0.00096293   -0.00239093
     atom   64 type  1   force =    -0.00001444    0.00000748   -0.03488240
     atom   65 type  1   force =     0.00000284   -0.00000238    0.00192340
     atom   66 type  1   force =     0.00000971    0.00000661   -0.00000340
     atom   67 type  2   force =     0.00000030    0.00000020   -0.00307767
     atom   68 type  2   force =    -0.00000210   -0.00001056    0.00020368
     atom   69 type  2   force =     0.00075885    0.00044055    0.00399120
     atom   70 type  2   force =     0.00000200    0.00000015    0.00128132
     atom   71 type  2   force =    -0.00001357   -0.00001208   -0.00014010
     atom   72 type  2   force =    -0.02132782   -0.01231277    0.02413288
     atom   73 type  1   force =     0.00239392    0.00335341   -0.00199084
     atom   74 type  1   force =     0.00000518    0.00000364    0.00192153
     atom   75 type  1   force =     0.00001774   -0.00003248    0.00002007
     atom   76 type  2   force =     0.00000288    0.00000002   -0.00308210
     atom   77 type  2   force =     0.00005070    0.00002974    0.00023027
     atom   78 type  2   force =    -0.00009276   -0.00095863    0.00401005
     atom   79 type  2   force =    -0.00000073    0.00000185    0.00128416
     atom   80 type  2   force =    -0.00003012   -0.00001661   -0.00007410
     atom   81 type  2   force =    -0.00058298    0.02567091    0.02334541
     atom   82 type  1   force =    -0.00032240   -0.00049590    0.00027146
     atom   83 type  1   force =    -0.00000123   -0.00000326    0.00191640
     atom   84 type  1   force =    -0.00003747    0.00000588    0.00002599
     atom   85 type  2   force =     0.00000290    0.00000736   -0.00307383
     atom   86 type  2   force =     0.00002433   -0.00001436    0.00019859
     atom   87 type  2   force =    -0.00064918   -0.00007782    0.00015705
     atom   88 type  2   force =     0.00000234    0.00001055    0.00127225
     atom   89 type  2   force =     0.00004215   -0.00002179   -0.00016524
     atom   90 type  2   force =     0.00008113    0.00012927    0.00032286
     atom   91 type  1   force =    -0.00059306   -0.00002605    0.00027066
     atom   92 type  1   force =    -0.00000341    0.00000320    0.00191636
     atom   93 type  1   force =    -0.00001346   -0.00003462    0.00002732
     atom   94 type  2   force =     0.00000135    0.00000067   -0.00307713
     atom   95 type  2   force =    -0.00001214   -0.00000865    0.00018994
     atom   96 type  2   force =    -0.00038789   -0.00052349    0.00015904
     atom   97 type  2   force =     0.00000039   -0.00000150    0.00128748
     atom   98 type  2   force =    -0.00001240   -0.00000733   -0.00019192
     atom   99 type  2   force =     0.00015045    0.00000687    0.00032030
     atom  100 type  1   force =     0.00411260    0.00040484   -0.00198727
     atom  101 type  1   force =     0.00000567   -0.00000184    0.00192204
     atom  102 type  1   force =    -0.00002618    0.00002899    0.00001886
     atom  103 type  2   force =     0.00000476    0.00000244   -0.00306973
     atom  104 type  2   force =    -0.00000507    0.00002365    0.00019655
     atom  105 type  2   force =    -0.00087359    0.00039933    0.00400838
     atom  106 type  2   force =     0.00000837   -0.00000220    0.00127544
     atom  107 type  2   force =     0.00000008    0.00004724   -0.00016513
     atom  108 type  2   force =     0.02201858   -0.01338665    0.02331142
     atom  109 type  1   force =     0.00029876    0.00016535    0.00052576
     atom  110 type  1   force =    -0.00000228   -0.00000074    0.00192715
     atom  111 type  1   force =     0.00005427    0.00002943    0.00017297
     atom  112 type  2   force =     0.00000240   -0.00000346   -0.00307960
     atom  113 type  2   force =    -0.00005106    0.00002737    0.00021957
     atom  114 type  2   force =     0.00109850    0.00063356   -0.00156006
     atom  115 type  2   force =    -0.00000010   -0.00000491    0.00129531
     atom  116 type  2   force =     0.00005673   -0.00001503   -0.00015445
     atom  117 type  2   force =    -0.00079514   -0.00046138   -0.00244189
     atom  118 type  1   force =    -0.00047453    0.00031834    0.00077028
     atom  119 type  1   force =    -0.00000276   -0.00000153    0.00192117
     atom  120 type  1   force =     0.00007482   -0.00001039    0.00002152
     atom  121 type  2   force =    -0.00000387    0.00000645   -0.00307574
     atom  122 type  2   force =    -0.00000252   -0.00005482    0.00021815
     atom  123 type  2   force =     0.00022478   -0.00018547    0.00019304
     atom  124 type  2   force =    -0.00000256    0.00000564    0.00129521
     atom  125 type  2   force =     0.00001572    0.00005718   -0.00015225
     atom  126 type  2   force =     0.00002492    0.00035593    0.00066249
     atom  127 type  1   force =     0.00055607    0.00032185    0.00001890
     atom  128 type  1   force =     0.00000368   -0.00000655    0.00192173
     atom  129 type  1   force =    -0.00001551   -0.00000113   -0.00001704
     atom  130 type  2   force =    -0.00000513   -0.00000154   -0.00307985
     atom  131 type  2   force =    -0.00000286    0.00000262    0.00017496
     atom  132 type  2   force =    -0.00045706   -0.00026321    0.00029736
     atom  133 type  2   force =    -0.00001069   -0.00000434    0.00128555
     atom  134 type  2   force =     0.00000237    0.00001396   -0.00019210
     atom  135 type  2   force =    -0.00011294   -0.00006849   -0.00019219
     atom  136 type  1   force =     0.00003284   -0.00057168    0.00077020
     atom  137 type  1   force =    -0.00000458    0.00000485    0.00192167
     atom  138 type  1   force =     0.00003828    0.00006556    0.00002443
     atom  139 type  2   force =    -0.00000037   -0.00000405   -0.00307641
     atom  140 type  2   force =     0.00000124   -0.00000210    0.00017576
     atom  141 type  2   force =    -0.00004656    0.00028333    0.00019801
     atom  142 type  2   force =    -0.00000797   -0.00000525    0.00128049
     atom  143 type  2   force =     0.00001310   -0.00000632   -0.00019860
     atom  144 type  2   force =     0.00032100   -0.00015365    0.00065366
     atom  145 type  3   force =     0.00023384    0.00013150   -0.00116457
     atom  146 type  4   force =    -0.00072118   -0.00039851   -0.03223459

     Total force =     0.077935     Total SCF correction =     0.006289

     BFGS Geometry Optimization
     Energy error            =      0.0E+00 Ry
     Gradient error          =      3.5E-02 Ry/Bohr

     number of scf cycles    =   1
     number of bfgs steps    =   0

     energy             new  =  -26031.7645852198 Ry

     new trust radius        =       0.0348824000 bohr
     new conv_thr            =       0.0000010000 Ry


ATOMIC_POSITIONS (angstrom)
Mo               1.5702828843        2.7181282068        6.0887695747
Mo               1.5769197498        0.9104407117       -6.0872367793    0   0   0
Mo               0.0001863703        1.8210918892       -0.0006861667
S                0.0000044503        0.0000077495       -7.6506323570    0   0   0
S                1.5766968963        0.9108676261       -1.5666243552
S                0.0024078940        1.8227723405        4.5078608434
S                0.0000053241        0.0000068460       -4.5222282367    0   0   0
S                1.5771909013        0.9101094820        1.5655653636
S               -0.0116917906        1.8081204989        7.6476580061
Mo              -0.0147238755        5.4634471484        6.0887746830
Mo               0.0000011799        3.6417399547       -6.0872367793    0   0   0
Mo              -1.5766500394        4.5522404745       -0.0006868458
S               -1.5769141197        2.7313069925       -7.6506323570    0   0   0
S                0.0002814512        3.6419176387       -1.5658937356
S               -1.5740652015        4.5532980630        4.5078579725
[...]
     atom   70 type  2   force =     0.00000734    0.00000235    0.00149600
     atom   71 type  2   force =    -0.00000323    0.00001384    0.00004094
     atom   72 type  2   force =    -0.00028868   -0.00016676    0.00009963
     atom   73 type  1   force =    -0.00050227   -0.00026099    0.00022761
     atom   74 type  1   force =    -0.00000117   -0.00000078    0.00189716
     atom   75 type  1   force =    -0.00000073    0.00000396   -0.00000255
     atom   76 type  2   force =     0.00000088    0.00000018   -0.00327962
     atom   77 type  2   force =     0.00000870    0.00000505    0.00001003
     atom   78 type  2   force =    -0.00006911    0.00001052   -0.00056058
     atom   79 type  2   force =     0.00000262    0.00000173    0.00149358
     atom   80 type  2   force =    -0.00001202   -0.00000712    0.00004491
     atom   81 type  2   force =     0.00010346   -0.00019055    0.00016182
     atom   82 type  1   force =    -0.00000511    0.00004559   -0.00031060
     atom   83 type  1   force =    -0.00000046   -0.00000108    0.00189510
     atom   84 type  1   force =    -0.00001949    0.00002275   -0.00000624
     atom   85 type  2   force =     0.00000107    0.00000020   -0.00327880
     atom   86 type  2   force =    -0.00000324    0.00000920   -0.00003211
     atom   87 type  2   force =    -0.00016587   -0.00030989    0.00028103
     atom   88 type  2   force =     0.00000498    0.00000493    0.00149433
     atom   89 type  2   force =     0.00000047    0.00007643   -0.00005391
     atom   90 type  2   force =     0.00028271    0.00008265   -0.00020662
     atom   91 type  1   force =     0.00003516   -0.00002738   -0.00030879
     atom   92 type  1   force =    -0.00000489   -0.00000272    0.00189658
     atom   93 type  1   force =     0.00000870   -0.00002831   -0.00000602
     atom   94 type  2   force =     0.00000078    0.00000014   -0.00327990
     atom   95 type  2   force =     0.00002816    0.00001601    0.00002609
     atom   96 type  2   force =    -0.00035069    0.00001180    0.00027942
     atom   97 type  2   force =    -0.00000392   -0.00000197    0.00148249
     atom   98 type  2   force =    -0.00001469   -0.00000871    0.00009889
     atom   99 type  2   force =     0.00021114    0.00020396   -0.00020404
     atom  100 type  1   force =    -0.00048405   -0.00030666    0.00023170
     atom  101 type  1   force =    -0.00000111    0.00000016    0.00189518
     atom  102 type  1   force =     0.00000305   -0.00000355   -0.00000262
     atom  103 type  2   force =     0.00000099    0.00000034   -0.00327877
     atom  104 type  2   force =     0.00000593   -0.00000787   -0.00003202
     atom  105 type  2   force =    -0.00002525   -0.00006581   -0.00056073
     atom  106 type  2   force =     0.00000656    0.00000217    0.00149442
     atom  107 type  2   force =     0.00006608   -0.00003844   -0.00005398
     atom  108 type  2   force =    -0.00013000    0.00019446    0.00016964
     atom  109 type  1   force =     0.00000368    0.00000166   -0.00020739
     atom  110 type  1   force =     0.00000190    0.00000058    0.00189883
     atom  111 type  1   force =     0.00000089   -0.00000008    0.00001064
     atom  112 type  2   force =     0.00000105    0.00000018   -0.00327936
     atom  113 type  2   force =    -0.00002209   -0.00000073   -0.00002491
     atom  114 type  2   force =    -0.00079756   -0.00045785    0.00093506
     atom  115 type  2   force =    -0.00000370   -0.00000121    0.00150677
     atom  116 type  2   force =     0.00003623    0.00001860    0.00000345
     atom  117 type  2   force =    -0.00000152   -0.00000133    0.00005150
     atom  118 type  1   force =     0.00011086   -0.00005690    0.00004401
     atom  119 type  1   force =     0.00000152    0.00000144    0.00189883
     atom  120 type  1   force =     0.00001664    0.00002085   -0.00000781
     atom  121 type  2   force =     0.00000101    0.00000033   -0.00327939
     atom  122 type  2   force =    -0.00001215   -0.00001862   -0.00002324
     atom  123 type  2   force =     0.00010778   -0.00035598    0.00030630
     atom  124 type  2   force =    -0.00000305   -0.00000224    0.00150679
     atom  125 type  2   force =     0.00003361    0.00002232    0.00000227
     atom  126 type  2   force =    -0.00007486    0.00008038   -0.00027167
     atom  127 type  1   force =    -0.00005542   -0.00003250   -0.00037402
     atom  128 type  1   force =     0.00000265   -0.00000248    0.00190071
     atom  129 type  1   force =    -0.00000048   -0.00000143    0.00008892
     atom  130 type  2   force =     0.00000111    0.00000031   -0.00327931
     atom  131 type  2   force =    -0.00002774    0.00001317    0.00001796
     atom  132 type  2   force =    -0.00010451   -0.00005859   -0.00035535
     atom  133 type  2   force =    -0.00000543   -0.00000517    0.00150344
     atom  134 type  2   force =     0.00002103   -0.00000949    0.00010613
     atom  135 type  2   force =     0.00000376    0.00000109   -0.00068079
     atom  136 type  1   force =     0.00000438    0.00012199    0.00004498
     atom  137 type  1   force =    -0.00000084    0.00000366    0.00190073
     atom  138 type  1   force =     0.00002520    0.00000427   -0.00000733
     atom  139 type  2   force =     0.00000108    0.00000035   -0.00327928
     atom  140 type  2   force =    -0.00000298   -0.00003208    0.00002012
     atom  141 type  2   force =    -0.00025134    0.00026773    0.00030441
     atom  142 type  2   force =    -0.00000749   -0.00000167    0.00150339
     atom  143 type  2   force =     0.00000176    0.00002214    0.00010430
     atom  144 type  2   force =     0.00003129   -0.00010437   -0.00026952
     atom  145 type  3   force =     0.00000305    0.00000286   -0.00074669
     atom  146 type  4   force =     0.00027548    0.00014686   -0.00053558

     Total force =     0.003824     Total SCF correction =     0.000424
     SCF correction compared to forces is large: reduce conv_thr to get better values
     Energy error            =      3.9E-05 Ry
     Gradient error          =      9.4E-04 Ry/Bohr

     bfgs converged in  16 scf cycles and  15 bfgs steps
     (criteria: energy <  1.0E-04 Ry, force <  1.0E-03 Ry/Bohr)

     End of BFGS Geometry Optimization

     Final energy             =  -26031.7929601897 Ry

     File ./outdir/pwscf.bfgs deleted, as requested
Begin final coordinates

ATOMIC_POSITIONS (angstrom)
Mo               1.5691144293        2.7202111021        6.0871573924
Mo               1.5769197498        0.9104407117       -6.0872367793    0   0   0
Mo               0.0001957134        1.8208867176       -0.0010993953
S                0.0000044503        0.0000077495       -7.6506323570    0   0   0
S                1.5768719459        0.9106477068       -1.5668502433
S                0.0038518683        1.8279757222        4.5012496702
S                0.0000053241        0.0000068460       -4.5222282367    0   0   0
S                1.5772938556        0.9103418764        1.5653357512
S               -0.0116369570        1.8061863300        7.6412288872
Mo              -0.0135012680        5.4613785241        6.0871519035
Mo               0.0000011799        3.6417399547       -6.0872367793    0   0   0
Mo              -1.5768147678        4.5523446629       -0.0010999470
S               -1.5769141197        2.7313069925       -7.6506323570    0   0   0
S                0.0001129840        3.6418109890       -1.5663792267
S               -1.5688460674        4.5519437998        4.5012561145
S               -1.5769132459        2.7313060890       -4.5222282367    0   0   0
S                0.0010810181        3.6423714954        1.5659171777
S               -1.5954409717        4.5494198719        7.6412308576
Mo              -1.5836116183        8.1757058392        6.0849906639
Mo              -1.5769173901        6.3730391977       -6.0872367793    0   0   0
Mo              -3.1536099647        7.2836854493       -0.0016523725
S               -3.1538326896        5.4626062355       -7.6506323570    0   0   0
S               -1.5767701830        6.3729073916       -1.5668491691
S               -3.1518712579        7.2879763384        4.4981124847
S               -3.1538318159        5.4626053320       -4.5222282367    0   0   0
S               -1.5768232763        6.3734254805        1.5653348736
S               -3.1664105331        7.2649455315        7.6400098160
Mo               3.1347534188        0.0032885687        6.0849970659
Mo              -3.1538359601        9.1043384407       -6.0872367793    0   0   0
Mo              -4.7304622948       10.0148716349       -0.0016521768
S               -4.7307512596        8.1939054785       -7.6506323570    0   0   0
S               -3.1534704150        9.1045575995       -1.5669689677
S               -4.7258350390       10.0141989619        4.4981124738
S               -4.7307503859        8.1939045750       -4.5222282367    0   0   0
S               -3.1525636391        9.1050801078        1.5656300308
S               -4.7530720846       10.0131278445        7.6400040493
Mo               4.7257732490        2.7345337036        6.0924094095
Mo               4.7307503218        0.9104407117       -6.0872367793    0   0   0
Mo               3.1539910331        1.8209344988       -0.0012587744
S                3.1538350223        0.0000077495       -7.6506323570    0   0   0
S                4.7312338920        0.9108541412       -1.5665622944
S                3.1526874706        1.8240400331        4.5152660130
S                3.1538358961        0.0000068460       -4.5222282367    0   0   0
S                4.7303072373        0.9100122436        1.5666816896
S                3.1497577889        1.8195248714        7.6513731062
Mo               3.1550099218        5.4632578444        6.1337808450
Mo               3.1538317519        3.6417399547       -6.0872367793    0   0   0
Mo               1.5773725574        4.5524410148       -0.0013183149
S                1.5769164523        2.7313069925       -7.6506323570    0   0   0
S                3.1542288163        3.6419286402       -1.5665064717
S                1.5934479556        4.5617027361        4.5549835431
S                1.5769173261        2.7313060890       -4.5222282367    0   0   0
S                3.1534853918        3.6415608780        1.5664447448
S                1.4818926800        4.4973040211        7.7019776890
Mo               1.5772557839        8.1879382317        6.0923876420
Mo               1.5769131819        6.3730391977       -6.0872367793    0   0   0
Mo               0.0001207418        7.2835913830       -0.0012588244
S               -0.0000021176        5.4626062355       -7.6506323570    0   0   0
S                1.5772712610        6.3732969068       -1.5665014767
S                0.0021833653        7.2808742768        4.5152575223
S               -0.0000012439        5.4626053320       -4.5222282367    0   0   0
S                1.5765812359        6.3728378452        1.5664394798
S               -0.0031855098        7.2806017327        7.6513564822
Mo               6.3079797426        0.0001461194        6.1331645374
Mo              -0.0000053881        9.1043384407       -6.0872367793    0   0   0
Mo              -1.5764320755       10.0150639469       -0.0015411456
S               -1.5769206876        8.1939054785       -7.6506323570    0   0   0
S                0.0005870667        9.1045657406       -1.5665615465
S               -1.5561929658       10.0267152146        4.5611539263
S               -1.5769198139        8.1939045750       -4.5222282367    0   0   0
S               -0.0006051834        9.1041839496        1.5666806127
S               -1.7122845338        9.9365916098        7.7222367050
Mo               7.9005509511        2.7447103861        6.0774624054
Mo               7.8845808939        0.9104407117       -6.0872367793    0   0   0
Mo               6.3074759978        1.8206327008        0.0000408103
S                6.3076655943        0.0000077495       -7.6506323570    0   0   0
S                7.8844235582        0.9103574318       -1.5655924339
S                6.3060754552        1.7945503381        4.5574200036
S                6.3076664681        0.0000068460       -4.5222282367    0   0   0
S                7.8844003223        0.9103441031        1.5673422883
S                6.3209640912        1.9595537299        7.7196179203
Mo               6.3222062672        5.4660463175        6.0779106552
Mo               6.3076623239        3.6417399547       -6.0872367793    0   0   0
Mo               4.7305985759        4.5520125854       -0.0002621124
S                4.7307470244        2.7313069925       -7.6506323570    0   0   0
S                6.3075387977        3.6414149220       -1.5652677309
S                4.7108058998        4.5636397854        4.5477182967
S                4.7307478981        2.7313060890       -4.5222282367    0   0   0
S                6.3065138430        3.6408716750        1.5684451975
S                4.8183905759        4.5185071274        7.6984773370
Mo               4.7410216916        8.2047506412        6.0778891560
Mo               4.7307437539        6.3730391977       -6.0872367793    0   0   0
Mo               3.1536108485        7.2834375223       -0.0002625681
S                3.1538284544        5.4626062355       -7.6506323570    0   0   0
S                4.7301627769        6.3727119295       -1.5663238791
S                3.1538191388        7.2604172643        4.5477049090
S                3.1538293281        5.4626053320       -4.5222282367    0   0   0
S                4.7310675795        6.3732336778        1.5662081234
S                3.1685305451        7.3761653409        7.6984558269
Mo               9.4811254602        0.0071056810        6.0774484731
Mo               3.1538251839        9.1043384407       -6.0872367793    0   0   0
Mo               1.5766010310       10.0147413109        0.0000408287
S                1.5769098844        8.1939054785       -7.6506323570    0   0   0
S                3.1534779751        9.1044067430       -1.5652680279
S                1.5533523663       10.0265172337        4.5574060324
S                1.5769107581        8.1939045750       -4.5222282367    0   0   0
S                3.1524953079        9.1037898852        1.5684451659
S                1.7036949715        9.9569002653        7.7195979621
Mo              -1.5753849777        2.7321774809        6.0707344589
Mo              11.0384114659        0.9104407117       -6.0872367793    0   0   0
Mo               9.4613582407        1.8208031443       -0.0004747720
S                9.4614961663        0.0000077495       -7.6506323570    0   0   0
S               11.0381471057        0.9100988088       -1.5658404496
S                9.4649520799        1.8228499519        4.5022870374
S                9.4614970401        0.0000068460       -4.5222282367    0   0   0
S               11.0387396910        0.9106606702        1.5660881229
S                9.4693108927        1.8253601146        7.6415078359
Mo              -3.1550371436        5.4620600089        6.0584155917
Mo               9.4614928959        3.6417399547       -6.0872367793    0   0   0
Mo               7.8841224841        4.5518910337        0.0000104312
S                7.8845775964        2.7313069925       -7.6506323570    0   0   0
S                9.4610596712        3.6416927543       -1.5658443060
S                7.8808373190        4.5516389401        4.4951801151
S                7.8845784701        2.7313060890       -4.5222282367    0   0   0
S                9.4618430700        3.6419246979        1.5660908321
S                7.9072595346        4.5665385709        7.6423618012
Mo              -4.7298155085        8.1944285694        6.0699114892
Mo               7.8845743259        6.3730391977       -6.0872367793    0   0   0
Mo               6.3075543867        7.2834235251       -0.0019343603
S                6.3076590264        5.4626062355       -7.6506323570    0   0   0
S                7.8846486944        6.3722917968       -1.5666332598
S                6.3083437784        7.2838344502        4.5059997417
S                6.3076599001        5.4626053320       -4.5222282367    0   0   0
S                7.8845706907        6.3737896912        1.5651525224
S                6.3142427267        7.2872617162        7.6426194413
Mo              -0.0010457929       -0.0007776203        6.0584009738
Mo               6.3076557559        9.1043384407       -6.0872367793    0   0   0
Mo               4.7302655463       10.0145290574        0.0000104477
S                4.7307404564        8.1939054785       -7.6506323570    0   0   0
S                6.3070422159        9.1047932927       -1.5666383787
S                4.7284335117       10.0117824251        4.4951649106
S                4.7307413301        8.1939045750       -4.5222282367    0   0   0
S                6.3083011488        9.1039741840        1.5651580464
S                4.7545547173       10.0272005858        7.6423393659
Pd               3.1450131176        5.4574860939        9.0252841170
Pt               6.2940176786       -0.0078377452        8.8873920155
End final coordinates



     Writing all to output data dir ./outdir/pwscf.save/ :
     XML data file, charge density, pseudopotentials, collected wavefunctions
 
     init_run     :     96.54s CPU     99.26s WALL (       1 calls)
     electrons    :  72928.54s CPU  74019.24s WALL (      16 calls)
     update_pot   :     19.74s CPU     20.35s WALL (      15 calls)
     forces       :   1142.45s CPU   1167.27s WALL (      16 calls)
     force_dftd3  :      6.04s CPU      6.35s WALL (      16 calls)

     Called by init_run:
     wfcinit      :     77.87s CPU     78.90s WALL (       1 calls)
     potinit      :      1.09s CPU      1.17s WALL (       1 calls)
     hinit0       :      9.83s CPU     10.42s WALL (       1 calls)

     Called by electrons:
     c_bands      :  63418.44s CPU  64063.26s WALL (     221 calls)
     sum_band     :   8158.74s CPU   8386.08s WALL (     221 calls)
     v_of_rho     :     64.67s CPU     72.32s WALL (     226 calls)
     newd         :   1139.23s CPU   1353.81s WALL (     226 calls)
     PAW_pot      :    181.36s CPU    182.83s WALL (     241 calls)
     mix_rho      :     17.65s CPU     19.90s WALL (     221 calls)
     energy_dftd3 :      3.42s CPU      3.44s WALL (      16 calls)

     Called by c_bands:
     init_us_2    :    309.69s CPU    311.22s WALL (    1896 calls)
     init_us_2:cp :    309.68s CPU    311.21s WALL (    1896 calls)
     cegterg      :  62111.87s CPU  62751.25s WALL (     906 calls)

     Called by *egterg:
     cdiaghg      :   3107.95s CPU   3240.14s WALL (   10488 calls)
     h_psi        :  32472.96s CPU  32685.86s WALL (   10603 calls)
     s_psi        :   6958.08s CPU   6987.26s WALL (   10603 calls)
     g_psi        :     71.22s CPU     71.53s WALL (    9693 calls)

     Called by h_psi:
     h_psi:calbec :   6748.98s CPU   6772.00s WALL (   10603 calls)
     vloc_psi     :  18571.39s CPU  18676.64s WALL (   10603 calls)
     add_vuspsi   :   6997.27s CPU   7029.50s WALL (   10603 calls)

     General routines
     calbec       :   9581.19s CPU   9613.22s WALL (   11803 calls)
     fft          :     49.26s CPU     56.26s WALL (    3108 calls)
     ffts         :      2.89s CPU      2.96s WALL (     447 calls)
     fftw         :  13783.95s CPU  13862.25s WALL ( 4872846 calls)
     interpolate  :      5.32s CPU      5.86s WALL (     226 calls)
 
     Parallel routines
 
     PWSCF        :     20h42m CPU     21h 2m WALL

 
   This run was terminated on:   6:26:17  12Mar2024            

=------------------------------------------------------------------------------=
   JOB DONE.
=------------------------------------------------------------------------------=
