
     Program PWSCF v.7.3 starts on 16Mar2024 at  3:24:42 

     This program is part of the open-source Quantum ESPRESSO suite
     for quantum simulation of materials; please cite
         "P. Giannozzi et al., J. Phys.:Condens. Matter 21 395502 (2009);
         "P. Giannozzi et al., J. Phys.:Condens. Matter 29 465901 (2017);
         "P. Giannozzi et al., J. Chem. Phys. 152 154105 (2020);
          URL http://www.quantum-espresso.org", 
     in publications or presentations arising from this work. More details at
     http://www.quantum-espresso.org/quote

     Parallel version (MPI & OpenMP), running on      36 processor cores
     Number of MPI processes:                36
     Threads/MPI process:                     1

     MPI processes distributed on     1 nodes
     557253 MiB available memory on the printing compute node when the environment starts
 
     Waiting for input...
     Reading input from standard input
Warning: card &CELL ignored
Warning: card / ignored

     Current dimensions of program PWSCF are:
     Max number of different atomic species (ntypx) = 10
     Max number of k-points (npk) =  40000
     Max angular momentum in pseudopotentials (lmaxx) =  4
     file Mo.pbe-spn-kjpaw_psl.1.0.0.UPF: wavefunction(s)  4S 4D renormalized
     file S.pbe-n-kjpaw_psl.1.0.0.UPF: wavefunction(s)  3S 3P renormalized
     file Pd.pbe-spn-kjpaw_psl.1.0.0.UPF: wavefunction(s)  4S 5S 4D renormalized
     file Pt.pbe-spfn-kjpaw_psl.1.0.0.UPF: wavefunction(s)  5P 4F renormalized
 
     R & G space division:  proc/nbgrp/npool/nimage =      36
     Subspace diagonalization in iterative solution of the eigenvalue problem:
     one sub-group per band group will be used
     scalapack distributed-memory algorithm (size of sub-group:  6*  6 procs)

 
     Parallelization info
     --------------------
     sticks:   dense  smooth     PW     G-vecs:    dense   smooth      PW
     Min         585     334     89               198743    85850   11735
     Max         586     335     90               198750    85861   11748
     Sum       21073   12049   3205              7154885  3090769  422587
 
     Using Slab Decomposition
 


     bravais-lattice index     =            0
     lattice parameter (alat)  =      23.8199  a.u.
     unit-cell volume          =   33861.0370 (a.u.)^3
     number of atoms/cell      =          194
     number of atomic types    =            4
     number of electrons       =      1714.00
     number of Kohn-Sham states=         1028
     kinetic-energy cutoff     =      77.0000  Ry
     charge density cutoff     =     539.0000  Ry
     scf convergence threshold =      1.0E-06
     mixing beta               =       0.2000
     number of iterations used =            8  plain     mixing
     energy convergence thresh.=      1.0E-04
     force convergence thresh. =      1.0E-03
     Exchange-correlation= SLA  PW   PBX  PBC
                           (   1   4   3   4   0   0   0)
     nstep                     =         1000


     Effective Screening Medium Method
     =================================
     Boundary Conditions: Vacuum-Slab-Vacuum
     total charge in unit cell        =   0.0000
     grid points for fit at edges     =        4 
 

     celldm(1)=  23.819920  celldm(2)=   0.000000  celldm(3)=   0.000000
     celldm(4)=   0.000000  celldm(5)=   0.000000  celldm(6)=   0.000000

     crystal axes: (cart. coord. in units of alat)
               a(1) = (   1.000000   0.000000   0.000000 )  
               a(2) = (  -0.499999   0.866026   0.000000 )  
               a(3) = (   0.000000   0.000000   2.893000 )  

     reciprocal axes: (cart. coord. in units 2 pi/alat)
               b(1) = (  1.000000  0.577349  0.000000 )  
               b(2) = (  0.000000  1.154700  0.000000 )  
               b(3) = (  0.000000  0.000000  0.345662 )  


     PseudoPot. # 1 for Mo read from file:
     ./pseudo/Mo.pbe-spn-kjpaw_psl.1.0.0.UPF
     MD5 check sum: 317bf72632116215fd98f72de1686f13
     Pseudo is Projector augmented-wave + core cor, Zval = 14.0
     Generated using 'atomic' code by A. Dal Corso  v.7.2
     Shape of augmentation charge: PSQ
     Using radial grid of 1229 points,  6 beta functions with: 
                l(1) =   0
                l(2) =   0
                l(3) =   1
                l(4) =   1
                l(5) =   2
                l(6) =   2
     Q(r) pseudized with 0 coefficients 


     PseudoPot. # 2 for S  read from file:
     ./pseudo/S.pbe-n-kjpaw_psl.1.0.0.UPF
     MD5 check sum: 8b7b5302570d38d5e87fed6a1065abda
     Pseudo is Projector augmented-wave + core cor, Zval =  6.0
     Generated using 'atomic' code by A. Dal Corso  v.7.2
     Shape of augmentation charge: PSQ
     Using radial grid of 1151 points,  6 beta functions with: 
                l(1) =   0
                l(2) =   0
                l(3) =   1
                l(4) =   1
                l(5) =   2
                l(6) =   2
     Q(r) pseudized with 0 coefficients 


     PseudoPot. # 3 for Pd read from file:
     ./pseudo/Pd.pbe-spn-kjpaw_psl.1.0.0.UPF
     MD5 check sum: a60571a671f2502b8a6a4569d20a6edb
     Pseudo is Projector augmented-wave + core cor, Zval = 18.0
     Generated using 'atomic' code by A. Dal Corso  v.7.2
     Shape of augmentation charge: PSQ
     Using radial grid of 1235 points,  6 beta functions with: 
                l(1) =   0
                l(2) =   0
                l(3) =   1
                l(4) =   1
                l(5) =   2
                l(6) =   2
     Q(r) pseudized with 0 coefficients 


     PseudoPot. # 4 for Pt read from file:
     ./pseudo/Pt.pbe-spfn-kjpaw_psl.1.0.0.UPF
     MD5 check sum: 620096ebf4e6ebacc94de60fd67efcb5
     Pseudo is Projector augmented-wave + core cor, Zval = 32.0
     Generated using 'atomic' code by A. Dal Corso  v.7.2
     Shape of augmentation charge: PSQ
     Using radial grid of 1277 points,  8 beta functions with: 
                l(1) =   0
                l(2) =   0
                l(3) =   1
                l(4) =   1
                l(5) =   2
                l(6) =   2
                l(7) =   3
                l(8) =   3
     Q(r) pseudized with 0 coefficients 


     atomic species   valence    mass     pseudopotential
     Mo               14.00    95.95000     Mo( 1.00)
     S                 6.00    32.06000     S ( 1.00)
     Pd               18.00   106.42000     Pd( 1.00)
     Pt               32.00   195.08400     Pt( 1.00)

     No symmetry found



   Cartesian axes

     site n.     atom                  positions (alat units)
         1        Mo     tau(   1) = (   0.0000010   0.1443372  -0.7272732  )
         2        Mo     tau(   2) = (   0.1249995   0.0721706  -0.2424038  )
         3        S      tau(   3) = (   0.0000015   0.1443386  -0.3667807  )
         4        S      tau(   4) = (   0.1250010   0.0721682  -0.6030489  )
         5        S      tau(   5) = (   0.1250010   0.0721683  -0.8514963  )
         6        S      tau(   6) = (   0.0000015   0.1443389  -0.1180260  )
         7        Mo     tau(   7) = (   0.0000007   0.1443589   0.2424205  )
         8        Mo     tau(   8) = (   0.1250041   0.0720322   0.7266168  )
         9        S      tau(   9) = (   0.0000742   0.1444871   0.6020949  )
        10        S      tau(  10) = (   0.1250024   0.0721701   0.3667478  )
        11        S      tau(  11) = (   0.1250035   0.0721876   0.1180348  )
        12        S      tau(  12) = (  -0.0004118   0.1430864   0.8514340  )
        13        Mo     tau(  13) = (  -0.1249989   0.3608437  -0.7272732  )
        14        Mo     tau(  14) = (   0.0000030   0.2886752  -0.2424042  )
        15        S      tau(  15) = (  -0.1249977   0.3608450  -0.3667802  )
        16        S      tau(  16) = (   0.0000012   0.2886747  -0.6030489  )
        17        S      tau(  17) = (   0.0000012   0.2886748  -0.8514963  )
        18        S      tau(  18) = (  -0.1249977   0.3608454  -0.1180274  )
        19        Mo     tau(  19) = (  -0.1249729   0.3608584   0.2424608  )
        20        Mo     tau(  20) = (  -0.0007193   0.2876626   0.7275440  )
        21        S      tau(  21) = (  -0.1251115   0.3607789   0.6027257  )
        22        S      tau(  22) = (   0.0000621   0.2887099   0.3668377  )
        23        S      tau(  23) = (  -0.0000096   0.2886902   0.1180527  )
        24        S      tau(  24) = (  -0.1254673   0.3605734   0.8517408  )
        25        Mo     tau(  25) = (  -0.2499987   0.5773502  -0.7272732  )
        26        Mo     tau(  26) = (  -0.1249977   0.5051839  -0.2424055  )
        27        S      tau(  27) = (  -0.2499981   0.5773518  -0.3667809  )
        28        S      tau(  28) = (  -0.1249986   0.5051812  -0.6030489  )
        29        S      tau(  29) = (  -0.1249986   0.5051813  -0.8514963  )
        30        S      tau(  30) = (  -0.2499979   0.5773512  -0.1180266  )
        31        Mo     tau(  31) = (  -0.2499795   0.5773389   0.2424205  )
        32        Mo     tau(  32) = (  -0.1262356   0.5050639   0.7275441  )
        33        S      tau(  33) = (  -0.2498323   0.5773390   0.6020948  )
        34        S      tau(  34) = (  -0.1249376   0.5052159   0.3668377  )
        35        S      tau(  35) = (  -0.1249905   0.5051638   0.1180531  )
        36        S      tau(  36) = (  -0.2512883   0.5776183   0.8514340  )
        37        Mo     tau(  37) = (  -0.3749985   0.7938567  -0.7272732  )
        38        Mo     tau(  38) = (  -0.2500001   0.7216874  -0.2424031  )
        39        S      tau(  39) = (  -0.3749980   0.7938584  -0.3667800  )
        40        S      tau(  40) = (  -0.2499984   0.7216877  -0.6030489  )
        41        S      tau(  41) = (  -0.2499984   0.7216878  -0.8514963  )
        42        S      tau(  42) = (  -0.3749982   0.7938585  -0.1180264  )
        43        Mo     tau(  43) = (  -0.3749962   0.7938568   0.2423838  )
        44        Mo     tau(  44) = (  -0.2501148   0.7217588   0.7266170  )
        45        S      tau(  45) = (  -0.3749945   0.7938590   0.6021274  )
        46        S      tau(  46) = (  -0.2499958   0.7216877   0.3667488  )
        47        S      tau(  47) = (  -0.2499810   0.7216794   0.1180323  )
        48        S      tau(  48) = (  -0.3749953   0.7938585   0.8511588  )
        49        Mo     tau(  49) = (   0.2500010   0.1443372  -0.7272732  )
        50        Mo     tau(  50) = (   0.3750034   0.0721723  -0.2424032  )
        51        S      tau(  51) = (   0.2500017   0.1443391  -0.3667788  )
        52        S      tau(  52) = (   0.3750010   0.0721682  -0.6030489  )
        53        S      tau(  53) = (   0.3750010   0.0721683  -0.8514963  )
        54        S      tau(  54) = (   0.2500016   0.1443391  -0.1180271  )
        55        Mo     tau(  55) = (   0.2500054   0.1443594   0.2424211  )
        56        Mo     tau(  56) = (   0.3749279   0.0721263   0.7263991  )
        57        S      tau(  57) = (   0.2499344   0.1444864   0.6020948  )
        58        S      tau(  58) = (   0.3750316   0.0721860   0.3667597  )
        59        S      tau(  59) = (   0.3749924   0.0721644   0.1180346  )
        60        S      tau(  60) = (   0.2504199   0.1430865   0.8514340  )
        61        Mo     tau(  61) = (   0.1250012   0.3608437  -0.7272732  )
        62        Mo     tau(  62) = (   0.2500029   0.2886782  -0.2424031  )
        63        S      tau(  63) = (   0.1250024   0.3608455  -0.3667794  )
        64        S      tau(  64) = (   0.2500012   0.2886747  -0.6030489  )
        65        S      tau(  65) = (   0.2500012   0.2886748  -0.8514963  )
        66        S      tau(  66) = (   0.1250021   0.3608455  -0.1180270  )
        67        Mo     tau(  67) = (   0.1250038   0.3608653   0.2423963  )
        68        Mo     tau(  68) = (   0.2507284   0.2876625   0.7275438  )
        69        S      tau(  69) = (   0.1250046   0.3627170   0.6061948  )
        70        S      tau(  70) = (   0.2499461   0.2887116   0.3668373  )
        71        S      tau(  71) = (   0.2500171   0.2886900   0.1180543  )
        72        S      tau(  72) = (   0.1250046   0.3519103   0.8557806  )
        73        Mo     tau(  73) = (   0.0000014   0.5773502  -0.7272732  )
        74        Mo     tau(  74) = (   0.1250045   0.5051840  -0.2424036  )
        75        S      tau(  75) = (   0.0000030   0.5773520  -0.3667799  )
        76        S      tau(  76) = (   0.1250014   0.5051812  -0.6030489  )
        77        S      tau(  77) = (   0.1250014   0.5051813  -0.8514963  )
        78        S      tau(  78) = (   0.0000026   0.5773517  -0.1180274  )
        79        Mo     tau(  79) = (   0.0000222   0.5773400   0.2423964  )
        80        Mo     tau(  80) = (   0.1250047   0.5051836   0.7321380  )
        81        S      tau(  81) = (   0.0016251   0.5764170   0.6061946  )
        82        S      tau(  82) = (   0.1250047   0.5051815   0.3667777  )
        83        S      tau(  83) = (   0.1250048   0.5051819   0.1179962  )
        84        S      tau(  84) = (  -0.0077335   0.5818202   0.8557807  )
        85        Mo     tau(  85) = (  -0.1249984   0.7938567  -0.7272732  )
        86        Mo     tau(  86) = (   0.0000069   0.7216896  -0.2424039  )
        87        S      tau(  87) = (  -0.1249975   0.7938582  -0.3667782  )
        88        S      tau(  88) = (   0.0000016   0.7216877  -0.6030489  )
        89        S      tau(  89) = (   0.0000016   0.7216878  -0.8514963  )
        90        S      tau(  90) = (  -0.1249973   0.7938582  -0.1180279  )
        91        Mo     tau(  91) = (  -0.1249774   0.7938494   0.2424207  )
        92        Mo     tau(  92) = (  -0.0005116   0.7228241   0.7275438  )
        93        S      tau(  93) = (  -0.1249026   0.7937246   0.6020948  )
        94        S      tau(  94) = (   0.0000043   0.7216209   0.3668361  )
        95        S      tau(  95) = (   0.0000226   0.7216928   0.1180549  )
        96        S      tau(  96) = (  -0.1258721   0.7948451   0.8514341  )
        97        Mo     tau(  97) = (   0.5000010   0.1443372  -0.7272732  )
        98        Mo     tau(  98) = (   0.6250001   0.0721662  -0.2424040  )
        99        S      tau(  99) = (   0.5000017   0.1443386  -0.3667801  )
       100        S      tau( 100) = (   0.6250010   0.0721682  -0.6030489  )
       101        S      tau( 101) = (   0.6250010   0.0721683  -0.8514963  )
       102        S      tau( 102) = (   0.5000020   0.1443388  -0.1180261  )
       103        Mo     tau( 103) = (   0.5000075   0.1443411   0.2423793  )
       104        Mo     tau( 104) = (   0.6250042   0.0723339   0.7270464  )
       105        S      tau( 105) = (   0.5002366   0.1444733   0.6023595  )
       106        S      tau( 106) = (   0.6250029   0.0721787   0.3667562  )
       107        S      tau( 107) = (   0.6250040   0.0721260   0.1180315  )
       108        S      tau( 108) = (   0.4998752   0.1442648   0.8512770  )
       109        Mo     tau( 109) = (   0.3750012   0.3608437  -0.7272732  )
       110        Mo     tau( 110) = (   0.4999991   0.2886761  -0.2424038  )
       111        S      tau( 111) = (   0.3750012   0.3608452  -0.3667804  )
       112        S      tau( 112) = (   0.5000012   0.2886747  -0.6030489  )
       113        S      tau( 113) = (   0.5000012   0.2886748  -0.8514963  )
       114        S      tau( 114) = (   0.3750014   0.3608455  -0.1180261  )
       115        Mo     tau( 115) = (   0.3749795   0.3608597   0.2424601  )
       116        Mo     tau( 116) = (   0.5001461   0.2885951   0.7270464  )
       117        S      tau( 117) = (   0.3751205   0.3607791   0.6027254  )
       118        S      tau( 118) = (   0.5000105   0.2886721   0.3667569  )
       119        S      tau( 119) = (   0.4999655   0.2886989   0.1180297  )
       120        S      tau( 120) = (   0.3754765   0.3605739   0.8517402  )
       121        Mo     tau( 121) = (   0.2500014   0.5773502  -0.7272732  )
       122        Mo     tau( 122) = (   0.3749983   0.5051825  -0.2424043  )
       123        S      tau( 123) = (   0.2500017   0.5773519  -0.3667810  )
       124        S      tau( 124) = (   0.3750014   0.5051812  -0.6030489  )
       125        S      tau( 125) = (   0.3750014   0.5051813  -0.8514963  )
       126        S      tau( 126) = (   0.2500018   0.5773519  -0.1180256  )
       127        Mo     tau( 127) = (   0.2499863   0.5773402   0.2423965  )
       128        Mo     tau( 128) = (   0.3762454   0.5050642   0.7275433  )
       129        S      tau( 129) = (   0.2483844   0.5764169   0.6061944  )
       130        S      tau( 130) = (   0.3749442   0.5052158   0.3668400  )
       131        S      tau( 131) = (   0.3749972   0.5051650   0.1180510  )
       132        S      tau( 132) = (   0.2577438   0.5818204   0.8557797  )
       133        Mo     tau( 133) = (   0.1250016   0.7938567  -0.7272732  )
       134        Mo     tau( 134) = (   0.2499995   0.7216883  -0.2424036  )
       135        S      tau( 135) = (   0.1250024   0.7938578  -0.3667813  )
       136        S      tau( 136) = (   0.2500016   0.7216877  -0.6030489  )
       137        S      tau( 137) = (   0.2500016   0.7216878  -0.8514963  )
       138        S      tau( 138) = (   0.1250024   0.7938579  -0.1180253  )
       139        Mo     tau( 139) = (   0.1250047   0.7938294   0.2424606  )
       140        Mo     tau( 140) = (   0.2505220   0.7228241   0.7275433  )
       141        S      tau( 141) = (   0.1250053   0.7939926   0.6027252  )
       142        S      tau( 142) = (   0.2500048   0.7216200   0.3668387  )
       143        S      tau( 143) = (   0.2499864   0.7216915   0.1180524  )
       144        S      tau( 144) = (   0.1250054   0.7944033   0.8517402  )
       145        Mo     tau( 145) = (   0.7500010   0.1443372  -0.7272732  )
       146        Mo     tau( 146) = (   0.8750038   0.0721696  -0.2424038  )
       147        S      tau( 147) = (   0.7500016   0.1443382  -0.3667789  )
       148        S      tau( 148) = (   0.8750010   0.0721682  -0.6030489  )
       149        S      tau( 149) = (   0.8750010   0.0721683  -0.8514963  )
       150        S      tau( 150) = (   0.7500016   0.1443384  -0.1180279  )
       151        Mo     tau( 151) = (   0.7499986   0.1443409   0.2423802  )
       152        Mo     tau( 152) = (   0.8750804   0.0721266   0.7263988  )
       153        S      tau( 153) = (   0.7497713   0.1444738   0.6023592  )
       154        S      tau( 154) = (   0.8749758   0.0721848   0.3667595  )
       155        S      tau( 155) = (   0.8750127   0.0721632   0.1180342  )
       156        S      tau( 156) = (   0.7501331   0.1442647   0.8512770  )
       157        Mo     tau( 157) = (   0.6250012   0.3608437  -0.7272732  )
       158        Mo     tau( 158) = (   0.7500028   0.2886769  -0.2424041  )
       159        S      tau( 159) = (   0.6250015   0.3608451  -0.3667792  )
       160        S      tau( 160) = (   0.7500012   0.2886747  -0.6030489  )
       161        S      tau( 161) = (   0.7500012   0.2886748  -0.8514963  )
       162        S      tau( 162) = (   0.6250016   0.3608454  -0.1180280  )
       163        Mo     tau( 163) = (   0.6250032   0.3608391   0.2423797  )
       164        Mo     tau( 164) = (   0.7498627   0.2885951   0.7270467  )
       165        S      tau( 165) = (   0.6250046   0.3605769   0.6023590  )
       166        S      tau( 166) = (   0.7499943   0.2886711   0.3667569  )
       167        S      tau( 167) = (   0.7500399   0.2886970   0.1180318  )
       168        S      tau( 168) = (   0.6250043   0.3609947   0.8512770  )
       169        Mo     tau( 169) = (   0.5000014   0.5773502  -0.7272732  )
       170        Mo     tau( 170) = (   0.6250029   0.5051841  -0.2424047  )
       171        S      tau( 171) = (   0.5000014   0.5773518  -0.3667794  )
       172        S      tau( 172) = (   0.6250014   0.5051812  -0.6030489  )
       173        S      tau( 173) = (   0.6250014   0.5051813  -0.8514963  )
       174        S      tau( 174) = (   0.5000016   0.5773516  -0.1180277  )
       175        Mo     tau( 175) = (   0.4999855   0.5773383   0.2424207  )
       176        Mo     tau( 176) = (   0.6250049   0.5052713   0.7263986  )
       177        S      tau( 177) = (   0.4998428   0.5773389   0.6020941  )
       178        S      tau( 178) = (   0.6250030   0.5051500   0.3667588  )
       179        S      tau( 179) = (   0.6250025   0.5051935   0.1180351  )
       180        S      tau( 180) = (   0.5012979   0.5776190   0.8514332  )
       181        Mo     tau( 181) = (   0.3750016   0.7938567  -0.7272732  )
       182        Mo     tau( 182) = (   0.5000025   0.7216901  -0.2424039  )
       183        S      tau( 183) = (   0.3750019   0.7938578  -0.3667793  )
       184        S      tau( 184) = (   0.5000016   0.7216877  -0.6030489  )
       185        S      tau( 185) = (   0.5000016   0.7216878  -0.8514963  )
       186        S      tau( 186) = (   0.3750020   0.7938579  -0.1180272  )
       187        Mo     tau( 187) = (   0.3749848   0.7938487   0.2424206  )
       188        Mo     tau( 188) = (   0.5001249   0.7217591   0.7266160  )
       189        S      tau( 189) = (   0.3749125   0.7937251   0.6020942  )
       190        S      tau( 190) = (   0.5000021   0.7216868   0.3667472  )
       191        S      tau( 191) = (   0.4999874   0.7216780   0.1180346  )
       192        S      tau( 192) = (   0.3758826   0.7948451   0.8514332  )
       193        Pd     tau( 193) = (   0.1250063   0.5051842   0.9601361  )
       194        Pt     tau( 194) = (  -0.2501397   0.7217794   0.9701737  )

     --------------------------------------------
     DFT-D3 Dispersion Correction (3-body terms):
     --------------------------------------------
       Reference C6 values for interpolation: 

         atom   Coordination number   C6
         S          0.000           268.01
         S          0.995           261.99
         S          1.990           251.62
         Mo         0.000          1691.79
         Mo         1.942          1004.01
         Mo        11.056           674.22
         Pd         0.000          1217.01
         Pd         1.863           573.90
         Pd         5.710           531.75
         Pt         0.000           782.29
         Pt         1.919           692.72
         Pt         6.667           673.75

       Values used:

         atom   Coordination number  R0_AB[au]  C6      C8
         Mo        10.208            3.547    674.22  77634.20
         Mo        10.221            3.547    674.22  77634.20
         S          3.858            3.128    251.62  12327.25
         S          3.859            3.128    251.62  12327.25
         S          3.758            3.128    251.62  12327.25
         S          3.859            3.128    251.62  12327.25
         Mo        10.220            3.547    674.22  77634.20
         Mo        10.244            3.547    674.22  77634.20
         S          3.847            3.128    251.62  12327.25
         S          3.861            3.128    251.62  12327.25
         S          3.859            3.128    251.62  12327.25
         S          3.806            3.128    251.62  12327.25
         Mo        10.208            3.547    674.22  77634.20
         Mo        10.221            3.547    674.22  77634.20
         S          3.858            3.128    251.62  12327.25
         S          3.859            3.128    251.62  12327.25
         S          3.758            3.128    251.62  12327.25
         S          3.859            3.128    251.62  12327.25
         Mo        10.221            3.547    674.22  77634.20
         Mo        10.191            3.547    674.22  77634.20
         S          3.855            3.128    251.62  12327.25
         S          3.856            3.128    251.62  12327.25
         S          3.859            3.128    251.62  12327.25
         S          3.757            3.128    251.62  12327.25
         Mo        10.208            3.547    674.22  77634.20
         Mo        10.221            3.547    674.22  77634.20
         S          3.858            3.128    251.62  12327.25
         S          3.859            3.128    251.62  12327.25
         S          3.758            3.128    251.62  12327.25
         S          3.859            3.128    251.62  12327.25
         Mo        10.220            3.547    674.22  77634.20
         Mo        10.202            3.547    674.22  77634.20
         S          3.848            3.128    251.62  12327.25
         S          3.856            3.128    251.62  12327.25
         S          3.859            3.128    251.62  12327.25
         S          4.772            3.128    251.62  12327.25
         Mo        10.208            3.547    674.22  77634.20
         Mo        10.221            3.547    674.22  77634.20
         S          3.858            3.128    251.62  12327.25
         S          3.859            3.128    251.62  12327.25
         S          3.758            3.128    251.62  12327.25
         S          3.859            3.128    251.62  12327.25
         Mo        10.219            3.547    674.22  77634.20
         Mo        10.832            3.547    674.22  77634.20
         S          3.857            3.128    251.62  12327.25
         S          3.861            3.128    251.62  12327.25
         S          3.859            3.128    251.62  12327.25
         S          4.748            3.128    251.62  12327.25
         Mo        10.208            3.547    674.22  77634.20
         Mo        10.221            3.547    674.22  77634.20
         S          3.858            3.128    251.62  12327.25
         S          3.859            3.128    251.62  12327.25
         S          3.758            3.128    251.62  12327.25
         S          3.859            3.128    251.62  12327.25
         Mo        10.220            3.547    674.22  77634.20
         Mo        10.254            3.547    674.22  77634.20
         S          3.847            3.128    251.62  12327.25
         S          3.860            3.128    251.62  12327.25
         S          3.859            3.128    251.62  12327.25
         S          3.817            3.128    251.62  12327.25
         Mo        10.208            3.547    674.22  77634.20
         Mo        10.221            3.547    674.22  77634.20
         S          3.858            3.128    251.62  12327.25
         S          3.859            3.128    251.62  12327.25
         S          3.758            3.128    251.62  12327.25
         S          3.859            3.128    251.62  12327.25
         Mo        10.222            3.547    674.22  77634.20
         Mo        10.191            3.547    674.22  77634.20
         S          3.865            3.128    251.62  12327.25
         S          3.856            3.128    251.62  12327.25
         S          3.859            3.128    251.62  12327.25
         S          4.653            3.128    251.62  12327.25
         Mo        10.208            3.547    674.22  77634.20
         Mo        10.221            3.547    674.22  77634.20
         S          3.858            3.128    251.62  12327.25
         S          3.859            3.128    251.62  12327.25
         S          3.758            3.128    251.62  12327.25
         S          3.859            3.128    251.62  12327.25
         Mo        10.222            3.547    674.22  77634.20
         Mo        10.821            3.547    674.22  77634.20
         S          3.865            3.128    251.62  12327.25
         S          3.853            3.128    251.62  12327.25
         S          3.859            3.128    251.62  12327.25
         S          4.670            3.128    251.62  12327.25
         Mo        10.208            3.547    674.22  77634.20
         Mo        10.221            3.547    674.22  77634.20
         S          3.858            3.128    251.62  12327.25
         S          3.859            3.128    251.62  12327.25
         S          3.758            3.128    251.62  12327.25
         S          3.859            3.128    251.62  12327.25
         Mo        10.220            3.547    674.22  77634.20
         Mo        10.202            3.547    674.22  77634.20
         S          3.848            3.128    251.62  12327.25
         S          3.856            3.128    251.62  12327.25
         S          3.859            3.128    251.62  12327.25
         S          4.772            3.128    251.62  12327.25
         Mo        10.208            3.547    674.22  77634.20
         Mo        10.221            3.547    674.22  77634.20
         S          3.858            3.128    251.62  12327.25
         S          3.859            3.128    251.62  12327.25
         S          3.758            3.128    251.62  12327.25
         S          3.859            3.128    251.62  12327.25
         Mo        10.220            3.547    674.22  77634.20
         Mo        10.230            3.547    674.22  77634.20
         S          3.862            3.128    251.62  12327.25
         S          3.860            3.128    251.62  12327.25
         S          3.859            3.128    251.62  12327.25
         S          3.766            3.128    251.62  12327.25
         Mo        10.208            3.547    674.22  77634.20
         Mo        10.221            3.547    674.22  77634.20
         S          3.858            3.128    251.62  12327.25
         S          3.859            3.128    251.62  12327.25
         S          3.758            3.128    251.62  12327.25
         S          3.859            3.128    251.62  12327.25
         Mo        10.221            3.547    674.22  77634.20
         Mo        10.230            3.547    674.22  77634.20
         S          3.855            3.128    251.62  12327.25
         S          3.860            3.128    251.62  12327.25
         S          3.859            3.128    251.62  12327.25
         S          3.756            3.128    251.62  12327.25
         Mo        10.208            3.547    674.22  77634.20
         Mo        10.221            3.547    674.22  77634.20
         S          3.858            3.128    251.62  12327.25
         S          3.859            3.128    251.62  12327.25
         S          3.758            3.128    251.62  12327.25
         S          3.859            3.128    251.62  12327.25
         Mo        10.222            3.547    674.22  77634.20
         Mo        10.191            3.547    674.22  77634.20
         S          3.865            3.128    251.62  12327.25
         S          3.856            3.128    251.62  12327.25
         S          3.859            3.128    251.62  12327.25
         S          4.653            3.128    251.62  12327.25
         Mo        10.208            3.547    674.22  77634.20
         Mo        10.221            3.547    674.22  77634.20
         S          3.858            3.128    251.62  12327.25
         S          3.859            3.128    251.62  12327.25
         S          3.758            3.128    251.62  12327.25
         S          3.859            3.128    251.62  12327.25
         Mo        10.221            3.547    674.22  77634.20
         Mo        10.191            3.547    674.22  77634.20
         S          3.855            3.128    251.62  12327.25
         S          3.856            3.128    251.62  12327.25
         S          3.859            3.128    251.62  12327.25
         S          3.757            3.128    251.62  12327.25
         Mo        10.208            3.547    674.22  77634.20
         Mo        10.221            3.547    674.22  77634.20
         S          3.858            3.128    251.62  12327.25
         S          3.859            3.128    251.62  12327.25
         S          3.758            3.128    251.62  12327.25
         S          3.859            3.128    251.62  12327.25
         Mo        10.220            3.547    674.22  77634.20
         Mo        10.244            3.547    674.22  77634.20
         S          3.862            3.128    251.62  12327.25
         S          3.860            3.128    251.62  12327.25
         S          3.859            3.128    251.62  12327.25
         S          3.765            3.128    251.62  12327.25
         Mo        10.208            3.547    674.22  77634.20
         Mo        10.220            3.547    674.22  77634.20
         S          3.858            3.128    251.62  12327.25
         S          3.859            3.128    251.62  12327.25
         S          3.758            3.128    251.62  12327.25
         S          3.859            3.128    251.62  12327.25
         Mo        10.220            3.547    674.22  77634.20
         Mo        10.230            3.547    674.22  77634.20
         S          3.862            3.128    251.62  12327.25
         S          3.860            3.128    251.62  12327.25
         S          3.859            3.128    251.62  12327.25
         S          3.766            3.128    251.62  12327.25
         Mo        10.208            3.547    674.22  77634.20
         Mo        10.221            3.547    674.22  77634.20
         S          3.858            3.128    251.62  12327.25
         S          3.859            3.128    251.62  12327.25
         S          3.758            3.128    251.62  12327.25
         S          3.859            3.128    251.62  12327.25
         Mo        10.220            3.547    674.22  77634.20
         Mo        10.254            3.547    674.22  77634.20
         S          3.847            3.128    251.62  12327.25
         S          3.860            3.128    251.62  12327.25
         S          3.859            3.128    251.62  12327.25
         S          3.817            3.128    251.62  12327.25
         Mo        10.208            3.547    674.22  77634.20
         Mo        10.221            3.547    674.22  77634.20
         S          3.858            3.128    251.62  12327.25
         S          3.859            3.128    251.62  12327.25
         S          3.758            3.128    251.62  12327.25
         S          3.859            3.128    251.62  12327.25
         Mo        10.220            3.547    674.22  77634.20
         Mo        10.244            3.547    674.22  77634.20
         S          3.847            3.128    251.62  12327.25
         S          3.861            3.128    251.62  12327.25
         S          3.859            3.128    251.62  12327.25
         S          3.806            3.128    251.62  12327.25
         Pd         3.767            3.168    558.46  51168.38
         Pt         3.626            3.168    692.72  72035.25

         Molecular C6 ( Ry / a.u.^6 ) =  13983844.85


     number of k points=     4  Gaussian smearing, width (Ry)=  0.0100
                       cart. coord. in units 2pi/alat
        k(    1) = (   0.0000000   0.0000000   0.0000000), wk =   0.5000000
        k(    2) = (   0.0000000  -0.5773499   0.0000000), wk =   0.5000000
        k(    3) = (  -0.5000000  -0.2886744   0.0000000), wk =   0.5000000
        k(    4) = (  -0.5000000  -0.8660242   0.0000000), wk =   0.5000000

     Dense  grid:  7154885 G-vectors     FFT dimensions: ( 180, 180, 512)

     Smooth grid:  3090769 G-vectors     FFT dimensions: ( 135, 135, 400)

     Estimated max dynamical RAM per process >       4.31 GB

     Estimated total dynamical RAM >     155.10 GB

     Initial potential from superposition of free atoms

     starting charge    1713.9389, renormalised to    1714.0000

     negative rho (up, down):  8.708E-04 0.000E+00
     Starting wfcs are 1179 randomized atomic wfcs
     Checking if some PAW data can be deallocated... 

     total cpu time spent up to now is      180.6 secs

     Self-consistent Calculation

     iteration #  1     ecut=    77.00 Ry     beta= 0.20
     Davidson diagonalization with overlap
     ethr =  1.00E-02,  avg # of iterations =  2.0

     Threshold (ethr) on eigenvalues was too large:
     Diagonalizing with lowered threshold

     Davidson diagonalization with overlap
     ethr =  1.64E-04,  avg # of iterations = 17.2

     negative rho (up, down):  2.350E-04 0.000E+00

     total cpu time spent up to now is     2229.0 secs

     total energy              =  -33980.24002568 Ry
     estimated scf accuracy    <       6.48845602 Ry

     iteration #  2     ecut=    77.00 Ry     beta= 0.20
     Davidson diagonalization with overlap
     ethr =  3.79E-04,  avg # of iterations =  2.0

     negative rho (up, down):  2.420E-05 0.000E+00

     total cpu time spent up to now is     2636.8 secs

     total energy              =  -33978.88704506 Ry
     estimated scf accuracy    <       3.40189315 Ry

     iteration #  3     ecut=    77.00 Ry     beta= 0.20
     Davidson diagonalization with overlap
     ethr =  1.98E-04,  avg # of iterations = 13.0

     negative rho (up, down):  1.561E-05 0.000E+00

     total cpu time spent up to now is     3169.4 secs

     total energy              =  -33979.29841887 Ry
     estimated scf accuracy    <       0.83150916 Ry

     iteration #  4     ecut=    77.00 Ry     beta= 0.20
     Davidson diagonalization with overlap
     c_bands:  1 eigenvalues not converged
     c_bands:  1 eigenvalues not converged
     c_bands:  2 eigenvalues not converged
     ethr =  4.85E-05,  avg # of iterations = 20.0

     negative rho (up, down):  1.917E-05 0.000E+00

     total cpu time spent up to now is     4426.3 secs

     total energy              =  -33980.09215380 Ry
     estimated scf accuracy    <       0.37962034 Ry

     iteration #  5     ecut=    77.00 Ry     beta= 0.20
     Davidson diagonalization with overlap
     ethr =  2.21E-05,  avg # of iterations = 11.8

     negative rho (up, down):  4.692E-05 0.000E+00

     total cpu time spent up to now is     5033.6 secs

     total energy              =  -33980.16333092 Ry
     estimated scf accuracy    <       0.20584221 Ry

     iteration #  6     ecut=    77.00 Ry     beta= 0.20
     Davidson diagonalization with overlap
     c_bands:  2 eigenvalues not converged
     ethr =  1.20E-05,  avg # of iterations = 18.8

     negative rho (up, down):  2.479E-04 0.000E+00

     total cpu time spent up to now is     5611.6 secs

     total energy              =  -33980.15700479 Ry
     estimated scf accuracy    <       0.12094642 Ry

     iteration #  7     ecut=    77.00 Ry     beta= 0.20
     Davidson diagonalization with overlap
     c_bands:  1 eigenvalues not converged
     c_bands:  2 eigenvalues not converged
     c_bands:  5 eigenvalues not converged
     ethr =  7.06E-06,  avg # of iterations = 33.2

     negative rho (up, down):  5.514E-04 0.000E+00

     total cpu time spent up to now is     6729.4 secs

     total energy              =  -33980.23716758 Ry
     estimated scf accuracy    <       0.06890222 Ry

     iteration #  8     ecut=    77.00 Ry     beta= 0.20
     Davidson diagonalization with overlap
     c_bands:  5 eigenvalues not converged
     c_bands:  2 eigenvalues not converged
     c_bands:  4 eigenvalues not converged
     ethr =  4.02E-06,  avg # of iterations = 35.5

     negative rho (up, down):  4.470E-04 0.000E+00

     total cpu time spent up to now is     7702.7 secs

     total energy              =  -33980.23359426 Ry
     estimated scf accuracy    <       0.03481695 Ry

     iteration #  9     ecut=    77.00 Ry     beta= 0.20
     Davidson diagonalization with overlap
     c_bands:  3 eigenvalues not converged
     c_bands:  4 eigenvalues not converged
     c_bands:  5 eigenvalues not converged
     ethr =  2.03E-06,  avg # of iterations = 50.5

     negative rho (up, down):  4.270E-04 0.000E+00

     total cpu time spent up to now is     9148.1 secs

     total energy              =  -33980.24833938 Ry
     estimated scf accuracy    <       0.00350298 Ry

     iteration # 10     ecut=    77.00 Ry     beta= 0.20
     Davidson diagonalization with overlap
     c_bands:  2 eigenvalues not converged
     c_bands:  4 eigenvalues not converged
     c_bands:  2 eigenvalues not converged
     ethr =  2.04E-07,  avg # of iterations = 20.5

     negative rho (up, down):  4.815E-04 0.000E+00

     total cpu time spent up to now is    10865.3 secs

     total energy              =  -33980.25620168 Ry
     estimated scf accuracy    <       0.00408872 Ry

     iteration # 11     ecut=    77.00 Ry     beta= 0.20
     Davidson diagonalization with overlap
     c_bands:  3 eigenvalues not converged
     c_bands:  2 eigenvalues not converged
     ethr =  2.04E-07,  avg # of iterations = 29.0

     negative rho (up, down):  7.643E-04 0.000E+00

     total cpu time spent up to now is    11618.6 secs

     total energy              =  -33980.25579036 Ry
     estimated scf accuracy    <       0.00177144 Ry

     iteration # 12     ecut=    77.00 Ry     beta= 0.20
     Davidson diagonalization with overlap
     ethr =  1.03E-07,  avg # of iterations = 14.2

     negative rho (up, down):  8.160E-04 0.000E+00

     total cpu time spent up to now is    12872.7 secs

     total energy              =  -33980.25617753 Ry
     estimated scf accuracy    <       0.00857679 Ry

     iteration # 13     ecut=    77.00 Ry     beta= 0.20
     Davidson diagonalization with overlap
     ethr =  1.03E-07,  avg # of iterations =  9.0

     negative rho (up, down):  7.623E-04 0.000E+00

     total cpu time spent up to now is    13413.3 secs

     total energy              =  -33980.25537538 Ry
     estimated scf accuracy    <       0.00234560 Ry

     iteration # 14     ecut=    77.00 Ry     beta= 0.20
     Davidson diagonalization with overlap
     ethr =  1.03E-07,  avg # of iterations =  6.5

     negative rho (up, down):  8.029E-04 0.000E+00

     total cpu time spent up to now is    14133.1 secs

     total energy              =  -33980.25661425 Ry
     estimated scf accuracy    <       0.00012014 Ry

     iteration # 15     ecut=    77.00 Ry     beta= 0.20
     Davidson diagonalization with overlap
     c_bands:  1 eigenvalues not converged
     c_bands:  1 eigenvalues not converged
     c_bands:  2 eigenvalues not converged
     c_bands:  1 eigenvalues not converged
     ethr =  7.01E-09,  avg # of iterations = 25.0

     negative rho (up, down):  8.141E-04 0.000E+00

     total cpu time spent up to now is    15758.1 secs

     total energy              =  -33980.25685227 Ry
     estimated scf accuracy    <       0.00023962 Ry

     iteration # 16     ecut=    77.00 Ry     beta= 0.20
     Davidson diagonalization with overlap
     c_bands:  1 eigenvalues not converged
     ethr =  7.01E-09,  avg # of iterations =  8.2

     negative rho (up, down):  8.460E-04 0.000E+00

     total cpu time spent up to now is    16212.3 secs

     total energy              =  -33980.25680294 Ry
     estimated scf accuracy    <       0.00007500 Ry

     iteration # 17     ecut=    77.00 Ry     beta= 0.20
     Davidson diagonalization with overlap
     c_bands:  1 eigenvalues not converged
     ethr =  4.38E-09,  avg # of iterations = 15.8

     negative rho (up, down):  8.661E-04 0.000E+00

     total cpu time spent up to now is    17084.0 secs

     total energy              =  -33980.25685270 Ry
     estimated scf accuracy    <       0.00006196 Ry

     iteration # 18     ecut=    77.00 Ry     beta= 0.20
     Davidson diagonalization with overlap
     c_bands:  2 eigenvalues not converged
     ethr =  3.62E-09,  avg # of iterations =  8.2

     negative rho (up, down):  8.687E-04 0.000E+00

     total cpu time spent up to now is    17511.3 secs

     total energy              =  -33980.25684969 Ry
     estimated scf accuracy    <       0.00001458 Ry

     iteration # 19     ecut=    77.00 Ry     beta= 0.20
     Davidson diagonalization with overlap
     c_bands:  2 eigenvalues not converged
     c_bands:  5 eigenvalues not converged
     ethr =  8.51E-10,  avg # of iterations = 16.0

     negative rho (up, down):  8.703E-04 0.000E+00

     total cpu time spent up to now is    18238.3 secs

     total energy              =  -33980.25685476 Ry
     estimated scf accuracy    <       0.00000349 Ry

     iteration # 20     ecut=    77.00 Ry     beta= 0.20
     Davidson diagonalization with overlap
     c_bands:  3 eigenvalues not converged
     ethr =  2.04E-10,  avg # of iterations = 18.0

     negative rho (up, down):  8.723E-04 0.000E+00

     total cpu time spent up to now is    19524.1 secs

     total energy              =  -33980.25685874 Ry
     estimated scf accuracy    <       0.00000419 Ry

     iteration # 21     ecut=    77.00 Ry     beta= 0.20
     Davidson diagonalization with overlap
     ethr =  2.04E-10,  avg # of iterations =  7.0

     negative rho (up, down):  8.791E-04 0.000E+00

     total cpu time spent up to now is    20015.8 secs

     End of self-consistent calculation

          k = 0.0000 0.0000 0.0000 (386245 PWs)   bands (ev):

  -102.2317 -88.7203 -70.5465 -70.5440 -70.5438 -70.5434 -70.5148 -70.5148
   -70.4987 -66.5842 -66.5842 -66.5829 -66.5808 -66.5716 -66.5631 -66.5630
   -66.5630 -66.5630 -66.5630 -66.5629 -66.5629 -66.5629 -66.5629 -66.5628
   -66.5628 -66.5625 -66.5616 -66.5616 -66.5616 -66.5616 -66.5616 -66.5616
   -66.5590 -66.5513 -66.5495 -66.5428 -66.5419 -66.5417 -66.5416 -66.5416
   -66.5416 -66.5416 -66.5416 -66.5416 -66.5415 -66.5415 -66.5415 -66.5415
   -66.5415 -66.5415 -66.5413 -66.5412 -66.5412 -66.5411 -66.5404 -66.5402
   -66.5402 -66.5402 -66.5402 -66.5402 -66.5402 -66.5402 -66.5402 -66.5402
   -66.5351 -66.5305 -66.5299 -66.5218 -66.5212 -66.5158 -66.5142 -66.5033
   -66.4969 -56.4833 -56.4671 -56.4608 -54.5439 -54.5218 -54.5008 -40.9116
   -40.9116 -40.9116 -40.9116 -40.9116 -40.9115 -40.9110 -40.9110 -40.9110
   -40.8961 -40.8936 -40.8885 -40.8364 -40.8363 -40.8363 -40.8363 -40.8363
   -40.8363 -40.8363 -40.8363 -40.8362 -40.8362 -40.8362 -40.8360 -40.8356
   -40.8356 -40.8356 -40.8356 -40.8356 -40.8356 -40.8235 -40.8182 -40.8159
   -40.8156 -40.8104 -40.8079 -40.7674 -40.7439 -40.7438 -40.7433 -40.7355
   -40.7152 -40.7101 -40.7100 -40.7100 -40.7100 -40.7100 -40.7100 -40.7099
   -40.7099 -40.7099 -40.7099 -40.7098 -40.7097 -40.7091 -40.7091 -40.7091
   -40.7091 -40.7091 -40.7091 -40.7024 -40.7023 -40.7022 -40.7022 -40.7022
   -40.7022 -40.7022 -40.7022 -40.7021 -40.7021 -40.7021 -40.7020 -40.7019
   -40.7015 -40.7015 -40.7015 -40.7015 -40.7015 -40.7015 -40.6980 -40.6964
   -40.6950 -40.6944 -40.6928 -40.6923 -40.6896 -40.6839 -40.6783 -40.6750
   -40.6750 -40.6749 -40.6749 -40.6749 -40.6749 -40.6749 -40.6749 -40.6749
   -40.6748 -40.6748 -40.6747 -40.6740 -40.6740 -40.6740 -40.6740 -40.6740
   -40.6740 -40.6701 -40.6650 -40.6625 -40.6610 -40.6606 -40.6604 -40.6603
   -40.6603 -40.6603 -40.6603 -40.6603 -40.6603 -40.6603 -40.6602 -40.6602
   -40.6602 -40.6602 -40.6602 -40.6601 -40.6600 -40.6598 -40.6598 -40.6595
   -40.6595 -40.6595 -40.6595 -40.6595 -40.6595 -40.6595 -40.6595 -40.6595
   -40.6593 -40.6576 -40.6571 -40.6545 -40.6524 -40.6498 -40.6473 -40.6469
   -40.6440 -40.6419 -40.6365 -40.5966 -40.5966 -40.5966 -40.5966 -40.5965
   -40.5964 -40.5956 -40.5956 -40.5956 -40.5776 -40.5774 -40.5731 -40.5496
   -40.5495 -40.5495 -40.5495 -40.5495 -40.5495 -40.5495 -40.5495 -40.5495
   -40.5493 -40.5492 -40.5491 -40.5485 -40.5485 -40.5485 -40.5485 -40.5485
   -40.5484 -40.5331 -40.5297 -40.5294 -40.5271 -40.5251 -40.5151 -40.5019
   -40.5019 -40.5018 -40.5018 -40.5008 -40.5008 -40.4782 -40.4758 -20.1120
   -20.0494 -19.9488 -19.8462 -19.4146 -19.2592 -19.2291 -19.2175 -19.2169
   -19.2074 -19.1960 -19.1883 -19.1790 -19.1688 -19.1680 -19.1452 -19.1074
   -19.0980 -19.0917 -19.0852 -19.0839 -19.0615 -19.0036 -18.9991 -18.9972
   -18.9947 -18.9946 -18.9854 -18.8676 -18.7505 -18.5932 -18.5387 -18.5203
   -18.5200 -18.4745 -18.4641 -18.4430 -18.4326 -18.3902 -18.3880 -18.3809
   -18.3702 -18.3699 -18.3439 -18.3058 -18.2680 -18.2525 -18.2482 -18.2442
   -18.2311 -18.2058 -18.1782 -18.1597 -18.1578 -18.1442 -18.1412 -18.1328
   -18.1265 -18.1191 -18.1191 -18.0821 -18.0813 -18.0799 -18.0792 -18.0785
   -18.0779 -18.0517 -18.0475 -18.0446 -18.0431 -18.0425 -18.0373 -18.0368
   -18.0355 -18.0353 -18.0139 -18.0115 -18.0083 -18.0081 -18.0001 -17.9938
   -17.9918 -17.9896 -17.9789 -17.9701 -17.9683 -17.9645 -17.9631 -17.9546
   -17.9475 -17.9468 -17.9439 -17.9113 -17.9076 -17.9068 -17.9033 -17.8834
   -17.8816 -17.8758 -17.8749 -17.8718 -17.8554 -17.8533 -17.8490 -17.8421
   -17.8367 -17.8327 -17.8278 -17.8250 -17.8198 -17.8171 -17.8161 -17.8152
   -17.8011 -17.8006 -17.7997 -17.7904 -17.7882 -17.7856 -17.7809 -17.7804
   -17.7765 -17.7572 -17.7567 -17.7564 -17.7544 -17.7541 -17.7525 -12.0447
   -11.9220 -11.8749 -11.8207 -11.7688 -11.7514 -11.7399 -11.7220 -11.6392
   -11.6289 -11.6212 -11.5329 -11.5146 -11.5117 -11.4837 -11.3431 -11.2706
   -11.2315 -11.2103 -11.2017 -11.1998 -11.1930 -11.1686 -11.1550 -11.1458
   -11.1092 -11.0974 -11.0927 -11.0891 -11.0871 -11.0837 -11.0710 -11.0692
   -11.0461 -11.0346 -11.0341 -11.0244 -11.0227 -11.0183 -11.0167 -11.0039
   -10.9898 -10.9885 -10.9825 -10.9790 -10.9487 -10.9208 -10.9150 -10.9103
   -10.9101 -10.8994 -10.8792 -10.8715 -10.8585 -10.8568 -10.8498 -10.8481
   -10.8373 -10.8275 -10.8132 -10.8110 -10.8107 -10.8021 -10.7978 -10.7954
   -10.7907 -10.7901 -10.7869 -10.7856 -10.7818 -10.7707 -10.7692 -10.7686
   -10.7644 -10.7628 -10.7600 -10.7378 -10.7366 -10.7355 -10.7344 -10.7316
   -10.7294 -10.7223 -10.7185 -10.7079 -10.6976 -10.6973 -10.6969 -10.6959
   -10.6940 -10.6911 -10.6195 -10.6188 -10.6151 -10.5686 -10.5596 -10.5492
   -10.5441 -10.5421 -10.5382 -10.3439 -10.3281 -10.2509 -10.2150 -10.1443
   -10.0818 -10.0763  -9.9787  -9.9005  -9.8653  -9.8351  -9.7997  -9.7819
    -9.7723  -9.7699  -9.7609  -9.7582  -9.7397  -9.7374  -9.7306  -9.7304
    -9.7288  -9.7275  -9.7255  -9.7173  -9.7156  -9.7128  -9.7084  -9.7062
    -9.7020  -9.6829  -9.6596  -9.6589  -9.6182  -9.6003  -9.5947  -9.5905
    -9.5876  -9.5844  -9.5821  -9.5790  -9.5779  -9.5767  -9.5755  -9.5748
    -9.5722  -9.5625  -9.5477  -9.5291  -9.5063  -9.5041  -9.5014  -9.5014
    -9.5014  -9.5006  -9.5001  -9.4941  -9.4855  -9.4855  -9.4809  -9.4625
    -9.4615  -9.4581  -9.4461  -9.4150  -9.4042  -9.3332  -9.3305  -9.3283
    -9.3153  -9.3078  -9.2980  -9.2975  -9.2950  -9.2883  -9.2878  -9.2712
    -9.2609  -9.2177  -9.2020  -9.2014  -9.2008  -9.1949  -9.1886  -9.1528
    -9.1446  -9.1442  -9.1427  -9.1422  -9.1404  -9.1264  -9.1199  -9.1010
    -9.0936  -9.0810  -9.0692  -9.0529  -9.0288  -9.0180  -9.0056  -8.9574
    -8.9486  -8.9438  -8.9403  -8.9396  -8.9378  -8.9115  -8.9109  -8.9068
    -8.8984  -8.8843  -8.8773  -8.8769  -8.8757  -8.8683  -8.8566  -8.8553
    -8.8520  -8.8312  -8.8272  -8.7813  -8.7812  -8.7811  -8.7807  -8.7806
    -8.7799  -8.7166  -8.7150  -8.7069  -8.6996  -8.6992  -8.6903  -8.6321
    -8.6309  -8.6214  -8.6201  -8.6175  -8.6069  -8.5561  -8.5555  -8.5513
    -8.5510  -8.5500  -8.5471  -8.5412  -8.4756  -8.4476  -8.4224  -8.3652
    -8.3264  -8.3264  -8.3214  -8.3213  -8.3149  -8.3148  -8.2877  -8.2635
    -8.2525  -8.2413  -8.2367  -8.2360  -8.2354  -8.2340  -8.2320  -8.2320
    -8.2251  -8.2098  -8.2097  -8.2084  -8.2067  -8.2049  -8.2008  -8.1821
    -8.1813  -8.1805  -8.1800  -8.1793  -8.1780  -8.1724  -8.0927  -8.0756
    -7.9983  -7.9927  -7.8594  -7.8188  -7.8155  -7.8154  -7.7372  -7.7242
    -7.7233  -7.6582  -7.6358  -7.6353  -7.6014  -7.6014  -7.5954  -7.5903
    -7.5783  -7.5698  -7.5673  -7.5647  -7.5616  -7.5316  -7.5226  -7.5170
    -7.5164  -7.5124  -7.5029  -7.4974  -7.4956  -7.4934  -7.4918  -7.4918
    -7.4904  -7.4865  -7.4785  -7.4668  -7.4660  -7.4650  -7.4646  -7.4634
    -7.4566  -7.4431  -7.4424  -7.4423  -7.4415  -7.4412  -7.4388  -7.4352
    -7.4332  -7.4292  -7.4055  -7.3874  -7.3812  -7.3767  -7.3747  -7.3680
    -7.3657  -7.3604  -7.3379  -7.3084  -7.3003  -7.2929  -7.2917  -7.2727
    -7.2576  -7.2560  -7.2516  -7.2497  -7.2494  -7.2458  -7.2325  -7.2306
    -7.2097  -7.2095  -7.1912  -7.1909  -7.1734  -7.1733  -7.1661  -7.1329
    -7.0896  -7.0840  -7.0732  -7.0698  -7.0237  -6.9829  -6.9457  -6.9073
    -6.8864  -6.8482  -6.8404  -6.8372  -6.8239  -6.8052  -6.7579  -6.7437
    -6.7395  -6.7393  -6.7287  -6.6989  -6.6665  -6.6629  -6.6546  -6.6494
    -6.6332  -6.6123  -6.5897  -6.5876  -6.5869  -6.5797  -6.5680  -6.5594
    -6.5576  -6.5396  -6.5316  -6.5174  -6.5169  -6.5090  -6.4977  -6.4884
    -6.4755  -6.4741  -6.4732  -6.4692  -6.4688  -6.4681  -6.4662  -6.4646
    -6.4574  -6.4573  -6.4571  -6.4569  -6.4567  -6.4562  -6.4509  -6.4242
    -6.4195  -6.4030  -6.3904  -6.3836  -6.3692  -6.3675  -6.3658  -6.3288
    -6.2994  -6.2929  -6.2925  -6.2923  -6.2920  -6.2890  -6.2739  -6.2567
    -6.2560  -6.2535  -6.2529  -6.2489  -6.2398  -6.2263  -6.2223  -6.2154
    -6.2142  -6.2135  -6.2100  -6.2093  -6.2068  -6.1809  -6.1379  -6.1010
    -5.8875  -5.7383  -5.6950  -5.6741  -5.5302  -5.4136  -5.3957  -5.2700
    -5.1098  -4.3601  -3.8670  -3.8162  -3.8132  -3.8071  -3.8044  -3.7955
    -3.7887  -3.7855  -3.7817  -3.7810  -3.7799  -3.7636  -3.7243  -3.6723
    -3.6642  -3.6509  -3.6495  -3.6401  -3.6380  -3.6350  -3.6325  -3.6276
    -3.6271  -3.5411  -3.5032  -3.4770  -3.4627  -3.4599  -3.4596  -3.4568
    -3.4476  -3.4403  -3.4343  -3.4306  -3.4304  -3.4277  -3.4275  -3.4163
    -3.4095  -3.4052  -3.4025  -3.4017  -3.4014  -3.4013  -3.3887  -3.3866
    -3.3862  -3.3846  -3.3794  -3.3705  -3.3690  -3.3683  -3.3658  -3.3621
    -3.3584  -3.3565  -3.3546  -3.3507  -3.3491  -3.3150  -3.3130  -3.3066
    -3.3066  -3.3024  -3.3014  -3.2991  -3.2968  -3.2876  -3.2802  -3.2759
    -3.2686  -3.2517  -3.2453  -3.2436  -3.2387  -3.2342  -3.2265  -3.2160
    -3.2134  -3.1719  -3.1653  -3.1588  -3.1556  -3.0366  -3.0249  -3.0245
    -3.0195  -3.0182  -3.0173  -3.0080  -3.0039  -3.0002  -2.9966  -2.9718
    -2.9480  -2.9460  -2.9326  -2.9314  -2.9307  -2.9302  -2.9295  -2.9246
    -2.9225  -2.9223  -2.9222  -2.9161  -2.9148  -2.9132  -2.9109  -2.9081
    -2.8970  -2.8943  -2.8941  -2.8889  -2.8885  -2.8859  -2.8854  -2.8850
    -2.8839  -2.8807  -2.8773  -2.8483  -2.8402  -2.8373  -2.8338  -2.8314
    -2.8162  -2.8066  -2.7976  -2.7721  -2.7655  -2.7629  -2.7628  -2.7616
    -2.7614  -2.7610  -2.7606  -2.7605  -2.7600  -2.7468  -2.7446  -2.7413
    -2.7198  -2.7006  -2.6987  -2.6982  -2.6883  -2.6838  -2.6797  -2.6283
    -2.6260  -2.5961  -2.5952  -2.5864  -2.5846  -2.5783  -2.5769  -2.5766
    -2.5740  -2.5518  -2.5345  -2.5109  -2.5104  -2.5037  -2.4995  -2.3899
    -2.3795  -2.3704  -2.3699  -2.3666

          k = 0.0000-0.5773 0.0000 (386352 PWs)   bands (ev):

  -102.2317 -88.7203 -70.5466 -70.5440 -70.5438 -70.5434 -70.5148 -70.5148
   -70.4987 -66.5800 -66.5780 -66.5780 -66.5780 -66.5778 -66.5767 -66.5767
   -66.5722 -66.5674 -66.5674 -66.5673 -66.5672 -66.5660 -66.5660 -66.5608
   -66.5523 -66.5523 -66.5523 -66.5523 -66.5523 -66.5521 -66.5521 -66.5521
   -66.5519 -66.5509 -66.5509 -66.5509 -66.5509 -66.5488 -66.5479 -66.5478
   -66.5478 -66.5476 -66.5465 -66.5465 -66.5417 -66.5416 -66.5416 -66.5415
   -66.5415 -66.5415 -66.5414 -66.5413 -66.5413 -66.5402 -66.5402 -66.5402
   -66.5402 -66.5400 -66.5371 -66.5371 -66.5370 -66.5370 -66.5358 -66.5358
   -66.5345 -66.5322 -66.5273 -66.5238 -66.5219 -66.5156 -66.5139 -66.5034
   -66.4968 -56.4833 -56.4671 -56.4608 -54.5439 -54.5218 -54.5008 -40.8801
   -40.8800 -40.8800 -40.8800 -40.8800 -40.8800 -40.8798 -40.8798 -40.8793
   -40.8793 -40.8793 -40.8793 -40.8730 -40.8669 -40.8532 -40.8532 -40.8532
   -40.8530 -40.8526 -40.8525 -40.8525 -40.8487 -40.8433 -40.8411 -40.8411
   -40.8411 -40.8410 -40.8404 -40.8404 -40.8308 -40.8179 -40.8150 -40.7904
   -40.7904 -40.7904 -40.7904 -40.7904 -40.7904 -40.7903 -40.7903 -40.7897
   -40.7897 -40.7897 -40.7897 -40.7726 -40.7712 -40.7696 -40.7667 -40.7623
   -40.7318 -40.7317 -40.7317 -40.7316 -40.7315 -40.7311 -40.7311 -40.7248
   -40.7222 -40.7222 -40.7221 -40.7221 -40.7213 -40.7213 -40.7109 -40.7109
   -40.7108 -40.7108 -40.7102 -40.7102 -40.7092 -40.7043 -40.6974 -40.6939
   -40.6876 -40.6813 -40.6813 -40.6813 -40.6813 -40.6812 -40.6812 -40.6811
   -40.6811 -40.6806 -40.6806 -40.6806 -40.6805 -40.6763 -40.6740 -40.6726
   -40.6725 -40.6725 -40.6723 -40.6718 -40.6718 -40.6674 -40.6640 -40.6607
   -40.6607 -40.6606 -40.6606 -40.6604 -40.6603 -40.6603 -40.6602 -40.6602
   -40.6602 -40.6602 -40.6600 -40.6599 -40.6598 -40.6598 -40.6595 -40.6595
   -40.6595 -40.6595 -40.6555 -40.6518 -40.6516 -40.6515 -40.6515 -40.6515
   -40.6508 -40.6508 -40.6502 -40.6455 -40.6433 -40.6362 -40.6353 -40.6299
   -40.6297 -40.6297 -40.6297 -40.6297 -40.6297 -40.6296 -40.6294 -40.6288
   -40.6288 -40.6288 -40.6288 -40.6170 -40.6125 -40.6087 -40.6007 -40.5950
   -40.5950 -40.5950 -40.5950 -40.5950 -40.5949 -40.5949 -40.5949 -40.5940
   -40.5940 -40.5940 -40.5940 -40.5829 -40.5828 -40.5828 -40.5827 -40.5819
   -40.5818 -40.5785 -40.5750 -40.5719 -40.5705 -40.5646 -40.5636 -40.5635
   -40.5635 -40.5633 -40.5625 -40.5625 -40.5517 -40.5465 -40.5465 -40.5465
   -40.5464 -40.5455 -40.5455 -40.5441 -40.5405 -40.5235 -40.5172 -40.5159
   -40.5159 -40.5159 -40.5157 -40.5148 -40.5148 -40.4984 -40.4845 -19.9324
   -19.8468 -19.8233 -19.7867 -19.7229 -19.6964 -19.6156 -19.6064 -19.4486
   -19.4184 -19.3829 -19.3677 -19.2896 -19.2788 -19.1883 -19.1843 -18.8669
   -18.8065 -18.7834 -18.7433 -18.7221 -18.7000 -18.6807 -18.6796 -18.6779
   -18.6645 -18.6529 -18.6347 -18.6089 -18.6063 -18.6043 -18.5917 -18.5535
   -18.5353 -18.5250 -18.5132 -18.5096 -18.5059 -18.5036 -18.4812 -18.4671
   -18.4391 -18.4357 -18.4308 -18.4252 -18.3987 -18.3708 -18.3673 -18.3620
   -18.3399 -18.3211 -18.3145 -18.3002 -18.2882 -18.2792 -18.2526 -18.2254
   -18.2102 -18.2072 -18.1910 -18.1720 -18.1540 -18.1395 -18.1320 -18.1042
   -18.0925 -18.0797 -18.0726 -18.0613 -18.0601 -18.0580 -18.0571 -18.0439
   -18.0340 -18.0301 -18.0280 -18.0258 -18.0234 -18.0190 -18.0166 -18.0065
   -18.0021 -17.9966 -17.9876 -17.9692 -17.9676 -17.9634 -17.9617 -17.9582
   -17.9576 -17.9525 -17.9462 -17.9437 -17.9394 -17.9073 -17.9023 -17.8962
   -17.8939 -17.8847 -17.8767 -17.8515 -17.8474 -17.8446 -17.8321 -17.8263
   -17.8067 -17.8052 -17.7988 -17.7952 -17.7822 -17.7787 -17.7783 -17.7778
   -17.7767 -17.7751 -17.7735 -17.7637 -17.7611 -17.7438 -17.7406 -17.7195
   -17.7171 -17.7002 -17.6967 -17.6859 -17.6832 -17.6785 -17.6780 -11.9513
   -11.6936 -11.6786 -11.6628 -11.5740 -11.4960 -11.4801 -11.4722 -11.4715
   -11.4550 -11.4513 -11.4389 -11.4220 -11.4146 -11.4075 -11.3877 -11.3516
   -11.3495 -11.3342 -11.3214 -11.3096 -11.2933 -11.2865 -11.2796 -11.2682
   -11.2381 -11.2318 -11.2296 -11.2201 -11.2173 -11.2131 -11.2124 -11.1882
   -11.1667 -11.1641 -11.1617 -11.1508 -11.1377 -11.1322 -11.1279 -11.1250
   -11.1205 -11.1068 -11.1048 -11.0899 -11.0815 -11.0568 -11.0350 -11.0191
   -11.0185 -10.9849 -10.9342 -10.9187 -10.9072 -10.9023 -10.8865 -10.8767
   -10.8689 -10.8529 -10.8457 -10.8259 -10.8146 -10.8066 -10.7943 -10.7919
   -10.7876 -10.7832 -10.7802 -10.7699 -10.7697 -10.7691 -10.7672 -10.7586
   -10.7548 -10.7534 -10.7526 -10.7503 -10.7490 -10.7422 -10.7407 -10.7392
   -10.7372 -10.7023 -10.7020 -10.7018 -10.7013 -10.5762 -10.5091 -10.5041
   -10.4958 -10.4820 -10.4455 -10.4212 -10.4004 -10.3589 -10.3363 -10.3246
   -10.2703 -10.2088 -10.2025 -10.1454 -10.1147 -10.0959 -10.0881 -10.0754
   -10.0680 -10.0542 -10.0460 -10.0166 -10.0100  -9.9993  -9.9906  -9.9900
    -9.9859  -9.9711  -9.9674  -9.9610  -9.9414  -9.9056  -9.8890  -9.8865
    -9.8748  -9.8664  -9.8597  -9.8523  -9.8447  -9.8258  -9.8174  -9.7997
    -9.7863  -9.7792  -9.7685  -9.7409  -9.7364  -9.7267  -9.7199  -9.7011
    -9.6905  -9.6752  -9.6538  -9.6476  -9.6422  -9.6165  -9.6106  -9.5870
    -9.5775  -9.5697  -9.5639  -9.5375  -9.5302  -9.5165  -9.5152  -9.4989
    -9.4983  -9.4850  -9.4762  -9.4484  -9.4480  -9.4425  -9.4322  -9.4291
    -9.4231  -9.4174  -9.4149  -9.4103  -9.4044  -9.3864  -9.3840  -9.3363
    -9.3169  -9.2951  -9.2738  -9.2502  -9.2186  -9.1943  -9.1820  -9.1753
    -9.1667  -9.1641  -9.1530  -9.1433  -9.1336  -9.1100  -9.0989  -9.0912
    -9.0732  -9.0492  -9.0432  -9.0411  -9.0337  -9.0173  -9.0099  -9.0016
    -8.9935  -8.9884  -8.9810  -8.9535  -8.9444  -8.9281  -8.9248  -8.9181
    -8.9024  -8.9014  -8.8982  -8.8851  -8.8657  -8.8567  -8.8524  -8.8469
    -8.8448  -8.8443  -8.8385  -8.8337  -8.8298  -8.8280  -8.8259  -8.8252
    -8.8162  -8.8131  -8.8004  -8.7991  -8.7987  -8.7970  -8.7906  -8.7861
    -8.7614  -8.7528  -8.7508  -8.7475  -8.7442  -8.7415  -8.7396  -8.7225
    -8.7181  -8.6927  -8.6918  -8.6885  -8.6833  -8.6720  -8.6642  -8.6337
    -8.6262  -8.6150  -8.6064  -8.5645  -8.5110  -8.4637  -8.4604  -8.4219
    -8.4084  -8.3805  -8.3665  -8.3197  -8.3075  -8.2931  -8.2753  -8.2327
    -8.1700  -8.1353  -8.0870  -8.0866  -8.0800  -8.0780  -8.0713  -8.0673
    -8.0646  -8.0608  -8.0267  -8.0168  -7.9677  -7.9551  -7.9278  -7.9234
    -7.8878  -7.8366  -7.8260  -7.8018  -7.7985  -7.7945  -7.7874  -7.7843
    -7.7772  -7.7712  -7.7677  -7.7663  -7.7599  -7.7584  -7.7547  -7.7514
    -7.7451  -7.7436  -7.7408  -7.7404  -7.7375  -7.7310  -7.7288  -7.7254
    -7.7251  -7.7229  -7.7218  -7.7195  -7.7174  -7.7160  -7.7104  -7.7090
    -7.6923  -7.6894  -7.6886  -7.6846  -7.6814  -7.6563  -7.6557  -7.6544
    -7.6542  -7.6434  -7.6267  -7.6249  -7.6246  -7.6232  -7.6161  -7.6074
    -7.6052  -7.5861  -7.5748  -7.5676  -7.5665  -7.5608  -7.5570  -7.5545
    -7.5513  -7.5436  -7.5418  -7.5257  -7.5228  -7.5210  -7.5162  -7.5084
    -7.4998  -7.4927  -7.4457  -7.4205  -7.4179  -7.4159  -7.4118  -7.3890
    -7.3807  -7.3025  -7.2716  -7.1702  -7.1453  -7.1323  -7.1278  -7.1246
    -7.1205  -7.1066  -7.0841  -7.0718  -7.0681  -7.0582  -7.0441  -7.0378
    -7.0195  -6.9999  -6.9874  -6.9856  -6.9791  -6.9557  -6.9405  -6.9345
    -6.9240  -6.9041  -6.8749  -6.8712  -6.8672  -6.8572  -6.8407  -6.8291
    -6.8219  -6.8181  -6.8155  -6.8062  -6.7824  -6.7386  -6.7239  -6.7190
    -6.7093  -6.7060  -6.6710  -6.6419  -6.6358  -6.6158  -6.5883  -6.5803
    -6.5733  -6.5660  -6.5645  -6.5638  -6.5629  -6.5584  -6.5482  -6.5465
    -6.5463  -6.5452  -6.5396  -6.5377  -6.5377  -6.5375  -6.5368  -6.5061
    -6.4877  -6.4541  -6.4307  -6.3933  -6.3684  -6.3343  -6.3015  -6.2804
    -6.2795  -6.2787  -6.2724  -6.2602  -6.2507  -6.2360  -6.2358  -6.2317
    -6.2311  -6.2259  -6.2251  -6.2215  -6.2089  -6.1984  -6.1873  -6.1715
    -6.1682  -6.1616  -6.1578  -6.1475  -6.1364  -5.9721  -5.9584  -5.9421
    -5.9341  -5.9070  -5.8754  -5.8626  -5.8337  -5.8106  -5.8032  -5.7290
    -5.7021  -5.6825  -5.6376  -5.5915  -5.5618  -5.5423  -5.4325  -5.3873
    -5.3780  -4.3462  -4.0557  -4.0477  -4.0450  -4.0221  -3.9123  -3.8914
    -3.8799  -3.8732  -3.8670  -3.8193  -3.8014  -3.7989  -3.7881  -3.7821
    -3.7711  -3.7656  -3.7614  -3.7566  -3.7550  -3.7159  -3.6674  -3.6434
    -3.6399  -3.5979  -3.5758  -3.5684  -3.5632  -3.5572  -3.5548  -3.5310
    -3.5095  -3.5088  -3.5022  -3.4800  -3.4761  -3.4740  -3.4714  -3.4645
    -3.4536  -3.4398  -3.4360  -3.4334  -3.4314  -3.4295  -3.4256  -3.4134
    -3.4072  -3.4028  -3.4000  -3.3866  -3.3828  -3.3754  -3.3644  -3.3452
    -3.3293  -3.3103  -3.3063  -3.3041  -3.3017  -3.3008  -3.2947  -3.2929
    -3.2856  -3.2599  -3.2443  -3.2424  -3.2414  -3.2386  -3.2365  -3.2341
    -3.2333  -3.2284  -3.2171  -3.2006  -3.1964  -3.1913  -3.1851  -3.1823
    -3.1810  -3.1692  -3.1689  -3.1655  -3.1510  -3.1448  -3.1394  -3.1353
    -3.1284  -3.1265  -3.1232  -3.1190  -3.1190  -3.1182  -3.0947  -3.0637
    -3.0564  -3.0428  -3.0288  -3.0252  -3.0229  -3.0196  -3.0172  -2.9823
    -2.9817  -2.9799  -2.9792  -2.9785  -2.9773  -2.9680  -2.9670  -2.9658
    -2.9628  -2.9609  -2.9530  -2.9484  -2.9458  -2.9389  -2.9357  -2.9298
    -2.9287  -2.9249  -2.9235  -2.9202  -2.9146  -2.9059  -2.9037  -2.9020
    -2.8954  -2.8920  -2.8875  -2.8822  -2.8686  -2.8543  -2.8525  -2.8432
    -2.8365  -2.8341  -2.8243  -2.8222  -2.8135  -2.7538  -2.7515  -2.7472
    -2.7420  -2.6969  -2.6897  -2.6730  -2.6704  -2.5814  -2.5670  -2.5629
    -2.5451  -2.5318  -2.5283  -2.5183  -2.4994  -2.4974  -2.4951  -2.4833
    -2.4826  -2.4788  -2.4750  -2.4521  -2.3618  -2.3564  -2.3516  -2.3496
    -2.3443  -2.3417  -2.3152  -2.3082

          k =-0.5000-0.2887 0.0000 (386352 PWs)   bands (ev):

  -102.2317 -88.7203 -70.5466 -70.5440 -70.5438 -70.5434 -70.5148 -70.5148
   -70.4987 -66.5800 -66.5780 -66.5780 -66.5780 -66.5778 -66.5767 -66.5767
   -66.5722 -66.5674 -66.5674 -66.5673 -66.5672 -66.5660 -66.5660 -66.5608
   -66.5523 -66.5523 -66.5523 -66.5523 -66.5523 -66.5521 -66.5521 -66.5521
   -66.5519 -66.5509 -66.5509 -66.5509 -66.5509 -66.5488 -66.5478 -66.5478
   -66.5478 -66.5476 -66.5465 -66.5465 -66.5417 -66.5416 -66.5416 -66.5416
   -66.5415 -66.5415 -66.5414 -66.5413 -66.5413 -66.5402 -66.5402 -66.5402
   -66.5402 -66.5400 -66.5371 -66.5371 -66.5370 -66.5370 -66.5358 -66.5358
   -66.5345 -66.5322 -66.5273 -66.5238 -66.5219 -66.5156 -66.5139 -66.5034
   -66.4968 -56.4833 -56.4671 -56.4608 -54.5439 -54.5218 -54.5008 -40.8801
   -40.8800 -40.8800 -40.8800 -40.8800 -40.8800 -40.8798 -40.8798 -40.8793
   -40.8793 -40.8793 -40.8793 -40.8730 -40.8669 -40.8532 -40.8532 -40.8532
   -40.8530 -40.8526 -40.8525 -40.8525 -40.8487 -40.8433 -40.8411 -40.8411
   -40.8411 -40.8410 -40.8404 -40.8404 -40.8308 -40.8179 -40.8150 -40.7905
   -40.7904 -40.7904 -40.7904 -40.7904 -40.7904 -40.7904 -40.7903 -40.7897
   -40.7897 -40.7897 -40.7897 -40.7726 -40.7712 -40.7696 -40.7667 -40.7623
   -40.7318 -40.7317 -40.7317 -40.7316 -40.7315 -40.7311 -40.7311 -40.7248
   -40.7222 -40.7222 -40.7221 -40.7220 -40.7213 -40.7213 -40.7109 -40.7109
   -40.7108 -40.7108 -40.7102 -40.7102 -40.7092 -40.7043 -40.6974 -40.6939
   -40.6876 -40.6813 -40.6813 -40.6813 -40.6813 -40.6812 -40.6812 -40.6811
   -40.6811 -40.6806 -40.6806 -40.6805 -40.6805 -40.6764 -40.6740 -40.6726
   -40.6725 -40.6725 -40.6723 -40.6718 -40.6718 -40.6674 -40.6640 -40.6607
   -40.6607 -40.6606 -40.6606 -40.6604 -40.6603 -40.6602 -40.6602 -40.6602
   -40.6602 -40.6602 -40.6600 -40.6599 -40.6598 -40.6598 -40.6595 -40.6595
   -40.6595 -40.6595 -40.6555 -40.6518 -40.6516 -40.6515 -40.6515 -40.6515
   -40.6508 -40.6508 -40.6502 -40.6455 -40.6433 -40.6362 -40.6353 -40.6299
   -40.6297 -40.6297 -40.6297 -40.6297 -40.6297 -40.6296 -40.6294 -40.6288
   -40.6288 -40.6288 -40.6288 -40.6170 -40.6125 -40.6087 -40.6007 -40.5950
   -40.5950 -40.5950 -40.5950 -40.5950 -40.5949 -40.5949 -40.5949 -40.5940
   -40.5940 -40.5940 -40.5940 -40.5828 -40.5828 -40.5828 -40.5827 -40.5819
   -40.5818 -40.5785 -40.5750 -40.5719 -40.5705 -40.5646 -40.5636 -40.5635
   -40.5635 -40.5633 -40.5625 -40.5625 -40.5517 -40.5465 -40.5465 -40.5465
   -40.5464 -40.5455 -40.5455 -40.5441 -40.5405 -40.5235 -40.5172 -40.5159
   -40.5159 -40.5159 -40.5157 -40.5148 -40.5148 -40.4984 -40.4845 -19.9324
   -19.8468 -19.8233 -19.7867 -19.7229 -19.6964 -19.6156 -19.6065 -19.4486
   -19.4184 -19.3829 -19.3677 -19.2896 -19.2788 -19.1883 -19.1843 -18.8669
   -18.8065 -18.7834 -18.7433 -18.7221 -18.7000 -18.6807 -18.6796 -18.6779
   -18.6645 -18.6529 -18.6347 -18.6089 -18.6063 -18.6043 -18.5917 -18.5535
   -18.5353 -18.5250 -18.5132 -18.5096 -18.5059 -18.5036 -18.4812 -18.4671
   -18.4391 -18.4357 -18.4308 -18.4252 -18.3987 -18.3708 -18.3672 -18.3620
   -18.3399 -18.3211 -18.3145 -18.3002 -18.2882 -18.2792 -18.2526 -18.2253
   -18.2102 -18.2072 -18.1910 -18.1719 -18.1540 -18.1395 -18.1320 -18.1042
   -18.0925 -18.0797 -18.0726 -18.0613 -18.0601 -18.0580 -18.0571 -18.0439
   -18.0340 -18.0301 -18.0280 -18.0258 -18.0234 -18.0190 -18.0166 -18.0065
   -18.0021 -17.9966 -17.9876 -17.9692 -17.9676 -17.9634 -17.9617 -17.9582
   -17.9576 -17.9525 -17.9462 -17.9437 -17.9394 -17.9073 -17.9024 -17.8962
   -17.8939 -17.8847 -17.8767 -17.8515 -17.8474 -17.8446 -17.8321 -17.8263
   -17.8067 -17.8052 -17.7989 -17.7952 -17.7822 -17.7787 -17.7783 -17.7778
   -17.7768 -17.7751 -17.7735 -17.7637 -17.7611 -17.7438 -17.7406 -17.7195
   -17.7171 -17.7002 -17.6968 -17.6859 -17.6832 -17.6785 -17.6780 -11.9513
   -11.6936 -11.6786 -11.6628 -11.5740 -11.4960 -11.4801 -11.4722 -11.4715
   -11.4550 -11.4513 -11.4389 -11.4220 -11.4146 -11.4075 -11.3877 -11.3516
   -11.3495 -11.3342 -11.3214 -11.3096 -11.2933 -11.2865 -11.2796 -11.2682
   -11.2381 -11.2318 -11.2296 -11.2201 -11.2173 -11.2131 -11.2124 -11.1882
   -11.1667 -11.1641 -11.1617 -11.1508 -11.1377 -11.1322 -11.1279 -11.1250
   -11.1205 -11.1068 -11.1048 -11.0899 -11.0815 -11.0568 -11.0350 -11.0191
   -11.0185 -10.9849 -10.9342 -10.9187 -10.9072 -10.9023 -10.8865 -10.8767
   -10.8689 -10.8529 -10.8457 -10.8259 -10.8146 -10.8066 -10.7943 -10.7919
   -10.7876 -10.7832 -10.7802 -10.7699 -10.7697 -10.7691 -10.7672 -10.7586
   -10.7548 -10.7534 -10.7526 -10.7503 -10.7490 -10.7422 -10.7407 -10.7392
   -10.7372 -10.7023 -10.7020 -10.7018 -10.7013 -10.5761 -10.5091 -10.5041
   -10.4958 -10.4820 -10.4455 -10.4212 -10.4004 -10.3589 -10.3363 -10.3246
   -10.2704 -10.2088 -10.2025 -10.1454 -10.1147 -10.0959 -10.0881 -10.0754
   -10.0679 -10.0543 -10.0460 -10.0166 -10.0100  -9.9993  -9.9906  -9.9900
    -9.9858  -9.9711  -9.9674  -9.9610  -9.9414  -9.9056  -9.8890  -9.8865
    -9.8748  -9.8664  -9.8597  -9.8523  -9.8448  -9.8258  -9.8174  -9.7997
    -9.7863  -9.7792  -9.7685  -9.7409  -9.7364  -9.7267  -9.7199  -9.7011
    -9.6905  -9.6752  -9.6538  -9.6476  -9.6422  -9.6165  -9.6106  -9.5870
    -9.5775  -9.5697  -9.5639  -9.5375  -9.5302  -9.5166  -9.5152  -9.4989
    -9.4983  -9.4850  -9.4762  -9.4484  -9.4480  -9.4425  -9.4322  -9.4291
    -9.4231  -9.4174  -9.4149  -9.4103  -9.4044  -9.3864  -9.3840  -9.3363
    -9.3169  -9.2951  -9.2738  -9.2502  -9.2186  -9.1943  -9.1820  -9.1753
    -9.1667  -9.1641  -9.1530  -9.1433  -9.1336  -9.1100  -9.0989  -9.0912
    -9.0732  -9.0492  -9.0432  -9.0411  -9.0337  -9.0173  -9.0099  -9.0016
    -8.9935  -8.9884  -8.9810  -8.9535  -8.9444  -8.9281  -8.9248  -8.9181
    -8.9024  -8.9014  -8.8982  -8.8851  -8.8657  -8.8568  -8.8524  -8.8469
    -8.8448  -8.8443  -8.8385  -8.8337  -8.8298  -8.8280  -8.8259  -8.8252
    -8.8162  -8.8131  -8.8004  -8.7991  -8.7987  -8.7970  -8.7906  -8.7861
    -8.7615  -8.7528  -8.7508  -8.7475  -8.7442  -8.7415  -8.7397  -8.7225
    -8.7181  -8.6927  -8.6918  -8.6885  -8.6833  -8.6720  -8.6642  -8.6337
    -8.6263  -8.6150  -8.6064  -8.5645  -8.5110  -8.4637  -8.4604  -8.4219
    -8.4084  -8.3805  -8.3665  -8.3197  -8.3075  -8.2931  -8.2753  -8.2327
    -8.1700  -8.1353  -8.0870  -8.0866  -8.0800  -8.0780  -8.0713  -8.0673
    -8.0646  -8.0608  -8.0267  -8.0168  -7.9677  -7.9550  -7.9277  -7.9234
    -7.8878  -7.8366  -7.8260  -7.8018  -7.7985  -7.7945  -7.7874  -7.7843
    -7.7772  -7.7712  -7.7677  -7.7663  -7.7599  -7.7584  -7.7547  -7.7514
    -7.7451  -7.7436  -7.7408  -7.7404  -7.7375  -7.7310  -7.7288  -7.7254
    -7.7251  -7.7228  -7.7217  -7.7195  -7.7174  -7.7160  -7.7104  -7.7090
    -7.6923  -7.6894  -7.6886  -7.6846  -7.6814  -7.6563  -7.6557  -7.6543
    -7.6542  -7.6434  -7.6267  -7.6249  -7.6246  -7.6232  -7.6161  -7.6074
    -7.6052  -7.5861  -7.5748  -7.5676  -7.5665  -7.5608  -7.5570  -7.5545
    -7.5513  -7.5436  -7.5418  -7.5257  -7.5228  -7.5211  -7.5162  -7.5084
    -7.4998  -7.4927  -7.4457  -7.4205  -7.4179  -7.4159  -7.4118  -7.3890
    -7.3807  -7.3025  -7.2716  -7.1702  -7.1453  -7.1323  -7.1278  -7.1246
    -7.1205  -7.1066  -7.0841  -7.0718  -7.0681  -7.0582  -7.0441  -7.0378
    -7.0195  -6.9999  -6.9874  -6.9856  -6.9790  -6.9557  -6.9405  -6.9345
    -6.9239  -6.9041  -6.8749  -6.8712  -6.8672  -6.8573  -6.8407  -6.8291
    -6.8219  -6.8181  -6.8155  -6.8062  -6.7824  -6.7386  -6.7239  -6.7190
    -6.7093  -6.7060  -6.6710  -6.6419  -6.6358  -6.6158  -6.5883  -6.5803
    -6.5733  -6.5660  -6.5646  -6.5637  -6.5629  -6.5583  -6.5482  -6.5465
    -6.5463  -6.5452  -6.5396  -6.5377  -6.5377  -6.5375  -6.5368  -6.5061
    -6.4877  -6.4541  -6.4307  -6.3933  -6.3684  -6.3343  -6.3015  -6.2804
    -6.2794  -6.2787  -6.2724  -6.2601  -6.2507  -6.2360  -6.2358  -6.2317
    -6.2311  -6.2259  -6.2251  -6.2215  -6.2089  -6.1984  -6.1873  -6.1715
    -6.1682  -6.1616  -6.1579  -6.1475  -6.1364  -5.9721  -5.9584  -5.9421
    -5.9341  -5.9070  -5.8754  -5.8626  -5.8337  -5.8106  -5.8031  -5.7290
    -5.7021  -5.6825  -5.6376  -5.5915  -5.5618  -5.5423  -5.4325  -5.3873
    -5.3780  -4.3462  -4.0558  -4.0478  -4.0450  -4.0221  -3.9124  -3.8914
    -3.8799  -3.8732  -3.8670  -3.8193  -3.8012  -3.7989  -3.7880  -3.7821
    -3.7711  -3.7656  -3.7613  -3.7566  -3.7550  -3.7159  -3.6674  -3.6434
    -3.6399  -3.5979  -3.5758  -3.5684  -3.5632  -3.5572  -3.5549  -3.5310
    -3.5096  -3.5089  -3.5022  -3.4800  -3.4760  -3.4740  -3.4714  -3.4647
    -3.4536  -3.4397  -3.4360  -3.4335  -3.4315  -3.4295  -3.4256  -3.4134
    -3.4071  -3.4027  -3.4000  -3.3866  -3.3827  -3.3754  -3.3644  -3.3452
    -3.3293  -3.3104  -3.3062  -3.3041  -3.3017  -3.3007  -3.2947  -3.2929
    -3.2856  -3.2599  -3.2446  -3.2424  -3.2413  -3.2386  -3.2365  -3.2340
    -3.2332  -3.2284  -3.2170  -3.2005  -3.1961  -3.1913  -3.1848  -3.1823
    -3.1809  -3.1691  -3.1688  -3.1654  -3.1506  -3.1450  -3.1392  -3.1353
    -3.1282  -3.1264  -3.1229  -3.1191  -3.1190  -3.1182  -3.0946  -3.0638
    -3.0565  -3.0428  -3.0289  -3.0252  -3.0228  -3.0193  -3.0173  -2.9824
    -2.9818  -2.9799  -2.9793  -2.9785  -2.9774  -2.9682  -2.9673  -2.9662
    -2.9631  -2.9613  -2.9530  -2.9484  -2.9459  -2.9390  -2.9360  -2.9298
    -2.9289  -2.9252  -2.9237  -2.9203  -2.9150  -2.9060  -2.9037  -2.9019
    -2.8950  -2.8918  -2.8872  -2.8817  -2.8683  -2.8545  -2.8524  -2.8427
    -2.8367  -2.8339  -2.8239  -2.8215  -2.8132  -2.7542  -2.7519  -2.7474
    -2.7425  -2.6963  -2.6896  -2.6727  -2.6702  -2.5810  -2.5669  -2.5624
    -2.5408  -2.5289  -2.5190  -2.5124  -2.4990  -2.4969  -2.4903  -2.4831
    -2.4811  -2.4779  -2.4749  -2.4333  -2.3600  -2.3556  -2.3508  -2.3474
    -2.3434  -2.3325  -2.3097  -2.2998

          k =-0.5000-0.8660 0.0000 (386352 PWs)   bands (ev):

  -102.2317 -88.7203 -70.5466 -70.5440 -70.5438 -70.5434 -70.5148 -70.5148
   -70.4987 -66.5800 -66.5780 -66.5780 -66.5780 -66.5779 -66.5767 -66.5767
   -66.5720 -66.5674 -66.5674 -66.5673 -66.5672 -66.5660 -66.5660 -66.5612
   -66.5524 -66.5524 -66.5523 -66.5523 -66.5523 -66.5523 -66.5523 -66.5520
   -66.5520 -66.5509 -66.5509 -66.5509 -66.5509 -66.5478 -66.5478 -66.5478
   -66.5476 -66.5476 -66.5465 -66.5465 -66.5417 -66.5416 -66.5416 -66.5415
   -66.5415 -66.5415 -66.5414 -66.5412 -66.5410 -66.5402 -66.5402 -66.5402
   -66.5402 -66.5402 -66.5371 -66.5371 -66.5370 -66.5370 -66.5358 -66.5358
   -66.5346 -66.5316 -66.5303 -66.5218 -66.5212 -66.5158 -66.5143 -66.5035
   -66.4967 -56.4833 -56.4671 -56.4608 -54.5439 -54.5218 -54.5008 -40.8801
   -40.8800 -40.8800 -40.8800 -40.8800 -40.8800 -40.8799 -40.8797 -40.8793
   -40.8793 -40.8793 -40.8793 -40.8642 -40.8610 -40.8606 -40.8595 -40.8532
   -40.8532 -40.8532 -40.8531 -40.8525 -40.8525 -40.8429 -40.8411 -40.8411
   -40.8411 -40.8410 -40.8404 -40.8404 -40.8333 -40.8198 -40.8092 -40.7904
   -40.7904 -40.7904 -40.7904 -40.7904 -40.7904 -40.7903 -40.7903 -40.7897
   -40.7897 -40.7897 -40.7897 -40.7711 -40.7689 -40.7688 -40.7663 -40.7629
   -40.7333 -40.7318 -40.7317 -40.7317 -40.7316 -40.7311 -40.7311 -40.7222
   -40.7222 -40.7221 -40.7220 -40.7213 -40.7213 -40.7213 -40.7109 -40.7109
   -40.7108 -40.7108 -40.7102 -40.7102 -40.7080 -40.7061 -40.7025 -40.6962
   -40.6813 -40.6813 -40.6813 -40.6813 -40.6813 -40.6813 -40.6810 -40.6810
   -40.6806 -40.6806 -40.6805 -40.6805 -40.6784 -40.6758 -40.6742 -40.6725
   -40.6725 -40.6725 -40.6724 -40.6718 -40.6718 -40.6713 -40.6651 -40.6607
   -40.6607 -40.6606 -40.6606 -40.6604 -40.6602 -40.6602 -40.6602 -40.6602
   -40.6602 -40.6600 -40.6600 -40.6600 -40.6598 -40.6598 -40.6595 -40.6595
   -40.6595 -40.6595 -40.6544 -40.6533 -40.6516 -40.6515 -40.6515 -40.6515
   -40.6508 -40.6508 -40.6487 -40.6467 -40.6436 -40.6361 -40.6354 -40.6299
   -40.6297 -40.6297 -40.6297 -40.6297 -40.6297 -40.6296 -40.6294 -40.6288
   -40.6288 -40.6288 -40.6288 -40.6161 -40.6113 -40.6091 -40.6070 -40.5950
   -40.5950 -40.5950 -40.5950 -40.5950 -40.5949 -40.5949 -40.5949 -40.5940
   -40.5940 -40.5940 -40.5940 -40.5828 -40.5828 -40.5828 -40.5827 -40.5819
   -40.5818 -40.5759 -40.5732 -40.5718 -40.5708 -40.5636 -40.5635 -40.5635
   -40.5633 -40.5625 -40.5625 -40.5607 -40.5570 -40.5465 -40.5465 -40.5465
   -40.5464 -40.5455 -40.5455 -40.5452 -40.5430 -40.5181 -40.5159 -40.5159
   -40.5159 -40.5157 -40.5154 -40.5148 -40.5148 -40.4948 -40.4902 -19.9216
   -19.8521 -19.8225 -19.7967 -19.7226 -19.7040 -19.6159 -19.6088 -19.4344
   -19.4167 -19.3789 -19.3659 -19.2869 -19.2775 -19.1874 -19.1838 -18.8721
   -18.8375 -18.8032 -18.7513 -18.7147 -18.6875 -18.6805 -18.6801 -18.6791
   -18.6496 -18.6331 -18.6312 -18.6081 -18.6061 -18.5908 -18.5727 -18.5558
   -18.5503 -18.5218 -18.5172 -18.5146 -18.5034 -18.4955 -18.4821 -18.4717
   -18.4556 -18.4443 -18.4325 -18.4271 -18.4137 -18.3690 -18.3674 -18.3623
   -18.3599 -18.3245 -18.3085 -18.2897 -18.2871 -18.2857 -18.2255 -18.2153
   -18.2111 -18.2087 -18.1794 -18.1531 -18.1484 -18.1381 -18.1292 -18.1253
   -18.0918 -18.0788 -18.0648 -18.0647 -18.0604 -18.0577 -18.0523 -18.0521
   -18.0424 -18.0328 -18.0270 -18.0270 -18.0238 -18.0209 -18.0082 -18.0079
   -18.0005 -17.9998 -17.9944 -17.9695 -17.9660 -17.9645 -17.9626 -17.9610
   -17.9544 -17.9528 -17.9526 -17.9457 -17.9386 -17.9103 -17.9004 -17.8945
   -17.8940 -17.8889 -17.8836 -17.8516 -17.8459 -17.8455 -17.8378 -17.8210
   -17.8076 -17.8044 -17.7998 -17.7962 -17.7800 -17.7785 -17.7782 -17.7778
   -17.7765 -17.7758 -17.7673 -17.7639 -17.7580 -17.7445 -17.7393 -17.7201
   -17.7164 -17.7010 -17.6959 -17.6863 -17.6823 -17.6785 -17.6777 -11.9498
   -11.6864 -11.6658 -11.6232 -11.5833 -11.5624 -11.4840 -11.4719 -11.4692
   -11.4533 -11.4523 -11.4439 -11.4407 -11.4197 -11.4191 -11.3877 -11.3487
   -11.3469 -11.3361 -11.3194 -11.3131 -11.2855 -11.2802 -11.2724 -11.2582
   -11.2350 -11.2294 -11.2257 -11.2246 -11.2193 -11.2080 -11.2079 -11.1852
   -11.1642 -11.1596 -11.1595 -11.1445 -11.1414 -11.1352 -11.1307 -11.1266
   -11.1216 -11.1042 -11.1036 -11.0802 -11.0742 -11.0548 -11.0456 -11.0192
   -11.0145 -10.9852 -10.9452 -10.9173 -10.9110 -10.9068 -10.8780 -10.8719
   -10.8689 -10.8551 -10.8480 -10.8283 -10.8173 -10.8068 -10.7957 -10.7950
   -10.7815 -10.7778 -10.7752 -10.7703 -10.7693 -10.7692 -10.7679 -10.7600
   -10.7559 -10.7530 -10.7518 -10.7516 -10.7494 -10.7417 -10.7407 -10.7405
   -10.7376 -10.7022 -10.7022 -10.7019 -10.7015 -10.5366 -10.5193 -10.5059
   -10.5014 -10.4790 -10.4644 -10.4622 -10.4230 -10.3803 -10.3482 -10.2901
   -10.2344 -10.2227 -10.1798 -10.1357 -10.1107 -10.0972 -10.0893 -10.0734
   -10.0713 -10.0478 -10.0409 -10.0288 -10.0083  -9.9971  -9.9916  -9.9839
    -9.9836  -9.9769  -9.9578  -9.9564  -9.9428  -9.9112  -9.8901  -9.8781
    -9.8780  -9.8659  -9.8567  -9.8518  -9.8410  -9.8202  -9.8104  -9.8025
    -9.7826  -9.7782  -9.7668  -9.7429  -9.7356  -9.7276  -9.7171  -9.7162
    -9.6941  -9.6605  -9.6546  -9.6430  -9.6213  -9.6177  -9.6119  -9.5903
    -9.5865  -9.5749  -9.5609  -9.5409  -9.5310  -9.5273  -9.5023  -9.4970
    -9.4969  -9.4819  -9.4788  -9.4574  -9.4503  -9.4459  -9.4329  -9.4319
    -9.4289  -9.4187  -9.4135  -9.4122  -9.3979  -9.3891  -9.3779  -9.3618
    -9.3342  -9.3022  -9.2790  -9.2427  -9.2052  -9.2048  -9.1991  -9.1873
    -9.1788  -9.1500  -9.1461  -9.1427  -9.1285  -9.1153  -9.1114  -9.0882
    -9.0650  -9.0569  -9.0466  -9.0425  -9.0316  -9.0180  -9.0138  -8.9956
    -8.9915  -8.9868  -8.9762  -8.9500  -8.9444  -8.9325  -8.9275  -8.9162
    -8.9034  -8.8943  -8.8923  -8.8814  -8.8607  -8.8485  -8.8480  -8.8476
    -8.8451  -8.8355  -8.8348  -8.8313  -8.8291  -8.8278  -8.8244  -8.8192
    -8.8131  -8.8131  -8.8096  -8.8025  -8.7987  -8.7981  -8.7936  -8.7901
[...]
     atom  170 type  1   force =    -0.00001381   -0.00001405    0.00000475
     atom  171 type  2   force =    -0.00000362    0.00000064    0.00000496
     atom  172 type  2   force =    -0.00000056    0.00000075    0.00161510
     atom  173 type  2   force =    -0.00000072    0.00000025   -0.00235910
     atom  174 type  2   force =    -0.00000158    0.00000076   -0.00001423
     atom  175 type  1   force =     0.00000126    0.00000632    0.00001588
     atom  176 type  1   force =     0.00046166    0.00021868    0.00028037
     atom  177 type  2   force =     0.00065518    0.00039217    0.00091863
     atom  178 type  2   force =    -0.00001802   -0.00000711   -0.00007641
     atom  179 type  2   force =     0.00000209    0.00000084    0.00003300
     atom  180 type  2   force =    -0.00015343   -0.00007318    0.00013156
     atom  181 type  1   force =     0.00000175   -0.00000092    0.00068806
     atom  182 type  1   force =    -0.00000936   -0.00001017   -0.00000284
     atom  183 type  2   force =    -0.00000217   -0.00000109    0.00000533
     atom  184 type  2   force =    -0.00000041    0.00000062    0.00161514
     atom  185 type  2   force =    -0.00000061    0.00000007   -0.00235905
     atom  186 type  2   force =    -0.00000069   -0.00000348   -0.00000942
     atom  187 type  1   force =     0.00001243    0.00000543    0.00004044
     atom  188 type  1   force =     0.00055811    0.00035204    0.00042060
     atom  189 type  2   force =     0.00032868   -0.00027641    0.00025789
     atom  190 type  2   force =    -0.00000974   -0.00000814   -0.00007763
     atom  191 type  2   force =     0.00000041    0.00000431    0.00003220
     atom  192 type  2   force =     0.00000986    0.00009906   -0.00022818
     atom  193 type  3   force =     0.00024581   -0.00014208   -0.00022193
     atom  194 type  4   force =    -0.00003643    0.00002282   -0.00033928

     Total force =     0.003745     Total SCF correction =     0.000444
     SCF correction compared to forces is large: reduce conv_thr to get better values
     Energy error            =      4.3E-05 Ry
     Gradient error          =      9.2E-04 Ry/Bohr

     bfgs converged in  16 scf cycles and  15 bfgs steps
     (criteria: energy <  1.0E-04 Ry, force <  1.0E-03 Ry/Bohr)

     End of BFGS Geometry Optimization

     Final energy             =  -33980.2851106176 Ry

     File ./outdir/pwscf.bfgs deleted, as requested
Begin final coordinates

ATOMIC_POSITIONS (angstrom)
Mo               0.0000119917        1.8193638619       -9.1672481230    0   0   0
Mo               1.5756136568        0.9097075315       -3.0554901653    0   0   0
S                0.0000188998        1.8193822938       -4.6232556019    0   0   0
S                1.5756321638        0.9096773839       -7.6014065489    0   0   0
S                1.5756326175        0.9096785128      -10.7330757790    0   0   0
S                0.0000189190        1.8193860094       -1.4877129945    0   0   0
Mo               0.0002667704        1.8194964145        3.0561699692
Mo               1.5702498360        0.9262493321        9.1636600560
S                0.0012943946        1.8202972537        7.5797144513
S                1.5758189310        0.9090197421        4.6240117633
S                1.5757956406        0.9098477423        1.4882997678
S               -0.0166156013        1.8186621176       10.7288604185
Mo              -1.5756053507        4.5484193819       -9.1672481230    0   0   0
Mo               0.0000378379        3.6387394919       -3.0554952701    0   0   0
S               -1.5755913433        4.5484363582       -4.6232494962    0   0   0
S                0.0000148214        3.6387329039       -7.6014065489    0   0   0
S                0.0000152751        3.6387340328      -10.7330757790    0   0   0
S               -1.5755906502        4.5484413613       -1.4877305502    0   0   0
Mo              -1.5753145333        4.5488248739        3.0564255502
Mo              -0.0086727144        3.6260607165        9.1602755412
S               -1.5756550710        4.5484353766        7.5872926166
S                0.0009492864        3.6393740235        4.6239755877
S               -0.0001221986        3.6388061707        1.4882453529
S               -1.5733171238        4.5259024757       10.7318041362
Mo              -3.1512226931        7.2774749019       -9.1672481230    0   0   0
Mo              -1.5755910988        6.3678216792       -3.0555115988    0   0   0
S               -3.1512162438        7.2774954350       -4.6232578178    0   0   0
S               -1.5756025210        6.3677884239       -7.6014065489    0   0   0
S               -1.5756020673        6.3677895528      -10.7330757790    0   0   0
S               -3.1512127704        7.2774877076       -1.4877200710    0   0   0
Mo              -3.1510126573        7.2776535703        3.0559262875
Mo              -1.5787929874        6.3506256645        9.1771858766
S               -3.1494899392        7.3010876526        7.6379508751
S               -1.5755097165        6.3685656942        4.6247487685
S               -1.5754669633        6.3678079485        1.4883422775
S               -3.1692039928        7.1244388778       10.8073085010
Mo              -4.7268400355       10.0065304219       -9.1672481230    0   0   0
Mo              -3.1512405618        9.0968403586       -3.0554816746    0   0   0
S               -4.7268341792       10.0065523623       -4.6232463762    0   0   0
S               -3.1512198634        9.0968439439       -7.6014065489    0   0   0
S               -3.1512194097        9.0968450728      -10.7330757790    0   0   0
S               -4.7268370797       10.0065537885       -1.4877176751    0   0   0
Mo              -4.7265508965       10.0063922386        3.0556461450
Mo              -3.1495171656        9.0959137445        9.2144515707
S               -4.7024264216        9.9924868234        7.6378658893
S               -3.1510987826        9.0968011677        4.6237088562
S               -3.1510413867        9.0967689417        1.4877928584
S               -4.8511110519       10.0783292831       10.7983494396
Mo               3.1512517547        1.8193638619       -9.1672481230    0   0   0
Mo               4.7269020221        0.9097289540       -3.0554823951    0   0   0
S                3.1512612351        1.8193882564       -4.6232320683    0   0   0
S                4.7268719268        0.9096773839       -7.6014065489    0   0   0
S                4.7268723805        0.9096785128      -10.7330757790    0   0   0
S                3.1512592485        1.8193890201       -1.4877261251    0   0   0
Mo               3.1512668906        1.8193416572        3.0564324402
Mo               4.7319463992        0.9289867010        9.1620738415
S                3.1505044761        1.8249415264        7.5881092950
S                4.7269053606        0.9090908184        4.6241149417
S                4.7267070982        0.9096753673        1.4883223052
S                3.1555301928        1.8107083197       10.7334088311
Mo               1.5756344123        4.5484193819       -9.1672481230    0   0   0
Mo               3.1512756394        3.6387769522       -3.0554814834    0   0   0
S                1.5756504879        4.5484423799       -4.6232390542    0   0   0
S                3.1512545844        3.6387329039       -7.6014065489    0   0   0
S                3.1512550381        3.6387340328      -10.7330757790    0   0   0
S                1.5756466253        4.5484431864       -1.4877251801    0   0   0
Mo               1.5757272589        4.5487766039        3.0554282980
Mo               3.1590124850        3.6290992485        9.1711011558
S                1.5794654958        4.5753733078        7.6370898592
S                3.1506826181        3.6392294979        4.6238858963
S                3.1513523821        3.6385380373        1.4881193376
S                1.5734883795        4.4399141726       10.7836688212
Mo               0.0000170699        7.2774749019       -9.1672481230    0   0   0
Mo               1.5756764447        6.3678236689       -3.0554877708    0   0   0
S                0.0000381981        7.2774979204       -4.6232454413    0   0   0
S                1.5756372420        6.3677884239       -7.6014065489    0   0   0
S                1.5756376957        6.3677895528      -10.7330757790    0   0   0
S                0.0000328088        7.2774946042       -1.4877307940    0   0   0
Mo               0.0000326662        7.2774924805        3.0561394393
Mo               1.5765735052        6.3672997030        9.2291872786
S                0.0219243584        7.2648779067        7.6416015039
S                1.5756722654        6.3677965045        4.6236085852
S                1.5753543723        6.3679797125        1.4876248369
S               -0.0960739694        7.3330044543       10.7893102525
Mo              -1.5756002725       10.0065304219       -9.1672481230    0   0   0
Mo               0.0000873425        9.0968676911       -3.0554912329    0   0   0
S               -1.5755883952       10.0065504530       -4.6232240150    0   0   0
S                0.0000198996        9.0968439439       -7.6014065489    0   0   0
S                0.0000203533        9.0968450728      -10.7330757790    0   0   0
S               -1.5755859047       10.0065492576       -1.4877362381    0   0   0
Mo              -1.5756274492       10.0063014116        3.0559276379
Mo               0.0133365523        9.1082655815        9.1771840709
S               -1.5951406057        9.9932981971        7.6379508173
S               -0.0005824640        9.0964181443        4.6247470979
S                0.0000934119        9.0967597191        1.4883460395
S               -1.4520007421       10.0987047919       10.8073053153
Mo               6.3024915177        1.8193638619       -9.1672481230    0   0   0
Mo               7.8781001445        0.9096521684       -3.0554919963    0   0   0
S                6.3025008696        1.8193826232       -4.6232480596    0   0   0
S                7.8781116898        0.9096773839       -7.6014065489    0   0   0
S                7.8781121435        0.9096785128      -10.7330757790    0   0   0
S                6.3025042007        1.8193849068       -1.4877147524    0   0   0
Mo               6.3023095982        1.8193123829        3.0558988642
Mo               7.8796455738        0.9123871756        9.1558829744
S                6.3042336904        1.8188704360        7.5806673121
S                7.8781539426        0.9096653066        4.6230192308
S                7.8779203633        0.9093098365        1.4881012667
S                6.3140635335        1.8355997679       10.7257865131
Mo               4.7268741753        4.5484193819       -9.1672481230    0   0   0
Mo               6.3024679138        3.6387501714       -3.0554895197    0   0   0
S                4.7268748770        4.5484386753       -4.6232519432    0   0   0
S                6.3024943474        3.6387329039       -7.6014065489    0   0   0
S                6.3024948011        3.6387340328      -10.7330757790    0   0   0
S                4.7268770533        4.5484432419       -1.4877137856    0   0   0
Mo               4.7265629264        4.5486287724        3.0560235430
Mo               6.3047594693        3.6374774200        9.1502932506
S                4.7211338345        4.5517847102        7.5926787093
S                6.3021150589        3.6389819744        4.6233685241
S                6.3023561746        3.6388408116        1.4881968244
S                4.7345707239        4.5440277817       10.7302864179
Mo               3.1512568329        7.2774749019       -9.1672481230    0   0   0
Mo               4.7268384135        6.3678043337       -3.0554959052    0   0   0
S                3.1512606125        7.2774972547       -4.6232589675    0   0   0
S                4.7268770050        6.3677884239       -7.6014065489    0   0   0
S                4.7268774587        6.3677895528      -10.7330757790    0   0   0
S                3.1512629079        7.2774963749       -1.4877081835    0   0   0
Mo               3.1510194207        7.2772569386        3.0554290898
Mo               4.7391447838        6.3659640194        9.1710993671
S                3.1298739358        7.2607552494        7.6370902319
S                4.7261860106        6.3680791659        4.6238894860
S                4.7271173243        6.3678443039        1.4881140836
S                3.2441999251        7.3336643699       10.7836670921
Mo               1.5756394905       10.0065304219       -9.1672481230    0   0   0
Mo               3.1512330605        9.0968514907       -3.0554878870    0   0   0
S                1.5756499830       10.0065443759       -4.6232632674    0   0   0
S                3.1512596626        9.0968439439       -7.6014065489    0   0   0
S                3.1512601163        9.0968450728      -10.7330757790    0   0   0
S                1.5756503041       10.0065459699       -1.4877044377    0   0   0
Mo               1.5754622331       10.0061168356        3.0564263075
Mo               3.1579367197        9.1107816941        9.1602752900
S                1.5756456976       10.0066429210        7.5872935745
S                3.1511984584        9.0957562892        4.6239805999
S                3.1511540586        9.0969670669        1.4882430627
S                1.5963315176       10.0158853391       10.7318034641
Mo               9.4537312807        1.8193638619       -9.1672481230    0   0   0
Mo              11.0293863460        0.9096952246       -3.0554894007    0   0   0
S                9.4537395970        1.8193770750       -4.6232328036    0   0   0
S               11.0293514528        0.9096773839       -7.6014065489    0   0   0
S               11.0293519066        0.9096785128      -10.7330757790    0   0   0
S                9.4537393632        1.8193794783       -1.4877366147    0   0   0
Mo               9.4537241536        1.8193943421        3.0553429874
Mo              11.0288950638        0.9099933405        9.1493665651
S                9.4518072771        1.8205267630        7.5838907965
S               11.0291741821        0.9098064620        4.6230762016
S               11.0296296732        0.9095438076        1.4881292801
S                9.4549277511        1.8187250213       10.7232417063
Mo               7.8781139383        4.5484193819       -9.1672481230    0   0   0
Mo               9.4537539161        3.6387607911       -3.0554933032    0   0   0
S                7.8781175448        4.5484378232       -4.6232366318    0   0   0
S                9.4537341104        3.6387329039       -7.6014065489    0   0   0
S                9.4537345641        3.6387340328      -10.7330757790    0   0   0
S                7.8781194018        4.5484411585       -1.4877377057    0   0   0
Mo               7.8780918667        4.5486437429        3.0558979475
Mo               9.4521996193        3.6361287850        9.1558817526
S                7.8794571126        4.5472351086        7.5806669842
S                9.4537875164        3.6387440660        4.6230142684
S                9.4539795689        3.6391237182        1.4881027227
S                7.8698833402        4.5303580661       10.7257856518
Mo               6.3024965959        7.2774749019       -9.1672481230    0   0   0
Mo               7.8781361655        6.3678242352       -3.0555014130    0   0   0
S                6.3024973331        7.2774953556       -4.6232392528    0   0   0
S                7.8781167680        6.3677884239       -7.6014065489    0   0   0
S                7.8781172217        6.3677895528      -10.7330757790    0   0   0
S                6.3024989866        7.2774929744       -1.4877349119    0   0   0
Mo               6.3025457102        7.2775109417        3.0564306094
Mo               7.8639798234        6.3538182266        9.1620740532
S                6.2973379257        7.2754096207        7.5881059861
S                7.8786662220        6.3680942482        4.6241130096
S                7.8780599279        6.3679730522        1.4883214275
S                6.3121795536        7.2781745066       10.7334049992
Mo               4.7268792535       10.0065304219       -9.1672481230    0   0   0
Mo               6.3025111524        9.0968738021       -3.0554915260    0   0   0
S                4.7268840634       10.0065452125       -4.6232380477    0   0   0
S                6.3024994256        9.0968439439       -7.6014065489    0   0   0
S                6.3024998793        9.0968450728      -10.7330757790    0   0   0
S                4.7268847312       10.0065459141       -1.4877283294    0   0   0
Mo               4.7269153885       10.0062835777        3.0561697192
Mo               6.2855040661        9.0932965171        9.1636554713
S                4.7267587848       10.0050307529        7.5797133770
S                6.3031871062        9.0970510491        4.6240057612
S                6.3024594308        9.0966571235        1.4883034167
S                4.7192216322       10.0213577077       10.7288568791
Pd               1.5616029193        6.3759513917       12.1046726379
Pt              -3.1396201429        9.0902027852       11.9660425860
End final coordinates



     Writing all to output data dir ./outdir/pwscf.save/ :
     XML data file, charge density, pseudopotentials, collected wavefunctions
 
     init_run     :    176.55s CPU    179.87s WALL (       1 calls)
     electrons    : 133881.23s CPU 135613.34s WALL (      16 calls)
     update_pot   :     25.37s CPU     26.17s WALL (      15 calls)
     forces       :   2057.18s CPU   2094.16s WALL (      16 calls)
     force_dftd3  :     10.62s CPU     11.11s WALL (      16 calls)

     Called by init_run:
     wfcinit      :    152.68s CPU    154.57s WALL (       1 calls)
     potinit      :      1.30s CPU      1.40s WALL (       1 calls)
     hinit0       :     12.90s CPU     12.98s WALL (       1 calls)

     Called by electrons:
     c_bands      : 118283.88s CPU 119446.23s WALL (     220 calls)
     sum_band     :  13917.96s CPU  14211.54s WALL (     220 calls)
     v_of_rho     :     80.67s CPU     90.42s WALL (     225 calls)
     newd         :   1416.47s CPU   1685.69s WALL (     225 calls)
     PAW_pot      :    208.46s CPU    210.75s WALL (     240 calls)
     mix_rho      :     22.24s CPU     25.75s WALL (     220 calls)
     energy_dftd3 :      6.13s CPU      6.16s WALL (      16 calls)

     Called by c_bands:
     init_us_2    :    474.94s CPU    477.58s WALL (    1888 calls)
     init_us_2:cp :    474.93s CPU    477.57s WALL (    1888 calls)
     cegterg      : 116220.85s CPU 117369.65s WALL (     908 calls)

     Called by *egterg:
     cdiaghg      :   6769.71s CPU   7032.15s WALL (   11067 calls)
     h_psi        :  59045.02s CPU  59424.20s WALL (   11183 calls)
     s_psi        :  13774.35s CPU  13860.02s WALL (   11183 calls)
     g_psi        :    104.93s CPU    105.41s WALL (   10271 calls)

     Called by h_psi:
     h_psi:calbec :  13290.41s CPU  13335.60s WALL (   11183 calls)
     vloc_psi     :  31662.49s CPU  31823.28s WALL (   11183 calls)
     add_vuspsi   :  13850.87s CPU  13940.52s WALL (   11183 calls)

     General routines
     calbec       :  19008.31s CPU  19072.76s WALL (   12379 calls)
     fft          :     64.47s CPU     73.06s WALL (    3095 calls)
     ffts         :      3.96s CPU      4.24s WALL (     445 calls)
     fftw         :  23938.85s CPU  24058.28s WALL ( 6264258 calls)
     interpolate  :      6.98s CPU      7.67s WALL (     225 calls)
 
     Parallel routines
 
     PWSCF        :   1d13h59m CPU   1d14h30m WALL

 
   This run was terminated on:  17:55: 1  17Mar2024            

=------------------------------------------------------------------------------=
   JOB DONE.
=------------------------------------------------------------------------------=
