
     Program PWSCF v.7.2 starts on 27Aug2023 at 19:19:44 

     This program is part of the open-source Quantum ESPRESSO suite
     for quantum simulation of materials; please cite
         "P. Giannozzi et al., J. Phys.:Condens. Matter 21 395502 (2009);
         "P. Giannozzi et al., J. Phys.:Condens. Matter 29 465901 (2017);
         "P. Giannozzi et al., J. Chem. Phys. 152 154105 (2020);
          URL http://www.quantum-espresso.org", 
     in publications or presentations arising from this work. More details at
     http://www.quantum-espresso.org/quote

     Parallel version (MPI), running on    36 processors

     MPI processes distributed on     1 nodes
     769489 MiB available memory on the printing compute node when the environment starts
 
     Waiting for input...
     Reading input from standard input
Warning: card &CELL ignored
Warning: card / ignored

     Current dimensions of program PWSCF are:
     Max number of different atomic species (ntypx) = 10
     Max number of k-points (npk) =  40000
     Max angular momentum in pseudopotentials (lmaxx) =  4
     file Mo.pbe-spn-kjpaw_psl.1.0.0.UPF: wavefunction(s)  4S 4D renormalized
     file S.pbe-n-kjpaw_psl.1.0.0.UPF: wavefunction(s)  3S 3P renormalized
     file Pd.pbe-spn-kjpaw_psl.1.0.0.UPF: wavefunction(s)  4S 5S 4D renormalized
     file H.pbe-kjpaw_psl.1.0.0.UPF: wavefunction(s)  1S renormalized
 
     R & G space division:  proc/nbgrp/npool/nimage =      36
     Subspace diagonalization in iterative solution of the eigenvalue problem:
     one sub-group per band group will be used
     custom distributed-memory algorithm (size of sub-group:  6*  6 procs)

 
     Parallelization info
     --------------------
     sticks:   dense  smooth     PW     G-vecs:    dense   smooth      PW
     Min         586     335     89               165416    71459    9765
     Max         587     337     90               165425    71461    9778
     Sum       21109   12085   3205              5955087  2572543  351657
 
     Using Slab Decomposition
 


     bravais-lattice index     =            0
     lattice parameter (alat)  =      23.8395  a.u.
     unit-cell volume          =   28182.8498 (a.u.)^3
     number of atoms/cell      =          146
     number of atomic types    =            4
     number of electrons       =      1267.00
     number of Kohn-Sham states=          761
     kinetic-energy cutoff     =      77.0000  Ry
     charge density cutoff     =     539.0000  Ry
     scf convergence threshold =      1.0E-06
     mixing beta               =       0.2000
     number of iterations used =            8  plain     mixing
     energy convergence thresh.=      1.0E-04
     force convergence thresh. =      1.0E-03
     Exchange-correlation= SLA  PW   PBX  PBC
                           (   1   4   3   4   0   0   0)
     nstep                     =         1000


     Effective Screening Medium Method
     =================================
     Boundary Conditions: Vacuum-Slab-Vacuum
     total charge in unit cell        =   0.0000
     grid points for fit at edges     =        4 
 

     celldm(1)=  23.839504  celldm(2)=   0.000000  celldm(3)=   0.000000
     celldm(4)=   0.000000  celldm(5)=   0.000000  celldm(6)=   0.000000

     crystal axes: (cart. coord. in units of alat)
               a(1) = (   1.000000   0.000000   0.000000 )  
               a(2) = (  -0.500001   0.866026   0.000000 )  
               a(3) = (   0.000000   0.000000   2.401941 )  

     reciprocal axes: (cart. coord. in units 2 pi/alat)
               b(1) = (  1.000000  0.577351  0.000000 )  
               b(2) = (  0.000000  1.154700  0.000000 )  
               b(3) = (  0.000000  0.000000  0.416330 )  


     PseudoPot. # 1 for Mo read from file:
     ./pseudo/Mo.pbe-spn-kjpaw_psl.1.0.0.UPF
     MD5 check sum: 317bf72632116215fd98f72de1686f13
     Pseudo is Projector augmented-wave + core cor, Zval = 14.0
     Generated using 'atomic' code by A. Dal Corso  v.7.2
     Shape of augmentation charge: PSQ
     Using radial grid of 1229 points,  6 beta functions with: 
                l(1) =   0
                l(2) =   0
                l(3) =   1
                l(4) =   1
                l(5) =   2
                l(6) =   2
     Q(r) pseudized with 0 coefficients 


     PseudoPot. # 2 for S  read from file:
     ./pseudo/S.pbe-n-kjpaw_psl.1.0.0.UPF
     MD5 check sum: 8b7b5302570d38d5e87fed6a1065abda
     Pseudo is Projector augmented-wave + core cor, Zval =  6.0
     Generated using 'atomic' code by A. Dal Corso  v.7.2
     Shape of augmentation charge: PSQ
     Using radial grid of 1151 points,  6 beta functions with: 
                l(1) =   0
                l(2) =   0
                l(3) =   1
                l(4) =   1
                l(5) =   2
                l(6) =   2
     Q(r) pseudized with 0 coefficients 


     PseudoPot. # 3 for Pd read from file:
     ./pseudo/Pd.pbe-spn-kjpaw_psl.1.0.0.UPF
     MD5 check sum: a60571a671f2502b8a6a4569d20a6edb
     Pseudo is Projector augmented-wave + core cor, Zval = 18.0
     Generated using 'atomic' code by A. Dal Corso  v.7.2
     Shape of augmentation charge: PSQ
     Using radial grid of 1235 points,  6 beta functions with: 
                l(1) =   0
                l(2) =   0
                l(3) =   1
                l(4) =   1
                l(5) =   2
                l(6) =   2
     Q(r) pseudized with 0 coefficients 


     PseudoPot. # 4 for H  read from file:
     ./pseudo/H.pbe-kjpaw_psl.1.0.0.UPF
     MD5 check sum: b3cb3c48ee3b58cc53e4d592112d0ca6
     Pseudo is Projector augmented-wave, Zval =  1.0
     Generated using 'atomic' code by A. Dal Corso  v.7.2
     Shape of augmentation charge: PSQ
     Using radial grid of  929 points,  2 beta functions with: 
                l(1) =   0
                l(2) =   0
     Q(r) pseudized with 0 coefficients 


     atomic species   valence    mass     pseudopotential
        Mo            14.00    95.95000     Mo( 1.00)
        S              6.00    32.06000     S ( 1.00)
        Pd            18.00   106.42000     Pd( 1.00)
        H              1.00     1.00800     H ( 1.00)

     No symmetry found



   Cartesian axes

     site n.     atom                  positions (alat units)
         1           Mo  tau(   1) = (   0.1244805   0.2154429   0.4826124  )
         2           Mo  tau(   2) = (   0.1250004   0.0721694  -0.4825273  )
         3           Mo  tau(   3) = (   0.0000154   0.1443583  -0.0000534  )
         4           S   tau(   4) = (   0.0000004   0.0000006  -0.6064556  )
         5           S   tau(   5) = (   0.1249822   0.0722030  -0.1241916  )
         6           S   tau(   6) = (   0.0001873   0.1444894   0.3573292  )
         7           S   tau(   7) = (   0.0000004   0.0000005  -0.3584711  )
         8           S   tau(   8) = (   0.1250220   0.0721432   0.1241096  )
         9           S   tau(   9) = (  -0.0009222   0.1433430   0.6062350  )
        10           Mo  tau(  10) = (  -0.0011812   0.4330952   0.4826123  )
        11           Mo  tau(  11) = (   0.0000001   0.2886759  -0.4825273  )
        12           Mo  tau(  12) = (  -0.1249761   0.3608493  -0.0000533  )
        13           S   tau(  13) = (  -0.1249999   0.2165071  -0.6064556  )
        14           S   tau(  14) = (   0.0000232   0.2886904  -0.1241345  )
        15           S   tau(  15) = (  -0.1247753   0.3609305   0.3573291  )
        16           S   tau(  16) = (  -0.1249998   0.2165070  -0.3584711  )
        17           S   tau(  17) = (   0.0000901   0.2887289   0.1242236  )
        18           S   tau(  18) = (  -0.1263226   0.3605428   0.6062351  )
        19           Mo  tau(  19) = (  -0.1251400   0.6495983   0.4819363  )
        20           Mo  tau(  20) = (  -0.1250002   0.5051824  -0.4825273  )
        21           Mo  tau(  21) = (  -0.2500026   0.5773383  -0.0001491  )
        22           S   tau(  22) = (  -0.2500002   0.4330136  -0.6064556  )
        23           S   tau(  23) = (  -0.1249812   0.5051509  -0.1241919  )
        24           S   tau(  24) = (  -0.2500015   0.5775831   0.3575295  )
        25           S   tau(  25) = (  -0.2500001   0.4330135  -0.3584711  )
        26           S   tau(  26) = (  -0.1250129   0.5052153   0.1241101  )
        27           S   tau(  27) = (  -0.2500018   0.5771934   0.6060379  )
        28           Mo  tau(  28) = (   0.2499987  -0.0001601   0.4819365  )
        29           Mo  tau(  29) = (  -0.2500004   0.7216889  -0.4825273  )
        30           Mo  tau(  30) = (  -0.3750135   0.7938631  -0.0001491  )
        31           S   tau(  31) = (  -0.3750004   0.6495201  -0.6064556  )
        32           S   tau(  32) = (  -0.2500026   0.7216883  -0.1242347  )
        33           S   tau(  33) = (  -0.3747997   0.7937400   0.3575295  )
        34           S   tau(  34) = (  -0.3750004   0.6495200  -0.3584711  )
        35           S   tau(  35) = (  -0.2500029   0.7216883   0.1240299  )
        36           S   tau(  36) = (  -0.3751376   0.7939346   0.6060379  )
        37           Mo  tau(  37) = (   0.3755166   0.2154425   0.4826119  )
        38           Mo  tau(  38) = (   0.3750004   0.0721694  -0.4825273  )
        39           Mo  tau(  39) = (   0.2499990   0.1443474  -0.0000968  )
        40           S   tau(  40) = (   0.2500004   0.0000006  -0.6064556  )
        41           S   tau(  41) = (   0.3750152   0.0722028  -0.1241921  )
        42           S   tau(  42) = (   0.2499983   0.1443201   0.3580593  )
        43           S   tau(  43) = (   0.2500004   0.0000005  -0.3584711  )
        44           S   tau(  44) = (   0.3749754   0.0721432   0.1241106  )
        45           S   tau(  45) = (   0.2499987   0.1437775   0.6065499  )
        46           Mo  tau(  46) = (   0.2499984   0.4330123   0.4872880  )
        47           Mo  tau(  47) = (   0.2500001   0.2886759  -0.4825273  )
        48           Mo  tau(  48) = (   0.1250277   0.3608616  -0.0000572  )
        49           S   tau(  49) = (   0.1250001   0.2165071  -0.6064556  )
        50           S   tau(  50) = (   0.2499987   0.2886898  -0.1241693  )
        51           S   tau(  51) = (   0.1266397   0.3617911   0.3615924  )
        52           S   tau(  52) = (   0.1250002   0.2165070  -0.3584711  )
        53           S   tau(  53) = (   0.2499988   0.2886671   0.1241958  )
        54           S   tau(  54) = (   0.1173054   0.3564020   0.6108885  )
        55           Mo  tau(  55) = (   0.1243363   0.6504991   0.4826116  )
        56           Mo  tau(  56) = (   0.1249998   0.5051824  -0.4825273  )
        57           Mo  tau(  57) = (   0.0000060   0.5773464  -0.0000969  )
        58           S   tau(  58) = (  -0.0000002   0.4330136  -0.6064556  )
        59           S   tau(  59) = (   0.1250101   0.5051751  -0.1241696  )
        60           S   tau(  60) = (  -0.0000165   0.5773581   0.3580590  )
        61           S   tau(  61) = (  -0.0000001   0.4330135  -0.3584711  )
        62           S   tau(  62) = (   0.1249907   0.5051868   0.1241956  )
        63           S   tau(  63) = (  -0.0004863   0.5776299   0.6065497  )
        64           Mo  tau(  64) = (   0.5000682   0.0000393   0.4813064  )
        65           Mo  tau(  65) = (  -0.0000004   0.7216889  -0.4825273  )
        66           Mo  tau(  66) = (  -0.1249919   0.7938635  -0.0001489  )
        67           S   tau(  67) = (  -0.1250004   0.6495201  -0.6064556  )
        68           S   tau(  68) = (   0.0000350   0.7216859  -0.1241920  )
        69           S   tau(  69) = (  -0.1252051   0.7937392   0.3575294  )
        70           S   tau(  70) = (  -0.1250004   0.6495200  -0.3584711  )
        71           S   tau(  71) = (  -0.0000364   0.7216812   0.1241103  )
        72           S   tau(  72) = (  -0.1248667   0.7939344   0.6060378  )
        73           Mo  tau(  73) = (   0.6250985   0.2164481   0.4814760  )
        74           Mo  tau(  74) = (   0.6250004   0.0721694  -0.4825273  )
        75           Mo  tau(  75) = (   0.4999807   0.1443583  -0.0000532  )
        76           S   tau(  76) = (   0.5000004   0.0000006  -0.6064556  )
        77           S   tau(  77) = (   0.6249710   0.0721537  -0.1241599  )
        78           S   tau(  78) = (   0.4998101   0.1444887   0.3573287  )
        79           S   tau(  79) = (   0.5000004   0.0000005  -0.3584711  )
        80           S   tau(  80) = (   0.6250072   0.0721744   0.1241160  )
        81           S   tau(  81) = (   0.5009199   0.1433424   0.6062338  )
        82           Mo  tau(  82) = (   0.5011786   0.4330950   0.4826115  )
        83           Mo  tau(  83) = (   0.5000001   0.2886759  -0.4825273  )
        84           Mo  tau(  84) = (   0.3749686   0.3608615  -0.0000573  )
        85           S   tau(  85) = (   0.3750001   0.2165071  -0.6064556  )
        86           S   tau(  86) = (   0.4999725   0.2886900  -0.1241349  )
        87           S   tau(  87) = (   0.3733572   0.3617909   0.3615920  )
        88           S   tau(  88) = (   0.3750002   0.2165070  -0.3584711  )
        89           S   tau(  89) = (   0.4999057   0.2887288   0.1242238  )
        90           S   tau(  90) = (   0.3826919   0.3564018   0.6108876  )
        91           Mo  tau(  91) = (   0.3756598   0.6504996   0.4826113  )
        92           Mo  tau(  92) = (   0.3749998   0.5051824  -0.4825273  )
        93           Mo  tau(  93) = (   0.2499978   0.5773166  -0.0000576  )
        94           S   tau(  94) = (   0.2499998   0.4330136  -0.6064556  )
        95           S   tau(  95) = (   0.3749857   0.5051746  -0.1241697  )
        96           S   tau(  96) = (   0.2499981   0.5754545   0.3615919  )
        97           S   tau(  97) = (   0.2499999   0.4330135  -0.3584711  )
        98           S   tau(  98) = (   0.3750048   0.5051860   0.1241960  )
        99           S   tau(  99) = (   0.2499983   0.5862331   0.6108872  )
       100           Mo  tau( 100) = (   0.7499988   0.0001148   0.4814756  )
       101           Mo  tau( 101) = (   0.2499996   0.7216889  -0.4825273  )
       102           Mo  tau( 102) = (   0.1250062   0.7938321  -0.0000534  )
       103           S   tau( 103) = (   0.1249996   0.6495201  -0.6064556  )
       104           S   tau( 104) = (   0.2499971   0.7216593  -0.1241350  )
       105           S   tau( 105) = (   0.1250350   0.7936175   0.3573284  )
       106           S   tau( 106) = (   0.1249996   0.6495200  -0.3584711  )
       107           S   tau( 107) = (   0.2499972   0.7215818   0.1242234  )
       108           S   tau( 108) = (   0.1245975   0.7951515   0.6062336  )
       109           Mo  tau( 109) = (  -0.1251006   0.2164484   0.4814769  )
       110           Mo  tau( 110) = (   0.8750004   0.0721694  -0.4825273  )
       111           Mo  tau( 111) = (   0.7499976   0.1443379  -0.0001196  )
       112           S   tau( 112) = (   0.7500004   0.0000006  -0.6064556  )
       113           S   tau( 113) = (   0.8750246   0.0721533  -0.1241599  )
       114           S   tau( 114) = (   0.7499994   0.1443376   0.3572937  )
       115           S   tau( 115) = (   0.7500004   0.0000005  -0.3584711  )
       116           S   tau( 116) = (   0.8749884   0.0721739   0.1241157  )
       117           S   tau( 117) = (   0.7499987   0.1443370   0.6058240  )
       118           Mo  tau( 118) = (  -0.2500010   0.4329316   0.4813070  )
       119           Mo  tau( 119) = (   0.7500001   0.2886759  -0.4825273  )
       120           Mo  tau( 120) = (   0.6249710   0.3608493  -0.0000534  )
       121           S   tau( 121) = (   0.6250001   0.2165071  -0.6064556  )
       122           S   tau( 122) = (   0.7499973   0.2887067  -0.1241600  )
       123           S   tau( 123) = (   0.6247737   0.3609305   0.3573287  )
       124           S   tau( 124) = (   0.6250002   0.2165070  -0.3584711  )
       125           S   tau( 125) = (   0.7499971   0.2886649   0.1241160  )
       126           S   tau( 126) = (   0.6263203   0.3605423   0.6062340  )
       127           Mo  tau( 127) = (  -0.3748636   0.6495986   0.4819361  )
       128           Mo  tau( 128) = (   0.6249998   0.5051824  -0.4825273  )
       129           Mo  tau( 129) = (   0.4999891   0.5773453  -0.0000967  )
       130           S   tau( 130) = (   0.4999998   0.4330136  -0.6064556  )
       131           S   tau( 131) = (   0.6249761   0.5051506  -0.1241920  )
       132           S   tau( 132) = (   0.5000130   0.5773585   0.3580587  )
       133           S   tau( 133) = (   0.4999999   0.4330135  -0.3584711  )
       134           S   tau( 134) = (   0.6250081   0.5052147   0.1241104  )
       135           S   tau( 135) = (   0.5004826   0.5776298   0.6065487  )
       136           Mo  tau( 136) = (  -0.0000706   0.0000401   0.4813070  )
       137           Mo  tau( 137) = (   0.4999996   0.7216889  -0.4825273  )
       138           Mo  tau( 138) = (   0.3749881   0.7938314  -0.0000535  )
       139           S   tau( 139) = (   0.3749996   0.6495201  -0.6064556  )
       140           S   tau( 140) = (   0.4999594   0.7216844  -0.1241918  )
       141           S   tau( 141) = (   0.3749610   0.7936184   0.3573285  )
       142           S   tau( 142) = (   0.3749996   0.6495200  -0.3584711  )
       143           S   tau( 143) = (   0.5000310   0.7216802   0.1241101  )
       144           S   tau( 144) = (   0.3753979   0.7951517   0.6062337  )
       145           Pd  tau( 145) = (   0.2499985   0.4330123   0.7148096  )
       146           H   tau( 146) = (   0.1873119   0.6907077   0.6720003  )

     --------------------------------------------
     DFT-D3 Dispersion Correction (3-body terms):
     --------------------------------------------
       Reference C6 values for interpolation: 

         atom   Coordination number   C6
         H          0.912             6.05
         H          0.000            15.18
         S          0.000           268.01
         S          0.995           261.99
         S          1.990           251.62
         Mo         0.000          1691.79
         Mo         1.942          1004.01
         Mo        11.056           674.22
         Pd         0.000          1217.01
         Pd         1.863           573.90
         Pd         5.710           531.75

       Values used:

         atom   Coordination number  R0_AB[au]  C6      C8
         Mo        10.173            3.547    674.22  77634.20
         Mo        10.189            3.547    674.22  77634.20
         Mo        10.200            3.547    674.22  77634.20
         S          3.753            3.128    251.62  12327.25
         S          3.858            3.128    251.62  12327.25
         S          3.848            3.128    251.62  12327.25
         S          3.859            3.128    251.62  12327.25
         S          3.860            3.128    251.62  12327.25
         S          3.798            3.128    251.62  12327.25
         Mo        10.173            3.547    674.22  77634.20
         Mo        10.189            3.547    674.22  77634.20
         Mo        10.201            3.547    674.22  77634.20
         S          3.753            3.128    251.62  12327.25
         S          3.859            3.128    251.62  12327.25
         S          3.848            3.128    251.62  12327.25
         S          3.858            3.128    251.62  12327.25
         S          3.855            3.128    251.62  12327.25
         S          3.798            3.128    251.62  12327.25
         Mo        10.208            3.547    674.21  77634.20
         Mo        10.189            3.547    674.22  77634.20
         Mo        10.200            3.547    674.22  77634.20
         S          3.753            3.128    251.62  12327.25
         S          3.858            3.128    251.62  12327.25
         S          3.862            3.128    251.62  12327.25
         S          3.859            3.128    251.62  12327.25
         S          3.860            3.128    251.62  12327.25
         S          3.759            3.128    251.62  12327.25
         Mo        10.208            3.547    674.22  77634.20
         Mo        10.189            3.547    674.22  77634.20
         Mo        10.200            3.547    674.22  77634.20
         S          3.753            3.128    251.62  12327.25
         S          3.858            3.128    251.62  12327.25
         S          3.862            3.128    251.62  12327.25
         S          3.859            3.128    251.62  12327.25
         S          3.862            3.128    251.62  12327.25
         S          3.759            3.128    251.62  12327.25
         Mo        10.173            3.547    674.22  77634.20
         Mo        10.189            3.547    674.22  77634.20
         Mo        10.202            3.547    674.22  77634.20
         S          3.753            3.128    251.62  12327.25
         S          3.858            3.128    251.62  12327.25
         S          3.857            3.128    251.62  12327.25
         S          3.859            3.128    251.62  12327.25
         S          3.860            3.128    251.62  12327.25
         S          3.751            3.128    251.62  12327.25
         Mo        10.810            3.547    674.22  77634.20
         Mo        10.189            3.547    674.22  77634.20
         Mo        10.202            3.547    674.22  77634.20
         S          3.753            3.128    251.62  12327.25
         S          3.859            3.128    251.62  12327.25
         S          3.866            3.128    251.62  12327.25
         S          3.859            3.128    251.62  12327.25
         S          3.853            3.128    251.62  12327.25
         S          4.645            3.128    251.62  12327.25
         Mo        10.218            3.547    674.22  77634.20
         Mo        10.189            3.547    674.22  77634.20
         Mo        10.202            3.547    674.22  77634.20
         S          3.753            3.128    251.62  12327.25
         S          3.859            3.128    251.62  12327.25
         S          3.857            3.128    251.62  12327.25
         S          3.859            3.128    251.62  12327.25
         S          3.853            3.128    251.62  12327.25
         S          3.753            3.128    251.62  12327.25
         Mo        10.223            3.547    674.22  77634.20
         Mo        10.189            3.547    674.22  77634.20
         Mo        10.200            3.547    674.22  77634.20
         S          3.753            3.128    251.62  12327.25
         S          3.858            3.128    251.62  12327.25
         S          3.862            3.128    251.62  12327.25
         S          3.859            3.128    251.62  12327.25
         S          3.860            3.128    251.62  12327.25
         S          3.759            3.128    251.62  12327.25
         Mo        10.213            3.547    674.22  77634.20
         Mo        10.189            3.547    674.22  77634.20
         Mo        10.201            3.547    674.22  77634.20
         S          3.753            3.128    251.62  12327.25
         S          3.858            3.128    251.62  12327.25
         S          3.848            3.128    251.62  12327.25
         S          3.859            3.128    251.62  12327.25
         S          3.860            3.128    251.62  12327.25
         S          3.798            3.128    251.62  12327.25
         Mo        10.173            3.547    674.22  77634.20
         Mo        10.189            3.547    674.22  77634.20
         Mo        10.202            3.547    674.22  77634.20
         S          3.753            3.128    251.62  12327.25
         S          3.859            3.128    251.62  12327.25
         S          3.866            3.128    251.62  12327.25
         S          3.859            3.128    251.62  12327.25
         S          3.855            3.128    251.62  12327.25
         S          4.645            3.128    251.62  12327.25
         Mo        10.175            3.547    674.22  77634.20
         Mo        10.189            3.547    674.22  77634.20
         Mo        10.202            3.547    674.22  77634.20
         S          3.753            3.128    251.62  12327.25
         S          3.859            3.128    251.62  12327.25
         S          3.866            3.128    251.62  12327.25
         S          3.859            3.128    251.62  12327.25
         S          3.853            3.128    251.62  12327.25
         S          5.297            3.128    251.62  12327.25
         Mo        10.215            3.547    674.22  77634.20
         Mo        10.189            3.547    674.22  77634.20
         Mo        10.201            3.547    674.22  77634.20
         S          3.753            3.128    251.62  12327.25
         S          3.859            3.128    251.62  12327.25
         S          3.848            3.128    251.62  12327.25
         S          3.859            3.128    251.62  12327.25
         S          3.855            3.128    251.62  12327.25
         S          4.389            3.128    251.62  12327.25
         Mo        10.213            3.547    674.22  77634.20
         Mo        10.189            3.547    674.22  77634.20
         Mo        10.199            3.547    674.22  77634.20
         S          3.753            3.128    251.62  12327.25
         S          3.858            3.128    251.62  12327.25
         S          3.855            3.128    251.62  12327.25
         S          3.858            3.128    251.62  12327.25
         S          3.860            3.128    251.62  12327.25
         S          3.777            3.128    251.62  12327.25
         Mo        10.222            3.547    674.22  77634.20
         Mo        10.189            3.547    674.22  77634.20
         Mo        10.201            3.547    674.22  77634.20
         S          3.753            3.128    251.62  12327.25
         S          3.858            3.128    251.62  12327.25
         S          3.848            3.128    251.62  12327.25
         S          3.858            3.128    251.62  12327.25
         S          3.860            3.128    251.62  12327.25
         S          3.798            3.128    251.62  12327.25
         Mo        10.208            3.547    674.22  77634.20
         Mo        10.189            3.547    674.22  77634.20
         Mo        10.202            3.547    674.22  77634.20
         S          3.753            3.128    251.62  12327.25
         S          3.858            3.128    251.62  12327.25
         S          3.857            3.128    251.62  12327.25
         S          3.859            3.128    251.62  12327.25
         S          3.860            3.128    251.62  12327.25
         S          3.751            3.128    251.62  12327.25
         Mo        10.222            3.547    674.22  77634.20
         Mo        10.189            3.547    674.22  77634.20
         Mo        10.201            3.547    674.22  77634.20
         S          3.753            3.128    251.62  12327.25
         S          3.858            3.128    251.62  12327.25
         S          3.848            3.128    251.62  12327.25
         S          3.859            3.128    251.62  12327.25
         S          3.860            3.128    251.62  12327.25
         S          3.801            3.128    251.62  12327.25
         Pd         3.772            3.168    556.85  51020.36
         H          1.301            2.062      6.07     73.35

         Molecular C6 ( Ry / a.u.^6 ) =   7802099.77


     number of k points=     4  Gaussian smearing, width (Ry)=  0.0100
                       cart. coord. in units 2pi/alat
        k(    1) = (   0.0000000   0.0000000   0.0000000), wk =   0.5000000
        k(    2) = (   0.0000000  -0.5773499   0.0000000), wk =   0.5000000
        k(    3) = (  -0.5000000  -0.2886755   0.0000000), wk =   0.5000000
        k(    4) = (  -0.5000000  -0.8660254   0.0000000), wk =   0.5000000

     Dense  grid:  5955087 G-vectors     FFT dimensions: ( 180, 180, 432)

     Smooth grid:  2572543 G-vectors     FFT dimensions: ( 135, 135, 320)

     Estimated max dynamical RAM per process >       2.13 GB

     Estimated total dynamical RAM >      76.81 GB

     Initial potential from superposition of free atoms

     starting charge    1266.9542, renormalised to    1267.0000

     negative rho (up, down):  9.284E-04 0.000E+00
     Starting wfcs are  875 randomized atomic wfcs
     Checking if some PAW data can be deallocated... 

     total cpu time spent up to now is      102.4 secs

     Self-consistent Calculation

     iteration #  1     ecut=    77.00 Ry     beta= 0.20
     Davidson diagonalization with overlap
     ethr =  1.00E-02,  avg # of iterations =  2.0

     Threshold (ethr) on eigenvalues was too large:
     Diagonalizing with lowered threshold

     Davidson diagonalization with overlap
     ethr =  1.66E-04,  avg # of iterations = 18.8

     negative rho (up, down):  2.821E-04 0.000E+00

     total cpu time spent up to now is     1204.7 secs

     total energy              =  -24358.16262142 Ry
     estimated scf accuracy    <       5.10513625 Ry

     iteration #  2     ecut=    77.00 Ry     beta= 0.20
     Davidson diagonalization with overlap
     ethr =  4.03E-04,  avg # of iterations =  1.8

     negative rho (up, down):  3.964E-05 0.000E+00

     total cpu time spent up to now is     1417.2 secs

     total energy              =  -24357.13506218 Ry
     estimated scf accuracy    <       2.64387728 Ry

     iteration #  3     ecut=    77.00 Ry     beta= 0.20
     Davidson diagonalization with overlap
     ethr =  2.09E-04,  avg # of iterations = 12.2

     negative rho (up, down):  2.967E-05 0.000E+00

     total cpu time spent up to now is     1714.2 secs

     total energy              =  -24357.48226896 Ry
     estimated scf accuracy    <       0.68449796 Ry

     iteration #  4     ecut=    77.00 Ry     beta= 0.20
     Davidson diagonalization with overlap
     ethr =  5.40E-05,  avg # of iterations = 16.8

     negative rho (up, down):  3.345E-05 0.000E+00

     total cpu time spent up to now is     2310.9 secs

     total energy              =  -24358.03846771 Ry
     estimated scf accuracy    <       0.32906940 Ry

     iteration #  5     ecut=    77.00 Ry     beta= 0.20
     Davidson diagonalization with overlap
     c_bands:  2 eigenvalues not converged
     ethr =  2.60E-05,  avg # of iterations = 14.2

     negative rho (up, down):  5.857E-05 0.000E+00

     total cpu time spent up to now is     2680.4 secs

     total energy              =  -24358.13907608 Ry
     estimated scf accuracy    <       0.16582687 Ry

     iteration #  6     ecut=    77.00 Ry     beta= 0.20
     Davidson diagonalization with overlap
     c_bands:  4 eigenvalues not converged
     ethr =  1.31E-05,  avg # of iterations = 14.0

     negative rho (up, down):  1.967E-04 0.000E+00

     total cpu time spent up to now is     2981.7 secs

     total energy              =  -24358.13127723 Ry
     estimated scf accuracy    <       0.11789473 Ry

     iteration #  7     ecut=    77.00 Ry     beta= 0.20
     Davidson diagonalization with overlap
     c_bands:  3 eigenvalues not converged
     c_bands:  1 eigenvalues not converged
     c_bands:  4 eigenvalues not converged
     ethr =  9.31E-06,  avg # of iterations = 42.2

     negative rho (up, down):  7.278E-04 0.000E+00

     total cpu time spent up to now is     3573.4 secs

     total energy              =  -24358.16398165 Ry
     estimated scf accuracy    <       0.04429305 Ry

     iteration #  8     ecut=    77.00 Ry     beta= 0.20
     Davidson diagonalization with overlap
     c_bands:  4 eigenvalues not converged
     c_bands:  4 eigenvalues not converged
     c_bands:  1 eigenvalues not converged
     c_bands:  3 eigenvalues not converged
     ethr =  3.50E-06,  avg # of iterations = 20.0

     negative rho (up, down):  5.866E-04 0.000E+00

     total cpu time spent up to now is     4194.4 secs

     total energy              =  -24358.18038520 Ry
     estimated scf accuracy    <       0.09728920 Ry

     iteration #  9     ecut=    77.00 Ry     beta= 0.20
     Davidson diagonalization with overlap
     c_bands:  2 eigenvalues not converged
     c_bands:  3 eigenvalues not converged
     ethr =  3.50E-06,  avg # of iterations = 16.5

     negative rho (up, down):  4.993E-04 0.000E+00

     total cpu time spent up to now is     4500.5 secs

     total energy              =  -24358.17561089 Ry
     estimated scf accuracy    <       0.02333355 Ry

     iteration # 10     ecut=    77.00 Ry     beta= 0.20
     Davidson diagonalization with overlap
     c_bands:  5 eigenvalues not converged
     c_bands:  5 eigenvalues not converged
     ethr =  1.84E-06,  avg # of iterations = 32.2

     negative rho (up, down):  5.648E-04 0.000E+00

     total cpu time spent up to now is     5136.2 secs

     total energy              =  -24358.19430818 Ry
     estimated scf accuracy    <       0.00252109 Ry

     iteration # 11     ecut=    77.00 Ry     beta= 0.20
     Davidson diagonalization with overlap
     ethr =  1.99E-07,  avg # of iterations = 17.5

     negative rho (up, down):  5.938E-04 0.000E+00

     total cpu time spent up to now is     5801.9 secs

     total energy              =  -24358.19792939 Ry
     estimated scf accuracy    <       0.00222221 Ry

     iteration # 12     ecut=    77.00 Ry     beta= 0.20
     Davidson diagonalization with overlap
     ethr =  1.75E-07,  avg # of iterations =  1.5

     negative rho (up, down):  9.281E-04 0.000E+00

     total cpu time spent up to now is     6009.7 secs

     total energy              =  -24358.19690268 Ry
     estimated scf accuracy    <       0.00160422 Ry

     iteration # 13     ecut=    77.00 Ry     beta= 0.20
     Davidson diagonalization with overlap
     ethr =  1.27E-07,  avg # of iterations = 14.2

     negative rho (up, down):  8.552E-04 0.000E+00

     total cpu time spent up to now is     6426.1 secs

     total energy              =  -24358.19772172 Ry
     estimated scf accuracy    <       0.00037755 Ry

     iteration # 14     ecut=    77.00 Ry     beta= 0.20
     Davidson diagonalization with overlap
     c_bands:  5 eigenvalues not converged
     ethr =  2.98E-08,  avg # of iterations = 30.5

     negative rho (up, down):  8.379E-04 0.000E+00

     total cpu time spent up to now is     7045.6 secs

     total energy              =  -24358.19802346 Ry
     estimated scf accuracy    <       0.00008925 Ry

     iteration # 15     ecut=    77.00 Ry     beta= 0.20
     Davidson diagonalization with overlap
     c_bands:  4 eigenvalues not converged
     ethr =  7.04E-09,  avg # of iterations = 18.5

     negative rho (up, down):  8.943E-04 0.000E+00

     total cpu time spent up to now is     7552.1 secs

     total energy              =  -24358.19805128 Ry
     estimated scf accuracy    <       0.00010024 Ry

     iteration # 16     ecut=    77.00 Ry     beta= 0.20
     Davidson diagonalization with overlap
     c_bands:  1 eigenvalues not converged
     ethr =  7.04E-09,  avg # of iterations = 13.0

     negative rho (up, down):  9.307E-04 0.000E+00

     total cpu time spent up to now is     7805.9 secs

     total energy              =  -24358.19804850 Ry
     estimated scf accuracy    <       0.00001507 Ry

     iteration # 17     ecut=    77.00 Ry     beta= 0.20
     Davidson diagonalization with overlap
     c_bands:  1 eigenvalues not converged
     c_bands:  3 eigenvalues not converged
     ethr =  1.19E-09,  avg # of iterations = 19.8

     negative rho (up, down):  9.309E-04 0.000E+00

     total cpu time spent up to now is     8689.2 secs

     total energy              =  -24358.19807602 Ry
     estimated scf accuracy    <       0.00005338 Ry

     iteration # 18     ecut=    77.00 Ry     beta= 0.20
     Davidson diagonalization with overlap
     ethr =  1.19E-09,  avg # of iterations =  7.5

     negative rho (up, down):  9.228E-04 0.000E+00

     total cpu time spent up to now is     8953.8 secs

     total energy              =  -24358.19807535 Ry
     estimated scf accuracy    <       0.00002064 Ry

     iteration # 19     ecut=    77.00 Ry     beta= 0.20
     Davidson diagonalization with overlap
     ethr =  1.19E-09,  avg # of iterations =  7.5

     negative rho (up, down):  9.267E-04 0.000E+00

     total cpu time spent up to now is     9236.3 secs

     total energy              =  -24358.19807145 Ry
     estimated scf accuracy    <       0.00000842 Ry

     iteration # 20     ecut=    77.00 Ry     beta= 0.20
     Davidson diagonalization with overlap
     ethr =  6.65E-10,  avg # of iterations =  9.8

     negative rho (up, down):  9.322E-04 0.000E+00

     total cpu time spent up to now is     9742.4 secs

     total energy              =  -24358.19807867 Ry
     estimated scf accuracy    <       0.00001367 Ry

     iteration # 21     ecut=    77.00 Ry     beta= 0.20
     Davidson diagonalization with overlap
     ethr =  6.65E-10,  avg # of iterations =  1.5

     negative rho (up, down):  9.345E-04 0.000E+00

     total cpu time spent up to now is     9951.1 secs

     total energy              =  -24358.19807709 Ry
     estimated scf accuracy    <       0.00000438 Ry

     iteration # 22     ecut=    77.00 Ry     beta= 0.20
     Davidson diagonalization with overlap
     ethr =  3.46E-10,  avg # of iterations =  5.0

     negative rho (up, down):  9.375E-04 0.000E+00

     total cpu time spent up to now is    10183.9 secs

     total energy              =  -24358.19807500 Ry
     estimated scf accuracy    <       0.00000199 Ry

     iteration # 23     ecut=    77.00 Ry     beta= 0.20
     Davidson diagonalization with overlap
     c_bands:  2 eigenvalues not converged
     ethr =  1.57E-10,  avg # of iterations = 16.2

     negative rho (up, down):  9.386E-04 0.000E+00

     total cpu time spent up to now is    10728.7 secs

     total energy              =  -24358.19807818 Ry
     estimated scf accuracy    <       0.00000269 Ry

     iteration # 24     ecut=    77.00 Ry     beta= 0.20
     Davidson diagonalization with overlap
     c_bands:  2 eigenvalues not converged
     ethr =  1.57E-10,  avg # of iterations =  5.8

     negative rho (up, down):  9.381E-04 0.000E+00

     total cpu time spent up to now is    10945.4 secs

     total energy              =  -24358.19807711 Ry
     estimated scf accuracy    <       0.00000269 Ry

     iteration # 25     ecut=    77.00 Ry     beta= 0.20
     Davidson diagonalization with overlap
     ethr =  1.57E-10,  avg # of iterations =  1.0

     negative rho (up, down):  9.391E-04 0.000E+00

     total cpu time spent up to now is    11144.3 secs

     End of self-consistent calculation

          k = 0.0000 0.0000 0.0000 (321495 PWs)   bands (ev):

   -88.7572 -66.6582 -66.6371 -66.6371 -66.6371 -66.6371 -66.6371 -66.6371
   -66.6160 -66.6160 -66.6160 -66.6159 -66.6159 -66.6159 -66.6159 -66.6159
   -66.6159 -66.5943 -66.5737 -66.5735 -66.5735 -66.5729 -66.5729 -66.5726
   -66.5530 -66.5529 -66.5526 -66.5524 -66.5521 -66.5520 -66.5519 -66.5515
   -66.5513 -66.5510 -66.5421 -66.5363 -66.5326 -66.5273 -66.5246 -66.5184
   -66.5173 -66.5123 -66.5091 -66.5025 -66.4985 -66.4912 -66.4764 -66.4557
   -66.4330 -54.5927 -54.5618 -54.5238 -40.9847 -40.9847 -40.9846 -40.9199
   -40.9195 -40.9193 -40.9099 -40.9099 -40.9098 -40.9098 -40.9098 -40.9098
   -40.8760 -40.8672 -40.8645 -40.8452 -40.8451 -40.8449 -40.8447 -40.8445
   -40.8444 -40.8183 -40.8039 -40.8011 -40.7964 -40.7942 -40.7843 -40.7843
   -40.7843 -40.7843 -40.7843 -40.7842 -40.7771 -40.7769 -40.7769 -40.7769
   -40.7769 -40.7769 -40.7768 -40.7663 -40.7550 -40.7494 -40.7494 -40.7494
   -40.7494 -40.7494 -40.7494 -40.7352 -40.7352 -40.7352 -40.7352 -40.7352
   -40.7352 -40.7351 -40.7351 -40.7351 -40.7198 -40.7195 -40.7194 -40.7193
   -40.7192 -40.7190 -40.7170 -40.7141 -40.7139 -40.7138 -40.7134 -40.7132
   -40.7130 -40.6877 -40.6851 -40.6849 -40.6848 -40.6847 -40.6846 -40.6843
   -40.6842 -40.6812 -40.6784 -40.6763 -40.6743 -40.6728 -40.6726 -40.6723
   -40.6721 -40.6720 -40.6718 -40.6716 -40.6716 -40.6716 -40.6716 -40.6712
   -40.6710 -40.6708 -40.6688 -40.6660 -40.6634 -40.6581 -40.6552 -40.6484
   -40.6439 -40.6406 -40.6393 -40.6370 -40.6332 -40.6313 -40.6295 -40.6267
   -40.6248 -40.6248 -40.6248 -40.6248 -40.6248 -40.6248 -40.6222 -40.6212
   -40.6139 -40.6069 -40.6068 -40.6068 -40.6024 -40.6006 -40.5775 -40.5775
   -40.5605 -40.5604 -40.5602 -40.5600 -40.5598 -40.5596 -40.5594 -40.5533
   -40.5522 -40.5420 -40.5158 -40.5128 -40.5128 -40.5100 -40.5062 -40.5007
   -40.4945 -40.4857 -40.4525 -40.4361 -20.1119 -20.0451 -19.8990 -19.4836
   -19.2403 -19.2297 -19.2270 -19.2262 -19.2259 -19.2167 -19.1834 -19.1532
   -19.1315 -19.1225 -19.1198 -19.0721 -19.0491 -19.0372 -19.0179 -19.0027
   -18.9981 -18.8525 -18.7088 -18.5903 -18.4947 -18.4769 -18.4688 -18.4378
   -18.4319 -18.4304 -18.3913 -18.3545 -18.3476 -18.3190 -18.2864 -18.2827
   -18.2415 -18.1995 -18.1932 -18.1809 -18.1502 -18.1475 -18.1334 -18.1196
   -18.1192 -18.1191 -18.1185 -18.1184 -18.1180 -18.0981 -18.0782 -18.0781
   -18.0781 -18.0611 -18.0521 -18.0461 -18.0450 -18.0393 -18.0335 -18.0245
   -18.0123 -18.0106 -18.0068 -17.9808 -17.9705 -17.9676 -17.9591 -17.9546
   -17.9521 -17.9248 -17.9231 -17.9172 -17.9122 -17.9031 -17.8991 -17.8957
   -17.8945 -17.8936 -17.8684 -17.8676 -17.8569 -17.8467 -17.8394 -17.8322
   -17.8270 -17.8244 -17.8232 -17.8043 -17.8017 -17.7941 -17.7737 -17.7679
   -17.7634 -17.7568 -17.7517 -17.7501 -12.5557 -11.9162 -11.7420 -11.7383
   -11.7341 -11.7052 -11.6852 -11.6582 -11.6381 -11.6226 -11.6000 -11.4470
   -11.2340 -11.1984 -11.1935 -11.1875 -11.1863 -11.1824 -11.1478 -11.1225
   -11.1155 -11.1106 -11.1089 -11.1085 -11.1023 -11.0724 -11.0670 -11.0247
   -11.0007 -10.9920 -10.9745 -10.9682 -10.9583 -10.9548 -10.9166 -10.9095
   -10.9065 -10.9058 -10.9008 -10.8994 -10.8888 -10.8857 -10.8542 -10.8438
   -10.8176 -10.8122 -10.8112 -10.8105 -10.8088 -10.8086 -10.8032 -10.7931
   -10.7859 -10.7816 -10.7812 -10.7763 -10.7693 -10.7668 -10.7650 -10.7626
   -10.7616 -10.7595 -10.7384 -10.7249 -10.7135 -10.7110 -10.6857 -10.6563
   -10.6475 -10.6273 -10.6108 -10.5986 -10.5875 -10.5830 -10.5810 -10.2339
   -10.2123 -10.0304 -10.0258 -10.0248  -9.9244  -9.9022  -9.8757  -9.8610
    -9.7959  -9.7745  -9.7648  -9.7598  -9.7576  -9.7549  -9.7479  -9.7310
    -9.7006  -9.6931  -9.6858  -9.6745  -9.6696  -9.6616  -9.6592  -9.6228
    -9.6074  -9.6059  -9.6032  -9.5995  -9.5953  -9.5798  -9.5617  -9.5553
    -9.5547  -9.5545  -9.5532  -9.5513  -9.5497  -9.5475  -9.5293  -9.5214
    -9.5182  -9.5074  -9.5024  -9.4991  -9.4378  -9.4321  -9.4159  -9.4133
    -9.4122  -9.4097  -9.3725  -9.3369  -9.3248  -9.3081  -9.3037  -9.2913
    -9.2895  -9.2815  -9.2492  -9.2222  -9.2131  -9.1871  -9.1851  -9.1776
    -9.1767  -9.1711  -9.1665  -9.1542  -9.0728  -9.0458  -9.0228  -9.0105
    -9.0039  -8.9984  -8.9978  -8.9968  -8.9960  -8.9945  -8.9852  -8.9380
    -8.9214  -8.9187  -8.9107  -8.8993  -8.8927  -8.8594  -8.8530  -8.8350
    -8.8330  -8.7914  -8.7874  -8.7826  -8.7817  -8.7791  -8.7725  -8.7610
    -8.7590  -8.7260  -8.7224  -8.7199  -8.7062  -8.7027  -8.6997  -8.6974
    -8.6892  -8.6774  -8.6717  -8.4553  -8.4075  -8.4075  -8.3888  -8.3597
    -8.3373  -8.3371  -8.2958  -8.2956  -8.2956  -8.2955  -8.2954  -8.2954
    -8.2806  -8.2697  -8.2408  -8.2353  -8.2327  -8.2297  -8.2197  -8.2196
    -8.2055  -8.1995  -8.1934  -8.1838  -8.1598  -8.0251  -8.0078  -7.9431
    -7.8985  -7.8943  -7.7568  -7.7102  -7.6879  -7.6640  -7.5732  -7.5610
    -7.5604  -7.5603  -7.5601  -7.5600  -7.5594  -7.5437  -7.5204  -7.5148
    -7.5144  -7.5137  -7.5136  -7.5136  -7.5133  -7.5060  -7.5000  -7.4976
    -7.4903  -7.4874  -7.4837  -7.4770  -7.4688  -7.4680  -7.4635  -7.4556
    -7.4530  -7.4478  -7.4464  -7.4425  -7.4357  -7.4313  -7.4261  -7.4186
    -7.4084  -7.4037  -7.4031  -7.4012  -7.4008  -7.3984  -7.3887  -7.3749
    -7.3152  -7.2786  -7.2786  -7.2419  -7.2339  -7.2215  -7.2107  -7.2100
    -7.1887  -7.1741  -7.1672  -7.1492  -7.0695  -6.9767  -6.9685  -6.9103
    -6.9002  -6.8990  -6.8433  -6.8337  -6.8220  -6.7864  -6.7755  -6.7753
    -6.7264  -6.7044  -6.6767  -6.6694  -6.6363  -6.6305  -6.6102  -6.6000
    -6.5931  -6.5900  -6.5890  -6.5826  -6.5650  -6.5139  -6.5065  -6.5012
    -6.4979  -6.4966  -6.4871  -6.4861  -6.4819  -6.4610  -6.4430  -6.4379
    -6.4255  -6.4184  -6.4149  -6.4132  -6.4082  -6.4049  -6.3587  -6.3333
    -6.3273  -6.3266  -6.3266  -6.3266  -6.3266  -6.3265  -6.3259  -6.2971
    -6.2658  -6.2544  -6.2534  -6.2515  -6.2512  -6.2483  -6.2412  -6.2143
    -6.2102  -6.1736  -6.1498  -6.1452  -5.9292  -5.7395  -5.6934  -5.4694
    -5.1315  -4.3928  -3.8941  -3.8223  -3.8172  -3.8150  -3.8149  -3.7996
    -3.7865  -3.7849  -3.7825  -3.7823  -3.7807  -3.7628  -3.7088  -3.5993
    -3.5871  -3.5768  -3.5747  -3.5737  -3.5681  -3.5623  -3.5609  -3.5594
    -3.5570  -3.4764  -3.4672  -3.4672  -3.4672  -3.4555  -3.4533  -3.4518
    -3.4508  -3.4493  -3.4458  -3.4037  -3.4028  -3.4025  -3.3903  -3.3817
    -3.3752  -3.3652  -3.3623  -3.3602  -3.3578  -3.3569  -3.3537  -3.3505
    -3.3468  -3.3435  -3.3394  -3.3307  -3.3182  -3.3003  -3.2843  -3.2742
    -3.2638  -3.2628  -3.2479  -3.2429  -3.2353  -3.2275  -3.2206  -3.2175
    -3.0615  -3.0020  -3.0018  -3.0008  -2.9966  -2.9963  -2.9513  -2.9418
    -2.9375  -2.9296  -2.9292  -2.9287  -2.9285  -2.9283  -2.9281  -2.9147
    -2.9138  -2.9118  -2.9008  -2.8993  -2.8899  -2.8822  -2.8815  -2.8772
    -2.8726  -2.8684  -2.8669  -2.8643  -2.8622  -2.8612  -2.8572  -2.8450
    -2.8443  -2.8177  -2.8079  -2.8026  -2.7864  -2.7764  -2.7736  -2.7530
    -2.7496  -2.7211  -2.7178  -2.7100  -2.7081  -2.7068  -2.7053  -2.6948
    -2.6872  -2.6662  -2.6470  -2.6394  -2.6244  -2.6219  -2.6164  -2.6149
    -2.6139  -2.5659  -2.5307  -2.4800  -2.4549  -2.4518  -2.4433  -2.4401
    -2.4363

          k = 0.0000-0.5773 0.0000 (321564 PWs)   bands (ev):

   -88.7572 -66.6521 -66.6520 -66.6415 -66.6415 -66.6265 -66.6265 -66.6265
   -66.6265 -66.6221 -66.6221 -66.6159 -66.6159 -66.6159 -66.6159 -66.6115
   -66.6115 -66.5884 -66.5878 -66.5776 -66.5775 -66.5628 -66.5627 -66.5626
   -66.5624 -66.5585 -66.5579 -66.5525 -66.5523 -66.5518 -66.5514 -66.5493
   -66.5480 -66.5476 -66.5475 -66.5368 -66.5286 -66.5277 -66.5260 -66.5188
   -66.5148 -66.5124 -66.5103 -66.5027 -66.4985 -66.4912 -66.4765 -66.4556
   -66.4330 -54.5927 -54.5618 -54.5238 -40.9533 -40.9532 -40.9532 -40.9532
   -40.9266 -40.9266 -40.9147 -40.9147 -40.8886 -40.8884 -40.8881 -40.8875
   -40.8642 -40.8642 -40.8642 -40.8642 -40.8618 -40.8613 -40.8497 -40.8495
   -40.8428 -40.8408 -40.8405 -40.8271 -40.8207 -40.8171 -40.8062 -40.8062
   -40.7994 -40.7993 -40.7992 -40.7990 -40.7963 -40.7963 -40.7946 -40.7855
   -40.7855 -40.7825 -40.7561 -40.7561 -40.7561 -40.7560 -40.7481 -40.7474
   -40.7474 -40.7432 -40.7430 -40.7426 -40.7396 -40.7353 -40.7353 -40.7352
   -40.7352 -40.7352 -40.7351 -40.7315 -40.7314 -40.7277 -40.7265 -40.7265
   -40.7222 -40.7221 -40.7063 -40.7049 -40.7046 -40.7045 -40.7045 -40.7045
   -40.6929 -40.6929 -40.6927 -40.6927 -40.6896 -40.6844 -40.6838 -40.6795
   -40.6783 -40.6723 -40.6723 -40.6717 -40.6717 -40.6713 -40.6705 -40.6704
   -40.6700 -40.6700 -40.6700 -40.6700 -40.6657 -40.6633 -40.6632 -40.6581
   -40.6580 -40.6579 -40.6560 -40.6496 -40.6478 -40.6422 -40.6400 -40.6400
   -40.6395 -40.6394 -40.6388 -40.6388 -40.6357 -40.6342 -40.6257 -40.6221
   -40.6219 -40.6219 -40.6183 -40.6144 -40.6054 -40.6053 -40.6052 -40.6050
   -40.6016 -40.5936 -40.5935 -40.5929 -40.5914 -40.5914 -40.5902 -40.5875
   -40.5829 -40.5742 -40.5738 -40.5575 -40.5572 -40.5570 -40.5556 -40.5522
   -40.5495 -40.5394 -40.5324 -40.5287 -40.5270 -40.5270 -40.5264 -40.5178
   -40.4854 -40.4768 -40.4651 -40.4596 -19.9383 -19.8585 -19.8371 -19.7615
   -19.6805 -19.6377 -19.4368 -19.4233 -19.3845 -19.3318 -19.2487 -19.2145
   -18.9625 -18.7655 -18.7323 -18.7166 -18.7134 -18.7121 -18.7057 -18.6925
   -18.6509 -18.6177 -18.6092 -18.5881 -18.5747 -18.5635 -18.5311 -18.5269
   -18.5200 -18.5108 -18.4665 -18.4646 -18.4368 -18.4309 -18.4067 -18.3843
   -18.3793 -18.3670 -18.3457 -18.3037 -18.2540 -18.2484 -18.2234 -18.2113
   -18.1953 -18.1891 -18.1504 -18.1371 -18.1138 -18.0990 -18.0989 -18.0988
   -18.0986 -18.0864 -18.0798 -18.0727 -18.0541 -18.0406 -18.0356 -18.0293
   -18.0239 -18.0145 -18.0119 -17.9945 -17.9815 -17.9759 -17.9655 -17.9613
   -17.9596 -17.9558 -17.9230 -17.9170 -17.9109 -17.9080 -17.9017 -17.8984
   -17.8619 -17.8514 -17.8490 -17.8375 -17.8349 -17.8349 -17.7979 -17.7919
   -17.7864 -17.7780 -17.7772 -17.7707 -17.7612 -17.7607 -17.7468 -17.7301
   -17.7194 -17.7147 -17.6775 -17.6701 -12.5146 -11.6694 -11.6508 -11.5227
   -11.4613 -11.4486 -11.4481 -11.4437 -11.4345 -11.4238 -11.4170 -11.3896
   -11.3768 -11.3659 -11.3415 -11.3372 -11.3229 -11.3113 -11.3022 -11.2928
   -11.2693 -11.2590 -11.2581 -11.2293 -11.2275 -11.2275 -11.1984 -11.1846
   -11.1840 -11.1693 -11.1337 -11.1308 -11.1270 -11.1262 -11.0665 -11.0109
   -10.9748 -10.9592 -10.9509 -10.9350 -10.9286 -10.8908 -10.8827 -10.8797
   -10.8697 -10.8493 -10.8296 -10.8234 -10.8190 -10.8037 -10.8022 -10.8012
   -10.7994 -10.7949 -10.7904 -10.7866 -10.7725 -10.7636 -10.7574 -10.7410
   -10.7274 -10.7266 -10.7187 -10.6803 -10.5784 -10.5415 -10.4823 -10.4694
   -10.4323 -10.3763 -10.3311 -10.3125 -10.2531 -10.1975 -10.1287 -10.1006
   -10.0964 -10.0876 -10.0610 -10.0178 -10.0109  -9.9862  -9.9580  -9.9264
    -9.9146  -9.9109  -9.9107  -9.9057  -9.9003  -9.8791  -9.8738  -9.8687
    -9.8661  -9.8575  -9.8097  -9.7928  -9.7835  -9.7559  -9.7424  -9.7304
    -9.7264  -9.7113  -9.6985  -9.6840  -9.6837  -9.6751  -9.6680  -9.6567
    -9.6294  -9.6270  -9.6167  -9.6004  -9.5974  -9.5933  -9.5894  -9.5864
    -9.5257  -9.5046  -9.4995  -9.4885  -9.4811  -9.4639  -9.4445  -9.4420
    -9.4327  -9.4180  -9.3561  -9.2962  -9.2545  -9.2368  -9.2307  -9.1729
    -9.1592  -9.1371  -9.1321  -9.1172  -9.1078  -9.1058  -9.1021  -9.0963
    -9.0759  -9.0441  -9.0288  -9.0114  -9.0058  -8.9912  -8.9840  -8.9748
    -8.9651  -8.9538  -8.9462  -8.9431  -8.9311  -8.9193  -8.9174  -8.9104
    -8.9052  -8.9033  -8.9022  -8.8885  -8.8660  -8.8627  -8.8399  -8.8299
    -8.8283  -8.8223  -8.8153  -8.8106  -8.8099  -8.8050  -8.8045  -8.7979
    -8.7896  -8.7870  -8.7765  -8.7469  -8.7379  -8.7314  -8.7190  -8.7158
    -8.7021  -8.6864  -8.5404  -8.4850  -8.4824  -8.4704  -8.4490  -8.4051
    -8.3967  -8.3898  -8.2510  -8.2152  -8.1763  -8.1639  -8.1639  -8.0958
    -8.0942  -8.0745  -8.0700  -8.0496  -7.9943  -7.9231  -7.9089  -7.9020
    -7.8848  -7.8507  -7.8387  -7.8331  -7.8296  -7.8218  -7.8210  -7.8174
    -7.8172  -7.8170  -7.8131  -7.7765  -7.7738  -7.7720  -7.7716  -7.7672
    -7.7577  -7.7527  -7.7499  -7.7431  -7.7325  -7.7286  -7.7199  -7.7169
    -7.7099  -7.7003  -7.6958  -7.6942  -7.6877  -7.6833  -7.6776  -7.6747
    -7.6625  -7.6566  -7.6356  -7.6320  -7.6320  -7.6280  -7.6240  -7.6039
    -7.5995  -7.5969  -7.5790  -7.5699  -7.5664  -7.5659  -7.5455  -7.5296
    -7.5063  -7.4837  -7.4680  -7.4521  -7.4312  -7.3659  -7.2918  -7.2622
    -7.2333  -7.2180  -7.2038  -7.1889  -7.1719  -7.1312  -7.0990  -7.0937
    -7.0591  -7.0517  -7.0175  -7.0002  -6.9833  -6.9781  -6.9572  -6.9489
    -6.9270  -6.9231  -6.9212  -6.9091  -6.8723  -6.8673  -6.8484  -6.8167
    -6.8065  -6.8027  -6.7945  -6.7498  -6.7153  -6.6640  -6.6638  -6.6289
    -6.6289  -6.6289  -6.6288  -6.6253  -6.6045  -6.5930  -6.5851  -6.5656
    -6.5622  -6.5614  -6.5594  -6.5266  -6.5155  -6.5026  -6.4993  -6.4490
    -6.4349  -6.4004  -6.3676  -6.2980  -6.2979  -6.2975  -6.2971  -6.2431
    -6.2357  -6.2297  -6.2272  -6.2232  -6.2213  -6.2094  -6.1935  -6.1815
    -6.1791  -6.1722  -6.1615  -6.1591  -5.9489  -5.9488  -5.9394  -5.9041
    -5.9003  -5.8688  -5.8683  -5.7426  -5.6872  -5.6546  -5.6472  -5.5299
    -5.4941  -4.3928  -4.0034  -3.9979  -3.9896  -3.9685  -3.8730  -3.8642
    -3.8641  -3.8528  -3.8031  -3.8020  -3.8000  -3.7631  -3.7608  -3.7523
    -3.7457  -3.7216  -3.6676  -3.6427  -3.5789  -3.5725  -3.5688  -3.5678
    -3.5579  -3.5506  -3.5501  -3.5297  -3.5212  -3.5159  -3.4900  -3.4822
    -3.4780  -3.4649  -3.4578  -3.4521  -3.4508  -3.4456  -3.4427  -3.4272
    -3.4097  -3.3810  -3.3683  -3.3496  -3.3486  -3.3399  -3.3286  -3.3187
    -3.3171  -3.2912  -3.2868  -3.2842  -3.2799  -3.2601  -3.2432  -3.2427
    -3.2420  -3.2409  -3.2334  -3.2223  -3.2188  -3.2088  -3.2019  -3.1960
    -3.1893  -3.1861  -3.1841  -3.1755  -3.1695  -3.1550  -3.1250  -3.1213
    -3.1079  -3.0963  -3.0867  -3.0414  -3.0394  -3.0346  -3.0065  -3.0012
    -3.0000  -2.9788  -2.9785  -2.9780  -2.9777  -2.9672  -2.9493  -2.9381
    -2.9333  -2.9307  -2.9256  -2.9169  -2.9059  -2.8965  -2.8947  -2.8870
    -2.8798  -2.8768  -2.8653  -2.8591  -2.8549  -2.8382  -2.8322  -2.8107
    -2.8080  -2.8028  -2.7915  -2.7766  -2.7675  -2.7265  -2.7046  -2.6799
    -2.6303  -2.6205  -2.6192  -2.6176  -2.6096  -2.6033  -2.5506  -2.5412
    -2.4925  -2.4868  -2.4805  -2.4751  -2.4660  -2.4622  -2.3863  -2.3382
    -2.3004

          k =-0.5000-0.2887 0.0000 (321564 PWs)   bands (ev):

   -88.7572 -66.6521 -66.6520 -66.6415 -66.6415 -66.6265 -66.6265 -66.6265
   -66.6265 -66.6222 -66.6221 -66.6160 -66.6159 -66.6159 -66.6159 -66.6115
   -66.6115 -66.5884 -66.5878 -66.5776 -66.5775 -66.5628 -66.5627 -66.5626
   -66.5624 -66.5585 -66.5579 -66.5526 -66.5522 -66.5518 -66.5516 -66.5515
   -66.5476 -66.5475 -66.5436 -66.5368 -66.5340 -66.5264 -66.5234 -66.5190
   -66.5149 -66.5140 -66.5080 -66.5027 -66.4993 -66.4911 -66.4764 -66.4557
   -66.4330 -54.5927 -54.5618 -54.5238 -40.9533 -40.9533 -40.9532 -40.9532
   -40.9266 -40.9266 -40.9147 -40.9147 -40.8887 -40.8884 -40.8878 -40.8878
   -40.8642 -40.8642 -40.8642 -40.8642 -40.8618 -40.8613 -40.8531 -40.8496
   -40.8496 -40.8480 -40.8386 -40.8220 -40.8062 -40.8062 -40.8057 -40.8006
   -40.7993 -40.7993 -40.7992 -40.7992 -40.7983 -40.7963 -40.7963 -40.7866
   -40.7855 -40.7855 -40.7561 -40.7561 -40.7560 -40.7560 -40.7509 -40.7480
   -40.7474 -40.7474 -40.7465 -40.7432 -40.7426 -40.7353 -40.7353 -40.7352
   -40.7352 -40.7351 -40.7351 -40.7325 -40.7315 -40.7314 -40.7265 -40.7265
   -40.7222 -40.7221 -40.7095 -40.7046 -40.7045 -40.7045 -40.7045 -40.7009
   -40.6929 -40.6928 -40.6928 -40.6926 -40.6889 -40.6844 -40.6838 -40.6820
   -40.6760 -40.6750 -40.6725 -40.6721 -40.6716 -40.6714 -40.6705 -40.6704
   -40.6700 -40.6700 -40.6700 -40.6700 -40.6648 -40.6633 -40.6632 -40.6611
   -40.6580 -40.6579 -40.6576 -40.6478 -40.6450 -40.6402 -40.6399 -40.6397
   -40.6394 -40.6394 -40.6388 -40.6388 -40.6364 -40.6348 -40.6286 -40.6219
   -40.6219 -40.6213 -40.6157 -40.6143 -40.6054 -40.6053 -40.6051 -40.6051
   -40.6015 -40.5981 -40.5943 -40.5935 -40.5929 -40.5914 -40.5914 -40.5824
   -40.5743 -40.5737 -40.5638 -40.5572 -40.5571 -40.5556 -40.5528 -40.5523
   -40.5503 -40.5443 -40.5332 -40.5280 -40.5270 -40.5264 -40.5244 -40.5053
   -40.5013 -40.4864 -40.4846 -40.4386 -19.9495 -19.8570 -19.8376 -19.7487
   -19.6792 -19.6235 -19.4404 -19.4252 -19.3878 -19.3426 -19.2498 -19.2221
   -18.9624 -18.7470 -18.7336 -18.7209 -18.7134 -18.7121 -18.7062 -18.6892
   -18.6515 -18.6195 -18.6153 -18.5822 -18.5743 -18.5693 -18.5346 -18.5187
   -18.5183 -18.5141 -18.4678 -18.4642 -18.4466 -18.4202 -18.3920 -18.3840
   -18.3779 -18.3747 -18.3359 -18.2951 -18.2861 -18.2503 -18.2223 -18.2026
   -18.1942 -18.1900 -18.1668 -18.1309 -18.1150 -18.0992 -18.0991 -18.0988
   -18.0985 -18.0894 -18.0812 -18.0745 -18.0662 -18.0349 -18.0318 -18.0303
   -18.0229 -18.0196 -18.0003 -17.9888 -17.9840 -17.9731 -17.9672 -17.9622
   -17.9598 -17.9572 -17.9225 -17.9160 -17.9093 -17.9042 -17.9011 -17.8970
   -17.8640 -17.8475 -17.8410 -17.8365 -17.8349 -17.8349 -17.7977 -17.7884
   -17.7790 -17.7774 -17.7751 -17.7722 -17.7632 -17.7614 -17.7567 -17.7373
   -17.7196 -17.7168 -17.6773 -17.6716 -12.5355 -11.6726 -11.6511 -11.4737
   -11.4547 -11.4477 -11.4474 -11.4458 -11.4265 -11.4205 -11.4158 -11.3820
   -11.3718 -11.3695 -11.3459 -11.3395 -11.3216 -11.2919 -11.2907 -11.2855
   -11.2632 -11.2592 -11.2589 -11.2390 -11.2275 -11.2275 -11.2136 -11.1856
   -11.1843 -11.1745 -11.1464 -11.1320 -11.1260 -11.1258 -11.0845 -11.0124
   -10.9743 -10.9594 -10.9464 -10.9417 -10.9053 -10.8973 -10.8897 -10.8765
   -10.8716 -10.8584 -10.8515 -10.8138 -10.8120 -10.8095 -10.8026 -10.8021
   -10.8018 -10.7971 -10.7931 -10.7834 -10.7784 -10.7572 -10.7491 -10.7415
   -10.7289 -10.7210 -10.7132 -10.6740 -10.5723 -10.5545 -10.4980 -10.4649
   -10.4445 -10.3647 -10.3527 -10.3218 -10.2247 -10.1770 -10.1203 -10.1029
   -10.0997 -10.0894 -10.0730 -10.0187 -10.0120 -10.0061  -9.9645  -9.9345
    -9.9153  -9.9120  -9.9091  -9.9083  -9.9023  -9.8953  -9.8758  -9.8684
    -9.8641  -9.8545  -9.8005  -9.7863  -9.7784  -9.7707  -9.7470  -9.7390
    -9.7301  -9.7124  -9.6997  -9.6853  -9.6843  -9.6715  -9.6697  -9.6510
    -9.6361  -9.6269  -9.6203  -9.6184  -9.5967  -9.5940  -9.5914  -9.5798
    -9.5458  -9.5101  -9.5021  -9.4982  -9.4798  -9.4601  -9.4435  -9.4420
    -9.4258  -9.4180  -9.3060  -9.3040  -9.2497  -9.2330  -9.1965  -9.1725
    -9.1555  -9.1461  -9.1258  -9.1132  -9.1109  -9.1038  -9.0995  -9.0985
    -9.0699  -9.0554  -9.0342  -9.0099  -9.0068  -8.9917  -8.9878  -8.9797
    -8.9564  -8.9523  -8.9482  -8.9382  -8.9327  -8.9203  -8.9193  -8.9077
    -8.9048  -8.9027  -8.8962  -8.8881  -8.8698  -8.8595  -8.8398  -8.8347
    -8.8288  -8.8241  -8.8151  -8.8134  -8.8105  -8.8084  -8.8002  -8.7942
    -8.7875  -8.7846  -8.7761  -8.7469  -8.7420  -8.7349  -8.7215  -8.7149
    -8.7025  -8.6910  -8.5354  -8.4840  -8.4826  -8.4675  -8.4364  -8.4020
    -8.3932  -8.3832  -8.2583  -8.2133  -8.1639  -8.1639  -8.1603  -8.0955
    -8.0939  -8.0619  -8.0544  -8.0389  -8.0189  -7.9383  -7.9060  -7.9023
    -7.8750  -7.8667  -7.8420  -7.8375  -7.8259  -7.8219  -7.8201  -7.8172
    -7.8172  -7.8152  -7.8096  -7.7933  -7.7736  -7.7724  -7.7713  -7.7704
    -7.7678  -7.7525  -7.7500  -7.7366  -7.7350  -7.7319  -7.7248  -7.7184
    -7.7043  -7.7022  -7.6971  -7.6930  -7.6905  -7.6783  -7.6765  -7.6709
    -7.6641  -7.6541  -7.6365  -7.6322  -7.6320  -7.6299  -7.6269  -7.6073
    -7.5964  -7.5889  -7.5792  -7.5689  -7.5673  -7.5586  -7.5547  -7.5283
    -7.5065  -7.4923  -7.4573  -7.4407  -7.4352  -7.3691  -7.3273  -7.2443
    -7.2342  -7.2210  -7.2051  -7.1837  -7.1780  -7.1413  -7.0993  -7.0935
    -7.0715  -7.0530  -7.0122  -6.9977  -6.9843  -6.9783  -6.9695  -6.9511
    -6.9261  -6.9198  -6.9174  -6.9103  -6.8761  -6.8723  -6.8516  -6.8072
    -6.8017  -6.8009  -6.7847  -6.7483  -6.6991  -6.6709  -6.6586  -6.6289
    -6.6289  -6.6288  -6.6288  -6.6189  -6.6081  -6.5939  -6.5761  -6.5657
    -6.5623  -6.5598  -6.5580  -6.5288  -6.5157  -6.4976  -6.4916  -6.4589
    -6.4195  -6.3986  -6.3472  -6.2980  -6.2977  -6.2976  -6.2962  -6.2734
    -6.2357  -6.2300  -6.2252  -6.2224  -6.2222  -6.2123  -6.1996  -6.1876
    -6.1737  -6.1625  -6.1603  -6.1587  -5.9914  -5.9488  -5.9487  -5.9059
    -5.8783  -5.8706  -5.8504  -5.7410  -5.6850  -5.6672  -5.6438  -5.5235
    -5.5029  -4.3963  -4.0031  -3.9967  -3.9963  -3.9754  -3.8796  -3.8642
    -3.8642  -3.8379  -3.8034  -3.8021  -3.7991  -3.7630  -3.7610  -3.7603
    -3.7552  -3.7185  -3.6891  -3.6164  -3.5725  -3.5709  -3.5686  -3.5681
    -3.5578  -3.5506  -3.5504  -3.5283  -3.5271  -3.5070  -3.4936  -3.4802
    -3.4787  -3.4697  -3.4552  -3.4521  -3.4475  -3.4471  -3.4409  -3.4136
    -3.4112  -3.3851  -3.3631  -3.3510  -3.3440  -3.3362  -3.3194  -3.3180
    -3.2935  -3.2922  -3.2878  -3.2830  -3.2784  -3.2585  -3.2456  -3.2426
    -3.2419  -3.2408  -3.2402  -3.2279  -3.2232  -3.2131  -3.2050  -3.1990
    -3.1884  -3.1866  -3.1808  -3.1764  -3.1709  -3.1376  -3.1253  -3.1240
    -3.1011  -3.0929  -3.0908  -3.0405  -3.0395  -3.0120  -3.0089  -3.0016
    -3.0002  -2.9798  -2.9783  -2.9779  -2.9776  -2.9651  -2.9575  -2.9512
    -2.9332  -2.9310  -2.9300  -2.9216  -2.9095  -2.8961  -2.8945  -2.8903
    -2.8815  -2.8764  -2.8693  -2.8592  -2.8510  -2.8393  -2.8372  -2.8295
    -2.8121  -2.7920  -2.7818  -2.7786  -2.7721  -2.7354  -2.7005  -2.6675
    -2.6271  -2.6209  -2.6179  -2.6165  -2.6060  -2.6037  -2.5544  -2.5400
    -2.5107  -2.4885  -2.4827  -2.4746  -2.4672  -2.4592  -2.4155  -2.3425
    -2.2948

          k =-0.5000-0.8660 0.0000 (321564 PWs)   bands (ev):

   -88.7572 -66.6521 -66.6520 -66.6415 -66.6415 -66.6265 -66.6265 -66.6265
   -66.6265 -66.6221 -66.6221 -66.6159 -66.6159 -66.6159 -66.6159 -66.6115
   -66.6115 -66.5883 -66.5879 -66.5776 -66.5775 -66.5629 -66.5627 -66.5625
   -66.5624 -66.5584 -66.5579 -66.5523 -66.5522 -66.5520 -66.5514 -66.5494
   -66.5479 -66.5476 -66.5475 -66.5368 -66.5299 -66.5262 -66.5253 -66.5198
   -66.5146 -66.5139 -66.5086 -66.5024 -66.4992 -66.4911 -66.4765 -66.4556
   -66.4330 -54.5927 -54.5618 -54.5238 -40.9533 -40.9532 -40.9532 -40.9532
   -40.9266 -40.9266 -40.9147 -40.9147 -40.8885 -40.8883 -40.8882 -40.8875
   -40.8642 -40.8642 -40.8642 -40.8642 -40.8617 -40.8614 -40.8496 -40.8496
   -40.8453 -40.8408 -40.8400 -40.8253 -40.8196 -40.8170 -40.8062 -40.8062
   -40.7994 -40.7994 -40.7991 -40.7990 -40.7963 -40.7963 -40.7897 -40.7878
   -40.7855 -40.7855 -40.7561 -40.7561 -40.7561 -40.7560 -40.7474 -40.7474
   -40.7462 -40.7458 -40.7431 -40.7427 -40.7373 -40.7353 -40.7353 -40.7352
   -40.7352 -40.7352 -40.7351 -40.7315 -40.7314 -40.7307 -40.7265 -40.7265
   -40.7222 -40.7221 -40.7076 -40.7046 -40.7045 -40.7045 -40.7045 -40.7035
   -40.6930 -40.6930 -40.6927 -40.6925 -40.6911 -40.6843 -40.6839 -40.6804
   -40.6775 -40.6722 -40.6721 -40.6720 -40.6714 -40.6705 -40.6704 -40.6700
   -40.6700 -40.6700 -40.6700 -40.6693 -40.6664 -40.6633 -40.6632 -40.6589
   -40.6580 -40.6579 -40.6546 -40.6492 -40.6474 -40.6436 -40.6401 -40.6399
   -40.6395 -40.6394 -40.6388 -40.6388 -40.6355 -40.6321 -40.6283 -40.6230
   -40.6219 -40.6219 -40.6212 -40.6087 -40.6054 -40.6054 -40.6051 -40.6050
   -40.6016 -40.5934 -40.5930 -40.5926 -40.5914 -40.5914 -40.5914 -40.5875
   -40.5847 -40.5743 -40.5737 -40.5572 -40.5571 -40.5547 -40.5522 -40.5516
   -40.5498 -40.5435 -40.5342 -40.5272 -40.5269 -40.5264 -40.5247 -40.5188
   -40.4889 -40.4791 -40.4659 -40.4554 -19.9429 -19.8574 -19.8373 -19.7534
   -19.6801 -19.6300 -19.4497 -19.4233 -19.3950 -19.3317 -19.2517 -19.2138
   -18.9388 -18.7468 -18.7357 -18.7195 -18.7131 -18.7130 -18.7061 -18.6790
   -18.6646 -18.6426 -18.6064 -18.5842 -18.5751 -18.5738 -18.5300 -18.5294
   -18.5198 -18.5153 -18.4660 -18.4642 -18.4333 -18.4192 -18.4079 -18.3873
   -18.3773 -18.3683 -18.3437 -18.2984 -18.2788 -18.2385 -18.2189 -18.2060
   -18.1946 -18.1923 -18.1549 -18.1290 -18.1148 -18.0991 -18.0990 -18.0987
   -18.0986 -18.0908 -18.0818 -18.0786 -18.0503 -18.0372 -18.0345 -18.0304
   -18.0231 -18.0172 -18.0115 -17.9912 -17.9828 -17.9755 -17.9678 -17.9623
   -17.9589 -17.9545 -17.9198 -17.9167 -17.9147 -17.9073 -17.9003 -17.8969
   -17.8637 -17.8523 -17.8465 -17.8354 -17.8349 -17.8349 -17.7988 -17.7900
   -17.7848 -17.7777 -17.7768 -17.7687 -17.7619 -17.7606 -17.7423 -17.7387
   -17.7181 -17.7179 -17.6772 -17.6708 -12.5161 -11.6715 -11.6507 -11.5202
   -11.4518 -11.4492 -11.4475 -11.4444 -11.4391 -11.4239 -11.4030 -11.3948
   -11.3734 -11.3680 -11.3473 -11.3372 -11.3200 -11.3049 -11.2918 -11.2904
   -11.2687 -11.2598 -11.2587 -11.2416 -11.2275 -11.2275 -11.2106 -11.1849
   -11.1845 -11.1661 -11.1343 -11.1307 -11.1278 -11.1262 -11.0763 -11.0123
   -10.9730 -10.9629 -10.9499 -10.9408 -10.9125 -10.8970 -10.8831 -10.8772
   -10.8740 -10.8536 -10.8372 -10.8175 -10.8097 -10.8067 -10.8032 -10.8022
   -10.7996 -10.7986 -10.7961 -10.7826 -10.7738 -10.7550 -10.7476 -10.7434
   -10.7270 -10.7219 -10.7082 -10.6926 -10.5751 -10.5498 -10.5049 -10.4656
   -10.4432 -10.3572 -10.3332 -10.3149 -10.2387 -10.1719 -10.1210 -10.1014
   -10.0977 -10.0892 -10.0632 -10.0197 -10.0093  -9.9978  -9.9525  -9.9318
    -9.9191  -9.9143  -9.9103  -9.9075  -9.9056  -9.8921  -9.8829  -9.8686
    -9.8645  -9.8545  -9.8197  -9.7808  -9.7800  -9.7541  -9.7395  -9.7319
    -9.7290  -9.7079  -9.7005  -9.6879  -9.6832  -9.6722  -9.6640  -9.6565
    -9.6323  -9.6272  -9.6201  -9.6012  -9.6002  -9.5969  -9.5912  -9.5811
    -9.5367  -9.5097  -9.5017  -9.4982  -9.4782  -9.4686  -9.4428  -9.4418
    -9.4283  -9.4114  -9.3184  -9.2945  -9.2735  -9.2316  -9.1963  -9.1789
    -9.1624  -9.1385  -9.1269  -9.1216  -9.1118  -9.1072  -9.0995  -9.0971
    -9.0709  -9.0588  -9.0331  -9.0080  -9.0051  -8.9929  -8.9845  -8.9738
    -8.9620  -8.9582  -8.9465  -8.9359  -8.9352  -8.9181  -8.9175  -8.9087
    -8.9048  -8.9028  -8.8977  -8.8943  -8.8694  -8.8605  -8.8398  -8.8323
    -8.8292  -8.8231  -8.8150  -8.8131  -8.8105  -8.8080  -8.8050  -8.7934
    -8.7874  -8.7856  -8.7773  -8.7484  -8.7368  -8.7357  -8.7170  -8.7159
    -8.7002  -8.6876  -8.5407  -8.4840  -8.4825  -8.4625  -8.4367  -8.4047
    -8.3952  -8.3919  -8.2587  -8.2213  -8.1722  -8.1639  -8.1639  -8.0956
    -8.0939  -8.0872  -8.0623  -8.0483  -8.0024  -7.9391  -7.9055  -7.9019
    -7.8764  -7.8484  -7.8393  -7.8366  -7.8283  -7.8234  -7.8210  -7.8173
    -7.8172  -7.8167  -7.8134  -7.7863  -7.7727  -7.7722  -7.7716  -7.7703
    -7.7652  -7.7508  -7.7498  -7.7388  -7.7343  -7.7268  -7.7176  -7.7142
    -7.7089  -7.7030  -7.6980  -7.6929  -7.6857  -7.6815  -7.6778  -7.6726
    -7.6632  -7.6518  -7.6454  -7.6324  -7.6320  -7.6319  -7.6278  -7.6012
    -7.5966  -7.5951  -7.5752  -7.5733  -7.5670  -7.5579  -7.5487  -7.5298
    -7.5079  -7.4877  -7.4601  -7.4407  -7.4402  -7.3495  -7.3100  -7.2501
    -7.2283  -7.2185  -7.2056  -7.1823  -7.1701  -7.1356  -7.0986  -7.0941
    -7.0649  -7.0527  -7.0101  -6.9955  -6.9850  -6.9794  -6.9726  -6.9481
    -6.9376  -6.9209  -6.9188  -6.9110  -6.8733  -6.8723  -6.8563  -6.8234
    -6.8069  -6.8018  -6.7854  -6.7423  -6.6986  -6.6854  -6.6599  -6.6289
    -6.6289  -6.6289  -6.6288  -6.6177  -6.6004  -6.5984  -6.5787  -6.5724
    -6.5626  -6.5616  -6.5567  -6.5507  -6.5142  -6.4983  -6.4927  -6.4520
    -6.4199  -6.4009  -6.3256  -6.2979  -6.2977  -6.2977  -6.2962  -6.2644
    -6.2355  -6.2295  -6.2247  -6.2228  -6.2227  -6.2115  -6.1947  -6.1867
    -6.1802  -6.1650  -6.1600  -6.1560  -5.9995  -5.9488  -5.9487  -5.9014
    -5.8779  -5.8699  -5.8475  -5.7373  -5.6831  -5.6625  -5.6440  -5.5238
    -5.5027  -4.4125  -4.0032  -3.9982  -3.9947  -3.9606  -3.8797  -3.8642
    -3.8641  -3.8505  -3.8033  -3.8018  -3.7989  -3.7639  -3.7626  -3.7573
    -3.7503  -3.6985  -3.6823  -3.6369  -3.5797  -3.5707  -3.5688  -3.5673
    -3.5583  -3.5505  -3.5502  -3.5289  -3.5247  -3.5022  -3.4890  -3.4856
    -3.4773  -3.4640  -3.4576  -3.4532  -3.4479  -3.4450  -3.4414  -3.4313
    -3.4067  -3.3813  -3.3712  -3.3450  -3.3422  -3.3381  -3.3219  -3.3188
    -3.3160  -3.2923  -3.2883  -3.2843  -3.2826  -3.2513  -3.2469  -3.2432
    -3.2427  -3.2414  -3.2402  -3.2283  -3.2203  -3.2094  -3.2018  -3.1945
    -3.1904  -3.1842  -3.1827  -3.1757  -3.1716  -3.1488  -3.1341  -3.1185
    -3.1045  -3.0982  -3.0897  -3.0421  -3.0384  -3.0357  -3.0048  -3.0017
    -2.9998  -2.9796  -2.9784  -2.9781  -2.9779  -2.9659  -2.9562  -2.9412
    -2.9325  -2.9308  -2.9280  -2.9237  -2.9054  -2.8975  -2.8942  -2.8858
    -2.8784  -2.8724  -2.8651  -2.8601  -2.8527  -2.8398  -2.8316  -2.8203
    -2.8110  -2.7927  -2.7878  -2.7702  -2.7664  -2.7227  -2.7017  -2.6721
    -2.6290  -2.6239  -2.6200  -2.6168  -2.6080  -2.6042  -2.5506  -2.5378
    -2.4933  -2.4855  -2.4792  -2.4752  -2.4672  -2.4578  -2.3657  -2.3416
    -2.2807

     the Fermi energy is    -4.3986 ev

!    total energy              =  -24358.19807609 Ry
     total all-electron energy =   -475458.074888 Ry
     estimated scf accuracy    <       0.00000094 Ry
     smearing contrib. (-TS)   =      -0.00562411 Ry
     internal energy E=F+TS    =  -24358.19245198 Ry

     The total energy is F=E-TS. E is the sum of the following terms:
     one-electron contribution =  459360.51678983 Ry
     hartree contribution      = -229782.74488619 Ry
     xc contribution           =   -1459.71641793 Ry
     ewald contribution        = -236874.46148486 Ry
     DFT-D3 Dispersion         =      -3.98766763 Ry
     one-center paw contrib.   =  -15597.79878519 Ry

     convergence has been achieved in  25 iterations

     negative rho (up, down):  9.391E-04 0.000E+00

     Forces acting on atoms (cartesian axes, Ry/au):

     atom    1 type  1   force =    -0.00052695   -0.00164288   -0.00000207
     atom    2 type  1   force =     0.00001033    0.00000989    0.00186019
     atom    3 type  1   force =     0.00002884    0.00003932   -0.00003906
     atom    4 type  2   force =     0.00000602    0.00000206   -0.00312964
     atom    5 type  2   force =     0.00002151    0.00000659    0.00008035
     atom    6 type  2   force =     0.00017523   -0.00007227    0.00001076
     atom    7 type  2   force =     0.00000488    0.00000022    0.00138747
     atom    8 type  2   force =     0.00000414   -0.00000944   -0.00014788
     atom    9 type  2   force =     0.00006379    0.00057197    0.00069557
     atom   10 type  1   force =     0.00153418    0.00098701    0.00026650
     atom   11 type  1   force =    -0.00002150   -0.00001025    0.00186916
     atom   12 type  1   force =    -0.00007636   -0.00000651    0.00003251
     atom   13 type  2   force =     0.00000003    0.00000146   -0.00312206
     atom   14 type  2   force =    -0.00000324   -0.00001646    0.00007610
     atom   15 type  2   force =    -0.00010821    0.00023950   -0.00016126
     atom   16 type  2   force =    -0.00000004    0.00000259    0.00138676
     atom   17 type  2   force =    -0.00005898   -0.00004256   -0.00010931
     atom   18 type  2   force =     0.00022878   -0.00044000   -0.00012605
     atom   19 type  1   force =     0.00189389    0.00136321   -0.00019771
     atom   20 type  1   force =     0.00000030   -0.00000357    0.00185960
     atom   21 type  1   force =    -0.00006326   -0.00006150    0.00001327
     atom   22 type  2   force =     0.00000584    0.00000205   -0.00313028
     atom   23 type  2   force =     0.00001618    0.00000722    0.00006098
     atom   24 type  2   force =     0.00002087   -0.00031645   -0.00027405
     atom   25 type  2   force =     0.00000393    0.00000125    0.00138728
     atom   26 type  2   force =    -0.00000290    0.00000560   -0.00007658
     atom   27 type  2   force =    -0.00019754    0.00023878   -0.00023531
     atom   28 type  1   force =    -0.00142445    0.00023723   -0.00036764
     atom   29 type  1   force =    -0.00001596   -0.00001010    0.00186631
     atom   30 type  1   force =     0.00009168    0.00001838   -0.00005468
     atom   31 type  2   force =     0.00000208    0.00000042   -0.00312450
     atom   32 type  2   force =     0.00000464    0.00001531    0.00005440
     atom   33 type  2   force =    -0.00012201    0.00025823   -0.00006945
     atom   34 type  2   force =    -0.00000137   -0.00000045    0.00137895
     atom   35 type  2   force =    -0.00001125    0.00000765   -0.00010539
     atom   36 type  2   force =     0.00047061   -0.00002236    0.00048298
     atom   37 type  1   force =    -0.00077611   -0.00004666    0.00016249
     atom   38 type  1   force =    -0.00001223    0.00003405    0.00185626
     atom   39 type  1   force =     0.00006450    0.00004825    0.00004036
     atom   40 type  2   force =     0.00000075    0.00000408   -0.00312765
     atom   41 type  2   force =    -0.00000443   -0.00001360    0.00005890
     atom   42 type  2   force =     0.00035655    0.00079505    0.00047428
     atom   43 type  2   force =     0.00000040    0.00001069    0.00139147
     atom   44 type  2   force =     0.00003418   -0.00003574   -0.00005528
     atom   45 type  2   force =     0.00001976   -0.00006104   -0.00051741
     atom   46 type  1   force =     0.00233214   -0.01808778   -0.01630230
     atom   47 type  1   force =     0.00001024   -0.00000759    0.00185017
     atom   48 type  1   force =     0.00007398   -0.00007554   -0.00023182
     atom   49 type  2   force =     0.00000160   -0.00000477   -0.00313037
     atom   50 type  2   force =    -0.00000650    0.00000538    0.00011046
     atom   51 type  2   force =     0.00012375    0.00114520   -0.00053115
     atom   52 type  2   force =     0.00000027    0.00000150    0.00138989
     atom   53 type  2   force =    -0.00000283    0.00004000   -0.00007686
     atom   54 type  2   force =    -0.00261068   -0.00176612   -0.00140500
     atom   55 type  1   force =    -0.01373513   -0.01011199   -0.03852803
     atom   56 type  1   force =     0.00001577    0.00002337    0.00186373
     atom   57 type  1   force =     0.00016387    0.00001721    0.00011645
     atom   58 type  2   force =    -0.00000470   -0.00000135   -0.00312982
     atom   59 type  2   force =     0.00001195   -0.00000750    0.00004546
     atom   60 type  2   force =     0.00072280   -0.00065604    0.00107692
     atom   61 type  2   force =     0.00000115   -0.00000367    0.00139033
     atom   62 type  2   force =     0.00007088    0.00004753    0.00003683
     atom   63 type  2   force =     0.00047271    0.00003796    0.00092019
     atom   64 type  1   force =    -0.01448613    0.00914105   -0.02000002
     atom   65 type  1   force =     0.00003083   -0.00001638    0.00185643
     atom   66 type  1   force =    -0.00005314    0.00018545   -0.00024780
     atom   67 type  2   force =     0.00000121   -0.00000261   -0.00312725
     atom   68 type  2   force =    -0.00001922   -0.00000940    0.00004575
     atom   69 type  2   force =     0.00084480    0.00007632   -0.00003383
     atom   70 type  2   force =     0.00000657   -0.00000314    0.00139037
     atom   71 type  2   force =     0.00008719    0.00003457    0.00007782
     atom   72 type  2   force =    -0.00247852    0.00011739    0.00183602
     atom   73 type  1   force =    -0.00014331   -0.00208713    0.00059080
     atom   74 type  1   force =     0.00000520    0.00000719    0.00186808
     atom   75 type  1   force =    -0.00019801   -0.00001571    0.00000220
     atom   76 type  2   force =    -0.00000244    0.00000203   -0.00313414
     atom   77 type  2   force =     0.00002997    0.00003121    0.00008464
     atom   78 type  2   force =    -0.00113151   -0.00164839    0.00041036
     atom   79 type  2   force =     0.00000219    0.00000143    0.00140251
     atom   80 type  2   force =    -0.00000272   -0.00002869    0.00012058
     atom   81 type  2   force =     0.00041056    0.00118867    0.00172938
     atom   82 type  1   force =    -0.00162117    0.00057235    0.00129295
     atom   83 type  1   force =    -0.00000530   -0.00000799    0.00187051
     atom   84 type  1   force =    -0.00008803   -0.00019109   -0.00003823
     atom   85 type  2   force =     0.00000097   -0.00000480   -0.00312206
     atom   86 type  2   force =     0.00002149   -0.00001759    0.00005830
     atom   87 type  2   force =    -0.00144506    0.00016381    0.00022595
     atom   88 type  2   force =     0.00000123   -0.00000088    0.00137561
     atom   89 type  2   force =     0.00003230   -0.00003448   -0.00018548
     atom   90 type  2   force =     0.00281018   -0.00015770   -0.00250285
     atom   91 type  1   force =    -0.00192170    0.00113984    0.00380864
     atom   92 type  1   force =    -0.00001323   -0.00001430    0.00186211
     atom   93 type  1   force =    -0.00014702    0.00035429    0.00004977
     atom   94 type  2   force =     0.00000016   -0.00000491   -0.00311922
     atom   95 type  2   force =    -0.00002705   -0.00001720    0.00006448
     atom   96 type  2   force =    -0.00070784   -0.00011316   -0.00006998
     atom   97 type  2   force =    -0.00000076    0.00000318    0.00138696
     atom   98 type  2   force =     0.00000505    0.00000167    0.00008972
     atom   99 type  2   force =    -0.01344962    0.03461699    0.03007369
     atom  100 type  1   force =     0.00079820   -0.00070894    0.00176700
     atom  101 type  1   force =    -0.00003221   -0.00000997    0.00188408
     atom  102 type  1   force =     0.00022401   -0.00024353    0.00003117
     atom  103 type  2   force =     0.00000045    0.00000165   -0.00313641
     atom  104 type  2   force =     0.00001291    0.00003256   -0.00004563
     atom  105 type  2   force =    -0.00078635   -0.00026743   -0.00065589
     atom  106 type  2   force =     0.00000747    0.00000069    0.00138435
     atom  107 type  2   force =    -0.00006501    0.00001424   -0.00017523
     atom  108 type  2   force =     0.02410687   -0.02030874    0.03087255
     atom  109 type  1   force =     0.00008499   -0.00070059    0.00042585
     atom  110 type  1   force =    -0.00001114    0.00002061    0.00186186
     atom  111 type  1   force =     0.00002066    0.00001064    0.00019569
     atom  112 type  2   force =     0.00000023   -0.00000147   -0.00313004
     atom  113 type  2   force =    -0.00001407    0.00001469    0.00011360
     atom  114 type  2   force =     0.00022579    0.00099977   -0.00150922
     atom  115 type  2   force =    -0.00000451   -0.00000053    0.00140775
     atom  116 type  2   force =     0.00001335    0.00003397    0.00009557
     atom  117 type  2   force =     0.00028049    0.00214826    0.00041049
     atom  118 type  1   force =    -0.00042280   -0.00006917    0.00028999
     atom  119 type  1   force =     0.00001388   -0.00001378    0.00187323
     atom  120 type  1   force =     0.00011741    0.00006250    0.00001798
     atom  121 type  2   force =    -0.00000146   -0.00000533   -0.00312834
     atom  122 type  2   force =     0.00000636   -0.00007038    0.00009240
     atom  123 type  2   force =     0.00008056    0.00021215   -0.00005577
     atom  124 type  2   force =    -0.00000069   -0.00000533    0.00139484
     atom  125 type  2   force =     0.00001077    0.00003410   -0.00002926
     atom  126 type  2   force =    -0.00036588   -0.00020713    0.00034232
     atom  127 type  1   force =    -0.00056591    0.00044575    0.00049406
     atom  128 type  1   force =    -0.00000471    0.00000824    0.00186541
     atom  129 type  1   force =     0.00003924    0.00000363    0.00002881
     atom  130 type  2   force =     0.00000011   -0.00000092   -0.00312866
     atom  131 type  2   force =    -0.00001165    0.00001292    0.00004099
     atom  132 type  2   force =     0.00051379   -0.00049980   -0.00127630
     atom  133 type  2   force =    -0.00000517   -0.00000551    0.00137628
     atom  134 type  2   force =    -0.00001317    0.00002394   -0.00011373
     atom  135 type  2   force =     0.00195535   -0.00133360    0.00094862
     atom  136 type  1   force =     0.00130308    0.00062723   -0.00161240
     atom  137 type  1   force =     0.00001430   -0.00000548    0.00185303
     atom  138 type  1   force =    -0.00034377   -0.00019588   -0.00022357
     atom  139 type  2   force =    -0.00000156    0.00000375   -0.00313670
     atom  140 type  2   force =     0.00001339    0.00004201    0.00006827
     atom  141 type  2   force =    -0.00023900    0.00005167   -0.00075234
     atom  142 type  2   force =    -0.00001019   -0.00000213    0.00139819
     atom  143 type  2   force =     0.00003770   -0.00005933    0.00007067
     atom  144 type  2   force =    -0.00068110   -0.00003817    0.00115608
     atom  145 type  3   force =    -0.00035595    0.00214467    0.00296343
     atom  146 type  4   force =     0.01842841    0.00184955    0.00118696
     The non-local contrib.  to forces
     atom    1 type  1   force =     0.00216177    0.00066821   -0.00118116
     atom    2 type  1   force =    -0.00000239    0.00000048   -0.00196857
     atom    3 type  1   force =     0.00005625   -0.00018959   -0.00092051
[...]
     atom   65 type  1   force =     0.00000017    0.00000038    0.00260871
     atom   66 type  1   force =    -0.00000486    0.00001245   -0.00000845
     atom   67 type  2   force =    -0.00000007    0.00000005    0.00441214
     atom   68 type  2   force =    -0.00000095    0.00000293   -0.00004983
     atom   69 type  2   force =    -0.00000755    0.00003550   -0.00019749
     atom   70 type  2   force =    -0.00000018    0.00000050    0.00023830
     atom   71 type  2   force =    -0.00002877    0.00002895    0.00008216
     atom   72 type  2   force =     0.00007262   -0.00001543   -0.00438121
     atom   73 type  1   force =    -0.00005817    0.00001495   -0.00253768
     atom   74 type  1   force =    -0.00000013   -0.00000049    0.00260851
     atom   75 type  1   force =    -0.00000038   -0.00000080    0.00000030
     atom   76 type  2   force =     0.00000003    0.00000002    0.00441220
     atom   77 type  2   force =    -0.00000166   -0.00000084   -0.00004599
     atom   78 type  2   force =    -0.00000864    0.00000901   -0.00015057
     atom   79 type  2   force =     0.00000001   -0.00000057    0.00023885
     atom   80 type  2   force =    -0.00000924    0.00001218    0.00010337
     atom   81 type  2   force =    -0.00014763    0.00017128   -0.00430849
     atom   82 type  1   force =    -0.00024335    0.00004352   -0.00232948
     atom   83 type  1   force =    -0.00000032   -0.00000008    0.00260817
     atom   84 type  1   force =     0.00000712   -0.00002267   -0.00003416
     atom   85 type  2   force =     0.00000003   -0.00000000    0.00441208
     atom   86 type  2   force =    -0.00000081   -0.00000130   -0.00004747
     atom   87 type  2   force =    -0.00003066   -0.00004393    0.00007058
     atom   88 type  2   force =    -0.00000029   -0.00000009    0.00023844
     atom   89 type  2   force =     0.00000177   -0.00002462    0.00010328
     atom   90 type  2   force =     0.00100335   -0.00052731   -0.00526904
     atom   91 type  1   force =    -0.00017696   -0.00013578   -0.00230283
     atom   92 type  1   force =     0.00000011    0.00000043    0.00260887
     atom   93 type  1   force =    -0.00000069    0.00000018   -0.00007194
     atom   94 type  2   force =     0.00000001    0.00000001    0.00441194
     atom   95 type  2   force =     0.00000077    0.00000005   -0.00005475
     atom   96 type  2   force =    -0.00000344   -0.00006835    0.00028642
     atom   97 type  2   force =     0.00000041    0.00000073    0.00023870
     atom   98 type  2   force =     0.00001086   -0.00001431    0.00008238
     atom   99 type  2   force =     0.00000348    0.00069159   -0.00516649
     atom  100 type  1   force =    -0.00000014   -0.00016453   -0.00237484
     atom  101 type  1   force =     0.00000018    0.00000002    0.00260921
     atom  102 type  1   force =    -0.00000895    0.00002128   -0.00003423
     atom  103 type  2   force =     0.00000002    0.00000004    0.00441212
     atom  104 type  2   force =     0.00000028    0.00000161   -0.00005440
     atom  105 type  2   force =     0.00000395    0.00005893   -0.00011119
     atom  106 type  2   force =     0.00000053    0.00000019    0.00023850
     atom  107 type  2   force =    -0.00000237    0.00002167    0.00008665
     atom  108 type  2   force =     0.00012684   -0.00028177   -0.00426369
     atom  109 type  1   force =     0.00006071    0.00001624   -0.00253852
     atom  110 type  1   force =    -0.00000006   -0.00000077    0.00260829
     atom  111 type  1   force =    -0.00000047    0.00000621   -0.00000137
     atom  112 type  2   force =    -0.00000001   -0.00000004    0.00441219
     atom  113 type  2   force =     0.00000098   -0.00000153   -0.00004639
     atom  114 type  2   force =    -0.00000015    0.00000364   -0.00016674
     atom  115 type  2   force =     0.00000012   -0.00000109    0.00023846
     atom  116 type  2   force =     0.00000514    0.00001276    0.00010439
     atom  117 type  2   force =     0.00000141   -0.00014334   -0.00436999
     atom  118 type  1   force =     0.00000237   -0.00002710   -0.00257175
     atom  119 type  1   force =    -0.00000036   -0.00000024    0.00260735
     atom  120 type  1   force =     0.00000557   -0.00001274   -0.00001236
     atom  121 type  2   force =    -0.00000006    0.00000001    0.00441207
     atom  122 type  2   force =    -0.00000119   -0.00000102   -0.00004620
     atom  123 type  2   force =     0.00000454   -0.00004074   -0.00016165
     atom  124 type  2   force =    -0.00000048   -0.00000040    0.00023826
     atom  125 type  2   force =    -0.00000077   -0.00001174    0.00011013
     atom  126 type  2   force =    -0.00025649    0.00005113   -0.00430950
     atom  127 type  1   force =    -0.00012240   -0.00003108   -0.00253599
     atom  128 type  1   force =    -0.00000042    0.00000049    0.00260830
     atom  129 type  1   force =     0.00001462    0.00000033   -0.00004666
     atom  130 type  2   force =     0.00000000   -0.00000002    0.00441206
     atom  131 type  2   force =    -0.00000040    0.00000116   -0.00004968
     atom  132 type  2   force =     0.00002689   -0.00003130   -0.00012639
     atom  133 type  2   force =    -0.00000054    0.00000077    0.00023819
     atom  134 type  2   force =     0.00001121    0.00000033    0.00009990
     atom  135 type  2   force =    -0.00050448   -0.00005750   -0.00421797
     atom  136 type  1   force =    -0.00007817   -0.00002249   -0.00249724
     atom  137 type  1   force =    -0.00000010   -0.00000004    0.00260922
     atom  138 type  1   force =     0.00000781    0.00002133   -0.00003621
     atom  139 type  2   force =    -0.00000002    0.00000002    0.00441221
     atom  140 type  2   force =     0.00000142    0.00000166   -0.00005056
     atom  141 type  2   force =    -0.00000640    0.00006123   -0.00011022
     atom  142 type  2   force =     0.00000000    0.00000003    0.00023840
     atom  143 type  2   force =     0.00002589    0.00002839    0.00008216
     atom  144 type  2   force =    -0.00012420   -0.00028506   -0.00427049
     atom  145 type  3   force =    -0.00002635    0.00071981    0.00207517
     atom  146 type  4   force =     0.00000066   -0.00013861   -0.00120570

     Total force =     0.003136     Total SCF correction =     0.000667
     SCF correction compared to forces is large: reduce conv_thr to get better values
     Energy error            =      2.1E-05 Ry
     Gradient error          =      7.5E-04 Ry/Bohr

     bfgs converged in  26 scf cycles and  25 bfgs steps
     (criteria: energy <  1.0E-04 Ry, force <  1.0E-03 Ry/Bohr)

     End of BFGS Geometry Optimization

     Final energy             =  -24358.2373633796 Ry

     File ./outdir/pwscf.bfgs deleted, as requested
Begin final coordinates

ATOMIC_POSITIONS (angstrom)
Mo            1.5528278359        2.7087909341        6.0553715993
Mo            1.5769197498        0.9104407117       -6.0872367793    0   0   0
Mo           -0.0011253993        1.8199022565       -0.0025348896
S             0.0000044503        0.0000077495       -7.6506323570    0   0   0
S             1.5756036149        0.9102697204       -1.5688418366
S            -0.0173954384        1.8124550892        4.4816660322
S             0.0000053241        0.0000068460       -4.5222282367    0   0   0
S             1.5758934897        0.9084780411        1.5629938153
S            -0.0199408192        1.8175630378        7.6284350300
Mo           -0.0189902250        5.4581422048        6.0782426348
Mo            0.0000011799        3.6417399547       -6.0872367793    0   0   0
Mo           -1.5779296565        4.5518285423       -0.0010534653
S            -1.5769141197        2.7313069925       -7.6506323570    0   0   0
S            -0.0011196431        3.6415728696       -1.5667939557
S            -1.5858341732        4.5580463425        4.4957317875
S            -1.5769132459        2.7313060890       -4.5222282367    0   0   0
S            -0.0005624714        3.6407209978        1.5650330367
S            -1.6007773712        4.5403082439        7.6342465229
Mo           -1.5891322140        8.1913466391        6.0788858382
Mo           -1.5769173901        6.3730391977       -6.0872367793    0   0   0
Mo           -3.1550228797        7.2826426673       -0.0026859978
S            -3.1538326896        5.4626062355       -7.6506323570    0   0   0
S            -1.5774115705        6.3719371501       -1.5669564214
S            -3.1692849750        7.2830411310        4.5106797443
S            -3.1538318159        5.4626053320       -4.5222282367    0   0   0
S            -1.5778367823        6.3736754452        1.5658879666
S            -3.1657747894        7.2728919165        7.6403646284
Mo            3.1390796613       -0.0106783527        6.0581519080
Mo           -3.1538359601        9.1043384407       -6.0872367793    0   0   0
Mo           -4.7321768524       10.0138309391       -0.0045605183
S            -4.7307512596        8.1939054785       -7.6506323570    0   0   0
S            -3.1549223622        9.1028735214       -1.5693588455
S            -4.7471662229        9.9967311500        4.4982337963
S            -4.7307503859        8.1939045750       -4.5222282367    0   0   0
S            -3.1552589027        9.1041377953        1.5624038021
S            -4.7416899811       10.0194673126        7.6354846845
Mo            4.7249051936        2.7079096960        6.0532644430
Mo            4.7307503218        0.9104407117       -6.0872367793    0   0   0
Mo            3.1527615238        1.8201096039       -0.0032912913
S             3.1538350223        0.0000077495       -7.6506323570    0   0   0
S             4.7296959220        0.9099727969       -1.5692735721
S             3.1376605356        1.8072333904        4.4864977883
S             3.1538358961        0.0000068460       -4.5222282367    0   0   0
S             4.7297292678        0.9089449821        1.5625845008
S             3.1393804333        1.8100272580        7.6187182216
Mo            3.1395327333        5.4206286490        6.0847620553
Mo            3.1538317519        3.6417399547       -6.0872367793    0   0   0
Mo            1.5762268491        4.5516147766       -0.0016096711
S             1.5769164523        2.7313069925       -7.6506323570    0   0   0
S             3.1522845110        3.6413602637       -1.5679922859
S             1.5728289987        4.5523334147        4.5198830358
S             1.5769173261        2.7313060890       -4.5222282367    0   0   0
S             3.1532595989        3.6407150560        1.5647515498
S             1.4851760798        4.4891348598        7.6679915593
Mo            1.5677217547        8.2121752814        6.1394561081
Mo            1.5769131819        6.3730391977       -6.0872367793    0   0   0
Mo           -0.0005897159        7.2826067408       -0.0017149674
S            -0.0000021176        5.4626062355       -7.6506323570    0   0   0
S             1.5756572552        6.3718090347       -1.5674747246
S             0.0090904456        7.2902720789        4.5316379080
S            -0.0000012439        5.4626053320       -4.5222282367    0   0   0
S             1.5772205217        6.3730056875        1.5665085734
S            -0.0330718925        7.2697212136        7.6629722969
Mo            6.2872514564        0.0034876175        6.0537830269
Mo           -0.0000053881        9.1043384407       -6.0872367793    0   0   0
Mo           -1.5779380027       10.0138921681       -0.0045312802
S            -1.5769206876        8.1939054785       -7.6506323570    0   0   0
S            -0.0006587868        9.1025421956       -1.5687242072
S            -1.5916410147        9.9982274057        4.4944844432
S            -1.5769198139        8.1939045750       -4.5222282367    0   0   0
S            -0.0012635490        9.1041433142        1.5635168080
S            -1.5946190743       10.0188623626        7.6333656267
Mo            7.8685051179        2.7285105158        6.0520936432
Mo            7.8845808939        0.9104407117       -6.0872367793    0   0   0
Mo            6.3066252444        1.8199630762       -0.0037651392
S             6.3076655943        0.0000077495       -7.6506323570    0   0   0
S             7.8841825919        0.9097095490       -1.5685887864
S             6.2955515286        1.8125593257        4.4782814515
S             6.3076664681        0.0000068460       -4.5222282367    0   0   0
S             7.8832036176        0.9083349005        1.5635443048
S             6.2967907519        1.8162040509        7.6257490968
Mo            6.2980867540        5.4576644350        6.0813197068
Mo            6.3076623239        3.6417399547       -6.0872367793    0   0   0
Mo            4.7292422745        4.5517114484       -0.0029709492
S             4.7307470244        2.7313069925       -7.6506323570    0   0   0
S             6.3067007965        3.6415388634       -1.5684529345
S             4.7077497988        4.5533758098        4.5204273314
S             4.7307478981        2.7313060890       -4.5222282367    0   0   0
S             6.3058762610        3.6409181528        1.5633152463
S             4.7910713605        4.4871641868        7.6677897779
Mo            4.7121085113        8.2125306972        6.1439105407
Mo            4.7307437539        6.3730391977       -6.0872367793    0   0   0
Mo            3.1526651974        7.2829427404       -0.0031335128
S             3.1538284544        5.4626062355       -7.6506323570    0   0   0
S             4.7293792715        6.3722571097       -1.5685234339
S             3.1414792573        7.2706890869        4.6007669137
S             3.1538293281        5.4626053320       -4.5222282367    0   0   0
S             4.7285489186        6.3728119651        1.5653525253
S             3.1375624712        7.5606369888        7.8866113624
Mo            9.4471401062        0.0111293014        6.0700826498
Mo            3.1538251839        9.1043384407       -6.0872367793    0   0   0
Mo            1.5763770462       10.0132308979       -0.0038698384
S             1.5769098844        8.1939054785       -7.6506323570    0   0   0
S             3.1527546428        9.1030236136       -1.5696684279
S             1.5700141007        9.9911533372        4.5156859173
S             1.5769107581        8.1939045750       -4.5222282367    0   0   0
S             3.1525245804        9.1024208440        1.5638881366
S             1.5421797060       10.0700735189        7.6475354040
Mo           -1.5905243928        2.7292628573        6.0536234390
Mo           11.0384114659        0.9104407117       -6.0872367793    0   0   0
Mo            9.4604272864        1.8200066325       -0.0025162916
S             9.4614961663        0.0000077495       -7.6506323570    0   0   0
S            11.0373627505        0.9099297785       -1.5680232740
S             9.4477144056        1.8165212471        4.4884133494
S             9.4614970401        0.0000068460       -4.5222282367    0   0   0
S            11.0368762986        0.9080066724        1.5642111017
S             9.4461717189        1.8357640919        7.6278083993
Mo           -3.1678815189        5.4554224477        6.0640048331
Mo            9.4614928959        3.6417399547       -6.0872367793    0   0   0
Mo            7.8833578323        4.5519101295       -0.0026017026
S             7.8845775964        2.7313069925       -7.6506323570    0   0   0
S             9.4611529346        3.6415051417       -1.5673013520
S             7.8639539372        4.5590971547        4.4964884313
S             7.8845784701        2.7313060890       -4.5222282367    0   0   0
S             9.4595364849        3.6409782327        1.5647643318
S             7.8811029325        4.5382028356        7.6341981403
Mo           -4.7467320556        8.1905113609        6.0829551307
Mo            7.8845743259        6.3730391977       -6.0872367793    0   0   0
Mo            6.3059847485        7.2826202509       -0.0030068825
S             6.3076590264        5.4626062355       -7.6506323570    0   0   0
S             7.8835645955        6.3724116006       -1.5682216160
S             6.2700244607        7.2905423082        4.5368164637
S             6.3076599001        5.4626053320       -4.5222282367    0   0   0
S             7.8823222782        6.3732740960        1.5647724853
S             6.3131140875        7.2685466843        7.6678402726
Mo           -0.0089025860        0.0042458801        6.0580472077
Mo            6.3076557559        9.1043384407       -6.0872367793    0   0   0
Mo            4.7289086029       10.0132209030       -0.0037555905
S             4.7307404564        8.1939054785       -7.6506323570    0   0   0
S             6.3060360371        9.1031333302       -1.5691509332
S             4.7122204527        9.9905736013        4.5200299883
S             4.7307413301        8.1939045750       -4.5222282367    0   0   0
S             6.3061689470        9.1034183315        1.5631235853
S             4.7336262660       10.0721918436        7.6531994636
Pd            3.1367763718        5.5380938977        8.9718742037
H             3.1326373442        8.6512750687        8.7796646138
End final coordinates



     Writing all to output data dir ./outdir/pwscf.save/
 
     init_run     :     99.52s CPU    101.99s WALL (       1 calls)
     electrons    : 110929.78s CPU 112270.07s WALL (      26 calls)
     update_pot   :    150.80s CPU    151.54s WALL (      25 calls)
     forces       :   1669.91s CPU   1720.42s WALL (      26 calls)
     force_dftd3  :     12.25s CPU     12.27s WALL (      26 calls)

     Called by init_run:
     wfcinit      :     80.72s CPU     82.02s WALL (       1 calls)
     potinit      :      1.99s CPU      2.07s WALL (       1 calls)
     hinit0       :     11.68s CPU     11.69s WALL (       1 calls)

     Called by electrons:
     c_bands      :  99124.41s CPU  99765.52s WALL (     316 calls)
     sum_band     :  10816.04s CPU  11211.23s WALL (     316 calls)
     v_of_rho     :    126.54s CPU    128.63s WALL (     318 calls)
     newd         :    637.08s CPU    954.82s WALL (     318 calls)
     PAW_pot      :    186.95s CPU    186.90s WALL (     343 calls)
     mix_rho      :     29.27s CPU     29.37s WALL (     316 calls)
     energy_dftd3 :      5.36s CPU      5.36s WALL (      26 calls)

     Called by c_bands:
     init_us_2    :    489.22s CPU    489.50s WALL (    2736 calls)
     init_us_2:cp :    489.20s CPU    489.49s WALL (    2736 calls)
     cegterg      :  97508.50s CPU  98144.49s WALL (    1280 calls)

     Called by *egterg:
     cdiaghg      :   6247.08s CPU   6266.62s WALL (   16020 calls)
     h_psi        :  52160.30s CPU  52360.92s WALL (   16221 calls)
     s_psi        :  10384.37s CPU  10385.21s WALL (   16221 calls)
     g_psi        :    120.20s CPU    120.09s WALL (   14937 calls)

     Called by h_psi:
     h_psi:calbec :  10197.58s CPU  10199.79s WALL (   16221 calls)
     vloc_psi     :  31341.14s CPU  31432.01s WALL (   16221 calls)
     add_vuspsi   :  10478.46s CPU  10480.51s WALL (   16221 calls)

     General routines
     calbec       :  14361.71s CPU  14364.67s WALL (   18001 calls)
     fft          :    152.74s CPU    156.05s WALL (    4417 calls)
     ffts         :      5.52s CPU      5.61s WALL (     634 calls)
     fftw         :  25017.84s CPU  25077.52s WALL ( 7074630 calls)
     interpolate  :     12.50s CPU     12.67s WALL (     318 calls)
 
     Parallel routines
 
     PWSCF        :   1d 7h30m CPU   1d 7h54m WALL

 
   This run was terminated on:   3:14: 2  29Aug2023            

=------------------------------------------------------------------------------=
   JOB DONE.
=------------------------------------------------------------------------------=
Application 11105376 resources: utime ~4083918s, stime ~50747s, Rss ~2389660, inblocks ~0, outblocks ~39731960
