
     Program PWSCF v.7.2 starts on  7Mar2024 at 22:12: 0 

     This program is part of the open-source Quantum ESPRESSO suite
     for quantum simulation of materials; please cite
         "P. Giannozzi et al., J. Phys.:Condens. Matter 21 395502 (2009);
         "P. Giannozzi et al., J. Phys.:Condens. Matter 29 465901 (2017);
         "P. Giannozzi et al., J. Chem. Phys. 152 154105 (2020);
          URL http://www.quantum-espresso.org", 
     in publications or presentations arising from this work. More details at
     http://www.quantum-espresso.org/quote

     Parallel version (MPI), running on    48 processors

     MPI processes distributed on     1 nodes
     972738 MiB available memory on the printing compute node when the environment starts
 
     Waiting for input...
     Reading input from standard input
Warning: card &CELL ignored
Warning: card / ignored

     Current dimensions of program PWSCF are:
     Max number of different atomic species (ntypx) = 10
     Max number of k-points (npk) =  40000
     Max angular momentum in pseudopotentials (lmaxx) =  4
     file C.pbe-n-kjpaw_psl.1.0.0.UPF: wavefunction(s)  2S 2P renormalized
     file H.pbe-kjpaw_psl.1.0.0.UPF: wavefunction(s)  1S renormalized
     file N.pbe-n-kjpaw_psl.1.0.0.UPF: wavefunction(s)  2S renormalized
     file O.pbe-n-kjpaw_psl.1.0.0.UPF: wavefunction(s)  2S 2P renormalized
 
     R & G space division:  proc/nbgrp/npool/nimage =      48
     Subspace diagonalization in iterative solution of the eigenvalue problem:
     a serial algorithm will be used

 
     Parallelization info
     --------------------
     sticks:   dense  smooth     PW     G-vecs:    dense   smooth      PW
     Min          58      20      6                 6588     1412     234
     Max          59      21      7                 6602     1430     245
     Sum        2787     997    305               316619    68325   11419
 
     Using Slab Decomposition
 


     bravais-lattice index     =            0
     lattice parameter (alat)  =       7.1842  a.u.
     unit-cell volume          =    2343.4953 (a.u.)^3
     number of atoms/cell      =           36
     number of atomic types    =            4
     number of electrons       =       114.00
     number of Kohn-Sham states=           68
     kinetic-energy cutoff     =      36.0000  Ry
     charge density cutoff     =     400.0000  Ry
     scf convergence threshold =      1.0E-06
     mixing beta               =       0.2000
     number of iterations used =            8  plain     mixing
     energy convergence thresh.=      1.0E-04
     force convergence thresh. =      1.0E-03
     Exchange-correlation= SLA  PW   PBX  PBC
                           (   1   4   3   4   0   0   0)
     nstep                     =         9999


     celldm(1)=   7.184172  celldm(2)=   0.000000  celldm(3)=   0.000000
     celldm(4)=   0.000000  celldm(5)=   0.000000  celldm(6)=   0.000000

     crystal axes: (cart. coord. in units of alat)
               a(1) = (   1.000000   0.000000   0.000000 )  
               a(2) = (  -0.364842   1.700390   0.000000 )  
               a(3) = (  -0.292310  -0.784899   3.716939 )  

     reciprocal axes: (cart. coord. in units 2 pi/alat)
               b(1) = (  1.000000  0.214564  0.123952 )  
               b(2) = (  0.000000  0.588100  0.124188 )  
               b(3) = (  0.000000  0.000000  0.269039 )  


     PseudoPot. # 1 for C  read from file:
     ./pseudo/C.pbe-n-kjpaw_psl.1.0.0.UPF
     MD5 check sum: 6b0792899573946bb42fe395835041da
     Pseudo is Projector augmented-wave + core cor, Zval =  4.0
     Generated using 'atomic' code by A. Dal Corso  v.7.2
     Shape of augmentation charge: PSQ
     Using radial grid of 1073 points,  4 beta functions with: 
                l(1) =   0
                l(2) =   0
                l(3) =   1
                l(4) =   1
     Q(r) pseudized with 0 coefficients 


     PseudoPot. # 2 for H  read from file:
     ./pseudo/H.pbe-kjpaw_psl.1.0.0.UPF
     MD5 check sum: b3cb3c48ee3b58cc53e4d592112d0ca6
     Pseudo is Projector augmented-wave, Zval =  1.0
     Generated using 'atomic' code by A. Dal Corso  v.7.2
     Shape of augmentation charge: PSQ
     Using radial grid of  929 points,  2 beta functions with: 
                l(1) =   0
                l(2) =   0
     Q(r) pseudized with 0 coefficients 


     PseudoPot. # 3 for N  read from file:
     ./pseudo/N.pbe-n-kjpaw_psl.1.0.0.UPF
     MD5 check sum: 6654930a71f78718b13e91073ae2a058
     Pseudo is Projector augmented-wave + core cor, Zval =  5.0
     Generated using 'atomic' code by A. Dal Corso  v.7.2
     Shape of augmentation charge: PSQ
     Using radial grid of 1085 points,  4 beta functions with: 
                l(1) =   0
                l(2) =   0
                l(3) =   1
                l(4) =   1
     Q(r) pseudized with 0 coefficients 


     PseudoPot. # 4 for O  read from file:
     ./pseudo/O.pbe-n-kjpaw_psl.1.0.0.UPF
     MD5 check sum: 54880130194cacfd11baed2e72b13d2a
     Pseudo is Projector augmented-wave + core cor, Zval =  6.0
     Generated using 'atomic' code by A. Dal Corso  v.7.2
     Shape of augmentation charge: PSQ
     Using radial grid of 1095 points,  4 beta functions with: 
                l(1) =   0
                l(2) =   0
                l(3) =   1
                l(4) =   1
     Q(r) pseudized with 0 coefficients 


     atomic species   valence    mass     pseudopotential
        C              4.00    12.01100     C ( 1.00)
        H              1.00     1.00800     H ( 1.00)
        N              5.00    14.00700     N ( 1.00)
        O              6.00    15.99900     O ( 1.00)

     No symmetry found



   Cartesian axes

     site n.     atom                  positions (alat units)
         1           C   tau(   1) = (   0.7129951   0.4898897   0.0144589  )
         2           C   tau(   2) = (  -0.3701476   0.4256015   3.7024804  )
         3           C   tau(   3) = (   0.4663274   1.3371604   1.2243970  )
         4           C   tau(   4) = (  -0.1234799  -0.4216691   2.4925423  )
         5           C   tau(   5) = (   0.3397677   1.1836470   1.4914219  )
         6           C   tau(   6) = (   0.0030799  -0.2681558   2.2255174  )
         7           C   tau(   7) = (   0.2216144   0.8332443   1.4699380  )
         8           C   tau(   8) = (   0.1212331   0.0822469   2.2470013  )
         9           C   tau(   9) = (   0.2866920   0.6377837   1.1703155  )
        10           C   tau(  10) = (   0.0561556   0.2777075   2.5466238  )
        11           C   tau(  11) = (   0.4462751   0.7881695   0.9101297  )
        12           C   tau(  12) = (  -0.1034275   0.1273218   2.8068095  )
        13           C   tau(  13) = (   0.5445277   1.1345319   0.9257037  )
        14           C   tau(  14) = (  -0.2016802  -0.2190407   2.7912355  )
        15           C   tau(  15) = (  -0.3020952   1.2915631   0.5879083  )
        16           C   tau(  16) = (   0.6449427  -0.3760719   3.1290310  )
        17           C   tau(  17) = (  -0.2415024   1.0810999   0.2850892  )
        18           C   tau(  18) = (   0.5843499  -0.1656087   3.4318500  )
        19           C   tau(  19) = (   0.6562678   0.7190381   0.2997340  )
        20           C   tau(  20) = (  -0.3134202   0.1964531   3.4172053  )
        21           H   tau(  21) = (  -0.1123548  -0.1254132   1.2340610  )
        22           H   tau(  22) = (   0.4552024   1.0409044   2.4828782  )
        23           H   tau(  23) = (   0.3030725   1.3173202   1.7158135  )
        24           H   tau(  24) = (   0.0397750  -0.4018289   2.0011258  )
        25           H   tau(  25) = (   0.1125726   0.7179363   1.6811716  )
        26           H   tau(  26) = (   0.2302749   0.1975549   2.0357676  )
        27           H   tau(  27) = (   0.2425244   0.3928567   1.1769316  )
        28           H   tau(  28) = (   0.1003231   0.5226345   2.5400076  )
        29           H   tau(  29) = (   0.4343750   0.3545381   0.6014751  )
        30           H   tau(  30) = (  -0.0915275   0.5609531   3.1154641  )
        31           H   tau(  31) = (   0.6412904   0.2548170   0.0293267  )
        32           H   tau(  32) = (  -0.2984428   0.6606742   3.6876126  )
        33           N   tau(  33) = (   0.4904773   0.5810824   0.6005830  )
        34           N   tau(  34) = (  -0.1476298   0.3344089   3.1163562  )
        35           O   tau(  35) = (   0.1550424  -0.0596950   0.5951191  )
        36           O   tau(  36) = (   0.1878052   0.9751862   3.1218201  )

     --------------------------------------------
     DFT-D3 Dispersion Correction (3-body terms):
     --------------------------------------------
       Reference C6 values for interpolation: 

         atom   Coordination number   C6
         H          0.912             6.05
         H          0.000            15.18
         C          0.000            98.23
         C          0.987            86.49
         C          1.998            58.72
         C          2.999            51.56
         C          3.984            36.41
         N          0.000            50.54
         N          0.994            44.25
         N          2.014            39.35
         N          2.990            31.16
         O          0.000            31.01
         O          0.993            25.63
         O          1.989            20.74

       Values used:

         atom   Coordination number  R0_AB[au]  C6      C8
         C          3.216            2.750     49.87   1442.30
         C          3.216            2.750     49.87   1442.30
         C          3.226            2.750     49.75   1438.78
         C          3.226            2.750     49.75   1438.78
         C          3.227            2.750     49.73   1438.33
         C          3.227            2.750     49.73   1438.33
         C          3.252            2.750     49.38   1428.15
         C          3.252            2.750     49.38   1428.15
         C          3.267            2.750     49.15   1421.50
         C          3.267            2.750     49.15   1421.50
         C          3.321            2.750     48.14   1392.29
         C          3.321            2.750     48.14   1392.29
         C          3.330            2.750     47.95   1386.88
         C          3.330            2.750     47.95   1386.88
         C          3.184            2.750     50.23   1452.62
         C          3.184            2.750     50.23   1452.62
         C          3.223            2.750     49.78   1439.79
         C          3.223            2.750     49.78   1439.79
         C          3.264            2.750     49.19   1422.77
         C          3.264            2.750     49.19   1422.77
         H          1.029            2.062      6.16     74.43
         H          1.029            2.062      6.16     74.43
         H          1.023            2.062      6.16     74.49
         H          1.023            2.062      6.16     74.49
         H          1.015            2.062      6.17     74.56
         H          1.015            2.062      6.17     74.56
         H          1.025            2.062      6.16     74.46
         H          1.025            2.062      6.16     74.46
         H          1.030            2.062      6.16     74.42
         H          1.030            2.062      6.16     74.42
         H          1.021            2.062      6.16     74.50
         H          1.021            2.062      6.16     74.50
         N          3.209            2.478     31.19    688.16
         N          3.209            2.478     31.19    688.16
         O          1.057            2.345     25.53    515.21
         O          1.057            2.345     25.53    515.21

         Molecular C6 ( Ry / a.u.^6 ) =     36555.70


     number of k points=     8  Gaussian smearing, width (Ry)=  0.0100
                       cart. coord. in units 2pi/alat
        k(    1) = (   0.0000000   0.0000000   0.0000000), wk =   0.2500000
        k(    2) = (   0.0000000   0.0000000  -0.1345193), wk =   0.2500000
        k(    3) = (   0.0000000  -0.2940502  -0.0620940), wk =   0.2500000
        k(    4) = (   0.0000000  -0.2940502  -0.1966133), wk =   0.2500000
        k(    5) = (  -0.5000000  -0.1072820  -0.0619759), wk =   0.2500000
        k(    6) = (  -0.5000000  -0.1072820  -0.1964951), wk =   0.2500000
        k(    7) = (  -0.5000000  -0.4013322  -0.1240699), wk =   0.2500000
        k(    8) = (  -0.5000000  -0.4013322  -0.2585891), wk =   0.2500000

     Dense  grid:   316619 G-vectors     FFT dimensions: (  45,  80, 180)

     Smooth grid:    68325 G-vectors     FFT dimensions: (  27,  48, 108)

     Estimated max dynamical RAM per process >      18.62 MB

     Estimated total dynamical RAM >     893.65 MB

     Check: negative core charge=   -0.000005

     Initial potential from superposition of free atoms

     starting charge     113.9990, renormalised to     114.0000
     Starting wfcs are  108 randomized atomic wfcs
     Checking if some PAW data can be deallocated... 

     total cpu time spent up to now is        2.7 secs

     Self-consistent Calculation

     iteration #  1     ecut=    36.00 Ry     beta= 0.20
     Davidson diagonalization with overlap
     ethr =  1.00E-02,  avg # of iterations =  2.1

     total cpu time spent up to now is        3.6 secs

     total energy              =    -522.83405942 Ry
     estimated scf accuracy    <       4.65351867 Ry

     iteration #  2     ecut=    36.00 Ry     beta= 0.20
     Davidson diagonalization with overlap
     ethr =  4.08E-03,  avg # of iterations =  1.0

     total cpu time spent up to now is        4.0 secs

     total energy              =    -521.88652119 Ry
     estimated scf accuracy    <       2.13809022 Ry

     iteration #  3     ecut=    36.00 Ry     beta= 0.20
     Davidson diagonalization with overlap
     ethr =  1.88E-03,  avg # of iterations =  5.4

     total cpu time spent up to now is        4.8 secs

     total energy              =    -522.17717901 Ry
     estimated scf accuracy    <       0.21212679 Ry

     iteration #  4     ecut=    36.00 Ry     beta= 0.20
     Davidson diagonalization with overlap
     ethr =  1.86E-04,  avg # of iterations =  8.9

     total cpu time spent up to now is        5.6 secs

     total energy              =    -522.16863436 Ry
     estimated scf accuracy    <       0.08662867 Ry

     iteration #  5     ecut=    36.00 Ry     beta= 0.20
     Davidson diagonalization with overlap
     ethr =  7.60E-05,  avg # of iterations =  2.4

     total cpu time spent up to now is        6.1 secs

     total energy              =    -522.17859831 Ry
     estimated scf accuracy    <       0.01758856 Ry

     iteration #  6     ecut=    36.00 Ry     beta= 0.20
     Davidson diagonalization with overlap
     ethr =  1.54E-05,  avg # of iterations =  3.4

     total cpu time spent up to now is        6.7 secs

     total energy              =    -522.17936820 Ry
     estimated scf accuracy    <       0.00479664 Ry

     iteration #  7     ecut=    36.00 Ry     beta= 0.20
     Davidson diagonalization with overlap
     ethr =  4.21E-06,  avg # of iterations =  7.4

     total cpu time spent up to now is        7.5 secs

     total energy              =    -522.17972168 Ry
     estimated scf accuracy    <       0.00153414 Ry

     iteration #  8     ecut=    36.00 Ry     beta= 0.20
     Davidson diagonalization with overlap
     ethr =  1.35E-06,  avg # of iterations =  4.9

     total cpu time spent up to now is        8.2 secs

     total energy              =    -522.17993339 Ry
     estimated scf accuracy    <       0.00122532 Ry

     iteration #  9     ecut=    36.00 Ry     beta= 0.20
     Davidson diagonalization with overlap
     ethr =  1.07E-06,  avg # of iterations =  4.0

     total cpu time spent up to now is        8.8 secs

     total energy              =    -522.18011490 Ry
     estimated scf accuracy    <       0.00005114 Ry

     iteration # 10     ecut=    36.00 Ry     beta= 0.20
     Davidson diagonalization with overlap
     ethr =  4.49E-08,  avg # of iterations =  4.9

     total cpu time spent up to now is        9.5 secs

     total energy              =    -522.18014947 Ry
     estimated scf accuracy    <       0.00001334 Ry

     iteration # 11     ecut=    36.00 Ry     beta= 0.20
     Davidson diagonalization with overlap
     ethr =  1.17E-08,  avg # of iterations =  2.0

     total cpu time spent up to now is       10.0 secs

     total energy              =    -522.18015682 Ry
     estimated scf accuracy    <       0.00000542 Ry

     iteration # 12     ecut=    36.00 Ry     beta= 0.20
     Davidson diagonalization with overlap
     ethr =  4.75E-09,  avg # of iterations =  2.0

     total cpu time spent up to now is       10.5 secs

     End of self-consistent calculation

          k = 0.0000 0.0000 0.0000 (  8537 PWs)   bands (ev):

   -17.5168 -17.3871 -16.6236 -16.5959 -15.1925 -15.0034 -14.2838 -12.8996
   -12.7139 -12.5301 -12.1784 -11.6746 -11.3024 -10.2111  -9.2532  -8.9878
    -8.5008  -8.4488  -8.2395  -7.7358  -7.0547  -7.0520  -6.9614  -6.1296
    -5.5689  -4.8294  -4.7898  -4.7546  -4.6572  -4.5293  -4.1551  -4.0087
    -3.9843  -3.5726  -3.2775  -3.2006  -3.1517  -2.9551  -2.4789  -2.2050
    -2.1156  -1.6968  -1.6965  -1.4974  -1.3983  -1.3197  -1.1674  -1.1369
    -0.3794   0.2581   0.5113   0.5643   1.1034   1.4171   1.5250   1.6183
     2.1387   3.6916   4.8104   5.4801   5.9244   6.2478   6.5022   6.5389
     6.6366   7.7242   7.9409   8.0377

          k = 0.0000 0.0000-0.1345 (  8514 PWs)   bands (ev):

   -17.5164 -17.3876 -16.6236 -16.5960 -15.1573 -15.0512 -14.2637 -12.9029
   -12.7988 -12.4267 -12.1324 -11.7534 -11.3335 -10.1477  -9.1691  -9.0048
    -8.5037  -8.4694  -8.3394  -7.8821  -7.0874  -7.0001  -6.7541  -5.7421
    -5.6250  -5.5010  -4.8089  -4.6819  -4.6536  -4.4680  -4.1836  -4.0353
    -3.9015  -3.3750  -3.2357  -3.1533  -3.0634  -2.9431  -2.6146  -2.2738
    -2.0723  -1.9783  -1.5420  -1.4689  -1.4311  -1.3420  -1.1264  -1.0945
    -0.3819   0.2356   0.5122   0.6016   1.1036   1.3842   1.5406   1.6230
     2.1442   3.6890   4.8023   5.4469   5.9471   6.3127   6.4752   6.5371
     6.6633   7.5739   7.9327   8.2948

          k = 0.0000-0.2941-0.0621 (  8526 PWs)   bands (ev):

   -17.4082 -17.2815 -16.8005 -16.7756 -15.1482 -15.0132 -14.1733 -12.8378
   -12.7804 -12.4632 -12.0497 -11.7419 -11.3339 -10.0977  -9.2307  -8.9131
    -8.6978  -8.6045  -8.2412  -8.0157  -7.1785  -6.8934  -6.7401  -5.9284
    -5.5500  -5.4654  -4.8951  -4.7934  -4.5819  -4.4070  -4.3463  -3.9920
    -3.8103  -3.2049  -3.1945  -3.1643  -2.9834  -2.7692  -2.4511  -2.1938
    -2.0763  -1.9218  -1.6665  -1.6663  -1.5284  -1.3054  -1.2098  -1.0880
    -0.3252   0.2917   0.5495   0.5762   0.9460   1.4262   1.6060   1.6647
     2.2624   3.5476   4.7677   5.4540   5.9658   6.2839   6.4980   6.5207
     6.9664   7.6171   8.0231   8.4165

          k = 0.0000-0.2941-0.1966 (  8540 PWs)   bands (ev):

   -17.4085 -17.2812 -16.8004 -16.7757 -15.1769 -14.9723 -14.1959 -12.7910
   -12.7484 -12.5407 -12.0846 -11.7074 -11.3052 -10.1127  -9.2770  -8.9493
    -8.7555  -8.4836  -8.3039  -7.7926  -7.2155  -6.8698  -6.8309  -6.3016
    -5.5352  -4.9181  -4.8530  -4.8440  -4.5565  -4.4549  -4.3521  -4.0301
    -4.0074  -3.2200  -3.2046  -3.1717  -2.9792  -2.7690  -2.5350  -2.1448
    -1.9941  -1.8602  -1.6723  -1.6056  -1.4886  -1.3565  -1.2853  -1.1067
    -0.3154   0.3036   0.5114   0.5861   0.9465   1.4412   1.6044   1.6715
     2.2510   3.5390   4.8050   5.4237   5.9928   6.2703   6.4558   6.5268
     6.9500   7.6536   8.0518   8.4199

          k =-0.5000-0.1073-0.0620 (  8542 PWs)   bands (ev):

   -17.2979 -17.1999 -16.7334 -16.7214 -15.0341 -14.8609 -14.1119 -12.7317
   -12.6352 -12.4386 -12.0586 -11.7175 -11.3074 -10.1197  -9.2710  -8.9710
    -8.7052  -8.5030  -8.3197  -7.8051  -7.2185  -6.9055  -6.8104  -6.2611
    -5.5526  -4.9912  -4.8326  -4.7600  -4.5681  -4.5217  -4.4676  -4.2806
    -4.1424  -4.0108  -3.9019  -3.2785  -3.2228  -3.1107  -2.8644  -2.5435
    -2.3314  -2.1685  -1.9625  -1.9004  -1.8566  -1.6515  -1.5950  -1.4396
    -0.8932  -0.1952   0.3718   0.4584   0.9027   1.3379   1.5949   1.6598
     2.3970   3.7189   4.8043   5.3213   6.1128   6.1986   6.5209   6.6123
     7.9897   8.4719   8.7324   9.3289

          k =-0.5000-0.1073-0.1965 (  8554 PWs)   bands (ev):

   -17.2977 -17.2001 -16.7335 -16.7214 -15.0137 -14.8895 -14.0965 -12.7598
   -12.6689 -12.3808 -12.0381 -11.7156 -11.3422 -10.1332  -9.2274  -8.9221
    -8.6480  -8.5832  -8.3047  -7.9697  -7.1830  -6.9288  -6.7763  -5.9748
    -5.5597  -5.3933  -4.8256  -4.7367  -4.5669  -4.5165  -4.3974  -4.2974
    -4.1100  -3.9979  -3.8902  -3.2173  -3.2044  -3.0617  -2.8722  -2.4756
    -2.2791  -2.2325  -2.1608  -1.9400  -1.9152  -1.6400  -1.6226  -1.3127
    -0.7904  -0.2691   0.3713   0.4535   0.9123   1.3483   1.5957   1.6590
     2.3934   3.7237   4.7932   5.2623   6.1569   6.2746   6.4990   6.6030
     7.9960   8.4716   8.6219   9.3033

          k =-0.5000-0.4013-0.1241 (  8560 PWs)   bands (ev):

   -17.3797 -17.2809 -16.6087 -16.5764 -15.0153 -14.9120 -14.1860 -12.8193
   -12.6924 -12.3595 -12.1067 -11.7319 -11.3553 -10.1601  -9.1441  -8.9720
    -8.4459  -8.4368  -8.3653  -7.8474  -7.1019  -6.9969  -6.8057  -5.8061
    -5.6093  -5.4393  -4.8519  -4.6858  -4.6442  -4.5708  -4.5645  -4.1923
    -4.1269  -4.0945  -3.9473  -3.4056  -3.3141  -3.0550  -3.0500  -2.5679
    -2.2736  -2.2569  -2.0366  -1.8986  -1.7851  -1.4144  -1.3471  -1.1317
    -0.7986  -0.2634   0.3014   0.5107   0.8073   1.0699   1.5729   1.5968
     2.3507   3.6037   4.7865   5.2806   5.8643   6.3583   6.5166   6.5311
     7.9540   8.2375   8.3563   9.1172

          k =-0.5000-0.4013-0.2586 (  8552 PWs)   bands (ev):

   -17.3799 -17.2806 -16.6087 -16.5764 -15.0410 -14.8772 -14.2007 -12.8128
   -12.6316 -12.4326 -12.1452 -11.6903 -11.3206 -10.1873  -9.2256  -8.9775
    -8.4586  -8.4125  -8.2597  -7.7436  -7.0745  -7.0468  -6.9322  -6.1036
    -5.5829  -4.9394  -4.8274  -4.7731  -4.6485  -4.5839  -4.5756  -4.1632
    -4.1614  -4.0711  -3.9457  -3.5445  -3.2895  -3.2594  -3.1015  -2.4762
    -2.2942  -2.1085  -1.9401  -1.8406  -1.6657  -1.6517  -1.2840  -1.1822
    -0.8836  -0.2221   0.3154   0.4915   0.8327   1.0533   1.5771   1.5966
     2.3492   3.5916   4.8069   5.2855   5.8740   6.3512   6.4890   6.5415
     7.9570   8.2083   8.3164   9.1851

     the Fermi energy is     2.9693 ev

!    total energy              =    -522.18017083 Ry
     total all-electron energy =     -2057.753441 Ry
     estimated scf accuracy    <       0.00000098 Ry
     smearing contrib. (-TS)   =      -0.00000000 Ry
     internal energy E=F+TS    =    -522.18017083 Ry

     The total energy is F=E-TS. E is the sum of the following terms:
     one-electron contribution =    -342.37611320 Ry
     hartree contribution      =     216.87777458 Ry
     xc contribution           =    -128.81737392 Ry
     ewald contribution        =    -109.10862434 Ry
     DFT-D3 Dispersion         =      -0.22280467 Ry
     one-center paw contrib.   =    -158.53302928 Ry

     convergence has been achieved in  12 iterations

     Forces acting on atoms (cartesian axes, Ry/au):

     atom    1 type  1   force =     0.08839791    0.31328404    0.00726378
     atom    2 type  1   force =    -0.08839810   -0.31328435   -0.00726246
     atom    3 type  1   force =     0.04832699   -0.19939614   -0.20944461
     atom    4 type  1   force =    -0.04832691    0.19939639    0.20944490
     atom    5 type  1   force =    -0.12038513   -0.17979840    0.09431846
     atom    6 type  1   force =     0.12038512    0.17979827   -0.09431863
     atom    7 type  1   force =     0.07193353    0.04377337   -0.08329849
     atom    8 type  1   force =    -0.07193328   -0.04377208    0.08329885
     atom    9 type  1   force =    -0.04508877    0.16899494    0.20186120
     atom   10 type  1   force =     0.04508806   -0.16899423   -0.20186050
     atom   11 type  1   force =     0.07275516   -0.01468769   -0.22857549
     atom   12 type  1   force =    -0.07275534    0.01468908    0.22857394
     atom   13 type  1   force =     0.04196745    0.08476995   -0.13972660
     atom   14 type  1   force =    -0.04196813   -0.08476952    0.13972668
     atom   15 type  1   force =     0.03032232    0.20272051    0.11314318
     atom   16 type  1   force =    -0.03032207   -0.20272225   -0.11314553
     atom   17 type  1   force =    -0.00503406   -0.03822681    0.00641469
     atom   18 type  1   force =     0.00503420    0.03822687   -0.00641699
     atom   19 type  1   force =    -0.02738740   -0.04439982    0.03048816
     atom   20 type  1   force =     0.02738643    0.04439865   -0.03048779
     atom   21 type  2   force =     0.08660672    0.32865789   -0.00332142
     atom   22 type  2   force =    -0.08660682   -0.32865717    0.00332133
     atom   23 type  2   force =    -0.03510267    0.07069916    0.11897682
     atom   24 type  2   force =     0.03510279   -0.07069891   -0.11897778
     atom   25 type  2   force =    -0.06373786   -0.06319605    0.11538375
     atom   26 type  2   force =     0.06373803    0.06319705   -0.11538437
     atom   27 type  2   force =    -0.06733456   -0.28257651   -0.00621098
     atom   28 type  2   force =     0.06733478    0.28257803    0.00621109
     atom   29 type  2   force =    -0.09101094   -0.33791626    0.00592736
     atom   30 type  2   force =     0.09101155    0.33791779   -0.00592724
     atom   31 type  2   force =    -0.08951530   -0.30337492    0.01628142
     atom   32 type  2   force =     0.08951566    0.30337653   -0.01628162
     atom   33 type  3   force =     0.13272850    0.41643058   -0.01067511
     atom   34 type  3   force =    -0.13272710   -0.41642493    0.01067476
     atom   35 type  4   force =    -0.05033464   -0.18267859   -0.01060432
     atom   36 type  4   force =     0.05033388    0.18266553    0.01060957
     The non-local contrib.  to forces
     atom    1 type  1   force =     0.10240599    0.38002832    0.01359719
     atom    2 type  1   force =    -0.10240218   -0.38002634   -0.01360311
     atom    3 type  1   force =     0.07330222   -0.21016675   -0.25100483
     atom    4 type  1   force =    -0.07330287    0.21016544    0.25100871
     atom    5 type  1   force =    -0.13309919   -0.20127580    0.08717156
     atom    6 type  1   force =     0.13309832    0.20127388   -0.08717000
     atom    7 type  1   force =     0.04693215    0.04142671   -0.05402577
     atom    8 type  1   force =    -0.04693335   -0.04142711    0.05402815
     atom    9 type  1   force =    -0.00941679    0.17529255    0.14273400
     atom   10 type  1   force =     0.00941609   -0.17529172   -0.14273198
     atom   11 type  1   force =     0.12444933   -0.18529742   -0.51251904
     atom   12 type  1   force =    -0.12445253    0.18529221    0.51251828
     atom   13 type  1   force =     0.03400421    0.01526756   -0.18191564
     atom   14 type  1   force =    -0.03400634   -0.01526915    0.18192135
     atom   15 type  1   force =     0.05136321    0.28019079    0.09745875
     atom   16 type  1   force =    -0.05137106   -0.28021902   -0.09746570
     atom   17 type  1   force =    -0.04562073   -0.10392318    0.06167405
     atom   18 type  1   force =     0.04562131    0.10391992   -0.06168315
     atom   19 type  1   force =    -0.17626571   -0.09897446    0.30553272
     atom   20 type  1   force =     0.17626277    0.09896517   -0.30553457
     atom   21 type  2   force =    -0.02790456   -0.11980117   -0.00454819
     atom   22 type  2   force =     0.02790450    0.11980089    0.00454823
     atom   23 type  2   force =     0.01334358   -0.05072839   -0.08483881
     atom   24 type  2   force =    -0.01334358    0.05072835    0.08483881
     atom   25 type  2   force =     0.04108702    0.04322070   -0.07922208
     atom   26 type  2   force =    -0.04108702   -0.04322071    0.07922208
     atom   27 type  2   force =     0.01979118    0.11559656   -0.00428355
     atom   28 type  2   force =    -0.01979113   -0.11559635    0.00428360
     atom   29 type  2   force =     0.03851885    0.15236224    0.00037302
     atom   30 type  2   force =    -0.03851877   -0.15236203   -0.00037298
     atom   31 type  2   force =     0.03504108    0.11755369   -0.00669477
     atom   32 type  2   force =    -0.03504113   -0.11755390    0.00669472
     atom   33 type  3   force =     0.26757387    0.32622672    0.00090005
     atom   34 type  3   force =    -0.26757419   -0.32622500   -0.00090252
     atom   35 type  4   force =    -0.51157190   -2.07534711   -0.07134957
     atom   36 type  4   force =     0.51158384    2.07533885    0.07135873
     The ionic contribution  to forces
     atom    1 type  1   force =    -0.79489369   -4.27346710    0.48898095
     atom    2 type  1   force =     0.79489369    4.27346710   -0.48898095
     atom    3 type  1   force =     0.63426529    5.38395114    4.48657824
     atom    4 type  1   force =    -0.63426529   -5.38395114   -4.48657824
     atom    5 type  1   force =    -0.86024194    1.64248486    7.80404373
     atom    6 type  1   force =     0.86024194   -1.64248486   -7.80404373
     atom    7 type  1   force =    -1.90706516   -2.69858704    7.70876573
     atom    8 type  1   force =     1.90706516    2.69858704   -7.70876573
     atom    9 type  1   force =    -1.75691834   -5.30353369    6.66150756
     atom   10 type  1   force =     1.75691834    5.30353369   -6.66150756
     atom   11 type  1   force =     0.44608059   -1.49303748    4.48306497
     atom   12 type  1   force =    -0.44608059    1.49303748   -4.48306497
     atom   13 type  1   force =     1.06500247    2.42961687    4.07669939
     atom   14 type  1   force =    -1.06500247   -2.42961687   -4.07669939
     atom   15 type  1   force =    -0.63321492    0.69003690    3.04344275
     atom   16 type  1   force =     0.63321492   -0.69003690   -3.04344275
     atom   17 type  1   force =    -0.00350874    1.67229231    0.92319081
     atom   18 type  1   force =     0.00350874   -1.67229231   -0.92319081
     atom   19 type  1   force =     0.22560621   -1.27122486    0.74808960
     atom   20 type  1   force =    -0.22560621    1.27122486   -0.74808960
     atom   21 type  2   force =     0.61100837    3.44663028    1.46380934
     atom   22 type  2   force =    -0.61100836   -3.44663028   -1.46380934
     atom   23 type  2   force =    -0.55324930    1.43351478    2.41019299
     atom   24 type  2   force =     0.55324930   -1.43351478   -2.41019299
     atom   25 type  2   force =    -1.11120861   -1.46021738    2.81255669
     atom   26 type  2   force =     1.11120861    1.46021738   -2.81255669
     atom   27 type  2   force =    -0.58588333   -3.25862811    1.67163664
     atom   28 type  2   force =     0.58588333    3.25862811   -1.67163664
     atom   29 type  2   force =    -0.68260216   -3.77196781    0.84915560
     atom   30 type  2   force =     0.68260216    3.77196781   -0.84915560
     atom   31 type  2   force =    -0.85551624   -3.12692256    0.26809979
     atom   32 type  2   force =     0.85551624    3.12692256   -0.26809979
     atom   33 type  3   force =    -0.87800818   -4.19617663    3.91748286
     atom   34 type  3   force =     0.87800818    4.19617663   -3.91748286
     atom   35 type  4   force =     1.41150855    7.81592329    4.51625281
     atom   36 type  4   force =    -1.41150855   -7.81592329   -4.51625281
     The local contribution  to forces
     atom    1 type  1   force =     0.78367956    4.21497780   -0.49523562
     atom    2 type  1   force =    -0.78368177   -4.21498474    0.49521203
     atom    3 type  1   force =    -0.65747524   -5.37774814   -4.45321707
     atom    4 type  1   force =     0.65747466    5.37775070    4.45323245
     atom    5 type  1   force =     0.87014701   -1.62793675   -7.79422923
     atom    6 type  1   force =    -0.87014636    1.62793361    7.79424265
     atom    7 type  1   force =     1.93396783    2.70307792   -7.74090491
     atom    8 type  1   force =    -1.93396531   -2.70307778    7.74091660
     atom    9 type  1   force =     1.72042555    5.30163413   -6.59830093
     atom   10 type  1   force =    -1.72042599   -5.30164057    6.59831316
     atom   11 type  1   force =    -0.49363321    1.66080325   -4.21054341
     atom   12 type  1   force =     0.49363643   -1.66081200    4.21055335
     atom   13 type  1   force =    -1.05617360   -2.35864358   -4.03642257
     atom   14 type  1   force =     1.05617089    2.35864138    4.03644217
     atom   15 type  1   force =     0.61187007   -0.76317340   -3.02487657
     atom   16 type  1   force =    -0.61185308    0.76324359    3.02488786
     atom   17 type  1   force =     0.04286454   -1.60868344   -0.97782058
     atom   18 type  1   force =    -0.04286142    1.60866875    0.97779332
     atom   19 type  1   force =    -0.07979401    1.32489295   -1.01674845
     atom   20 type  1   force =     0.07979442   -1.32491251    1.01672631
     atom   21 type  2   force =    -0.49661666   -2.99827394   -1.46243315
     atom   22 type  2   force =     0.49661692    2.99827540    1.46243598
     atom   23 type  2   force =     0.50495477   -1.31213947   -2.20658633
     atom   24 type  2   force =    -0.50495460    1.31213751    2.20658743
     atom   25 type  2   force =     1.00660841    1.35360926   -2.61795176
     atom   26 type  2   force =    -1.00660776   -1.35360860    2.61795299
     atom   27 type  2   force =     0.49891533    2.86058939   -1.67336719
     atom   28 type  2   force =    -0.49891504   -2.86058926    1.67336938
     atom   29 type  2   force =     0.55316901    3.28168084   -0.84351129
     atom   30 type  2   force =    -0.55316866   -3.28168246    0.84350982
     atom   31 type  2   force =     0.73109906    2.70606279   -0.24510020
     atom   32 type  2   force =    -0.73109827   -2.70605772    0.24509475
     atom   33 type  3   force =     0.74866453    4.29613951   -3.92830180
     atom   34 type  3   force =    -0.74866294   -4.29615703    3.92829434
     atom   35 type  4   force =    -0.95489361   -5.94119457   -4.45625599
     atom   36 type  4   force =     0.95487943    5.94122419    4.45624332
     The core correction contribution to forces
     atom    1 type  1   force =    -0.00215064   -0.00760037   -0.00033134
     atom    2 type  1   force =     0.00215054    0.00760030    0.00033145
     atom    3 type  1   force =    -0.00231860    0.00302233    0.00844753
     atom    4 type  1   force =     0.00231859   -0.00302231   -0.00844759
     atom    5 type  1   force =     0.00355605    0.00611349   -0.00459240
     atom    6 type  1   force =    -0.00355603   -0.00611345    0.00459240
     atom    7 type  1   force =    -0.00024591   -0.00166125    0.00108257
     atom    8 type  1   force =     0.00024594    0.00166126   -0.00108259
     atom    9 type  1   force =     0.00210855   -0.00273303   -0.00411537
     atom   10 type  1   force =    -0.00210855    0.00273300    0.00411536
     atom   11 type  1   force =    -0.00428315    0.00368501    0.01313485
     atom   12 type  1   force =     0.00428323   -0.00368488   -0.01313480
     atom   13 type  1   force =    -0.00227288   -0.00252763    0.00395346
     atom   14 type  1   force =     0.00227290    0.00252764   -0.00395355
     atom   15 type  1   force =    -0.00012410   -0.00501602   -0.00297778
     atom   16 type  1   force =     0.00012437    0.00501698    0.00297795
     atom   17 type  1   force =     0.00123101    0.00187813   -0.00127552
     atom   18 type  1   force =    -0.00123101   -0.00187812    0.00127565
     atom   19 type  1   force =     0.00360547    0.00150161   -0.00654138
     atom   20 type  1   force =    -0.00360540   -0.00150142    0.00654137
     atom   21 type  2   force =     0.00000000    0.00000000    0.00000000
     atom   22 type  2   force =     0.00000000    0.00000000    0.00000000
     atom   23 type  2   force =     0.00000000    0.00000000    0.00000000
     atom   24 type  2   force =     0.00000000    0.00000000    0.00000000
     atom   25 type  2   force =     0.00000000    0.00000000    0.00000000
     atom   26 type  2   force =     0.00000000    0.00000000    0.00000000
     atom   27 type  2   force =     0.00000000    0.00000000    0.00000000
     atom   28 type  2   force =     0.00000000    0.00000000    0.00000000
     atom   29 type  2   force =     0.00000000    0.00000000    0.00000000
     atom   30 type  2   force =     0.00000000    0.00000000    0.00000000
     atom   31 type  2   force =     0.00000000    0.00000000    0.00000000
     atom   32 type  2   force =     0.00000000    0.00000000    0.00000000
     atom   33 type  3   force =    -0.00524675   -0.00984859   -0.00020823
     atom   34 type  3   force =     0.00524679    0.00984855    0.00020827
     atom   35 type  4   force =     0.00452289    0.01803943    0.00069238
     atom   36 type  4   force =    -0.00452309   -0.01803925   -0.00069255
     The Hubbard contrib.    to forces
     atom    1 type  1   force =     0.00000000    0.00000000    0.00000000
     atom    2 type  1   force =     0.00000000    0.00000000    0.00000000
     atom    3 type  1   force =     0.00000000    0.00000000    0.00000000
     atom    4 type  1   force =     0.00000000    0.00000000    0.00000000
     atom    5 type  1   force =     0.00000000    0.00000000    0.00000000
     atom    6 type  1   force =     0.00000000    0.00000000    0.00000000
     atom    7 type  1   force =     0.00000000    0.00000000    0.00000000
     atom    8 type  1   force =     0.00000000    0.00000000    0.00000000
     atom    9 type  1   force =     0.00000000    0.00000000    0.00000000
     atom   10 type  1   force =     0.00000000    0.00000000    0.00000000
     atom   11 type  1   force =     0.00000000    0.00000000    0.00000000
     atom   12 type  1   force =     0.00000000    0.00000000    0.00000000
     atom   13 type  1   force =     0.00000000    0.00000000    0.00000000
     atom   14 type  1   force =     0.00000000    0.00000000    0.00000000
     atom   15 type  1   force =     0.00000000    0.00000000    0.00000000
     atom   16 type  1   force =     0.00000000    0.00000000    0.00000000
     atom   17 type  1   force =     0.00000000    0.00000000    0.00000000
     atom   18 type  1   force =     0.00000000    0.00000000    0.00000000
     atom   19 type  1   force =     0.00000000    0.00000000    0.00000000
     atom   20 type  1   force =     0.00000000    0.00000000    0.00000000
     atom   21 type  2   force =     0.00000000    0.00000000    0.00000000
     atom   22 type  2   force =     0.00000000    0.00000000    0.00000000
     atom   23 type  2   force =     0.00000000    0.00000000    0.00000000
     atom   24 type  2   force =     0.00000000    0.00000000    0.00000000
     atom   25 type  2   force =     0.00000000    0.00000000    0.00000000
     atom   26 type  2   force =     0.00000000    0.00000000    0.00000000
     atom   27 type  2   force =     0.00000000    0.00000000    0.00000000
     atom   28 type  2   force =     0.00000000    0.00000000    0.00000000
     atom   29 type  2   force =     0.00000000    0.00000000    0.00000000
     atom   30 type  2   force =     0.00000000    0.00000000    0.00000000
     atom   31 type  2   force =     0.00000000    0.00000000    0.00000000
     atom   32 type  2   force =     0.00000000    0.00000000    0.00000000
     atom   33 type  3   force =     0.00000000    0.00000000    0.00000000
     atom   34 type  3   force =     0.00000000    0.00000000    0.00000000
     atom   35 type  4   force =     0.00000000    0.00000000    0.00000000
     atom   36 type  4   force =     0.00000000    0.00000000    0.00000000
     The SCF correction term to forces
     atom    1 type  1   force =    -0.00006305    0.00008636   -0.00005799
     atom    2 type  1   force =     0.00006140   -0.00008255    0.00008899
     atom    3 type  1   force =     0.00002749   -0.00009231   -0.00004339
     atom    4 type  1   force =    -0.00002614    0.00009037    0.00002475
     atom    5 type  1   force =    -0.00000741   -0.00007518   -0.00006593
     atom    6 type  1   force =     0.00000763    0.00007916    0.00005104
     atom    7 type  1   force =    -0.00005340    0.00003397   -0.00006888
     atom    8 type  1   force =     0.00005233   -0.00003335    0.00005546
     atom    9 type  1   force =    -0.00009428    0.00005404    0.00006129
     atom   10 type  1   force =     0.00009474   -0.00004860   -0.00007457
     atom   11 type  1   force =     0.00001862    0.00015460   -0.00005988
     atom   12 type  1   force =    -0.00001886   -0.00014030    0.00004936
     atom   13 type  1   force =     0.00006588   -0.00004984    0.00000515
     atom   14 type  1   force =    -0.00006172    0.00005313   -0.00003003
     atom   15 type  1   force =     0.00005528   -0.00003064    0.00010048
     atom   16 type  1   force =    -0.00006440   -0.00001494   -0.00010708
     atom   17 type  1   force =     0.00001618   -0.00004967    0.00009490
     atom   18 type  1   force =    -0.00001972    0.00006675   -0.00006072
     atom   19 type  1   force =    -0.00004467    0.00016232    0.00003485
     atom   20 type  1   force =     0.00004619   -0.00013574   -0.00001021
     atom   21 type  2   force =     0.00002172    0.00003894   -0.00000640
     atom   22 type  2   force =    -0.00002199   -0.00004033    0.00000371
     atom   23 type  2   force =    -0.00000947    0.00001561    0.00004080
     atom   24 type  2   force =     0.00000946   -0.00001427   -0.00004260
     atom   25 type  2   force =    -0.00002607   -0.00001855    0.00003249
     atom   26 type  2   force =     0.00002564    0.00001798   -0.00003407
     atom   27 type  2   force =    -0.00002410   -0.00003523    0.00001448
     atom   28 type  2   force =     0.00002401    0.00003550   -0.00001634
     atom   29 type  2   force =    -0.00001316    0.00001060    0.00001480
     atom   30 type  2   force =     0.00001337   -0.00000858   -0.00001298
     atom   31 type  2   force =    -0.00002120   -0.00001708   -0.00000945
     atom   32 type  2   force =     0.00002087    0.00001290    0.00001502
     atom   33 type  3   force =    -0.00009298    0.00022593    0.00004200
     atom   34 type  3   force =     0.00009310   -0.00020536   -0.00003218
     atom   35 type  4   force =    -0.00004095   -0.00047033    0.00013397
     atom   36 type  4   force =     0.00004267    0.00043481   -0.00012478

     DFT-D3 dispersion contribution to forces:
     atom    1 type  1   force =    -0.00058024   -0.00074142    0.00031073
     atom    2 type  1   force =     0.00058024    0.00074142   -0.00031073
     atom    3 type  1   force =     0.00052585    0.00163713   -0.00020496
     atom    4 type  1   force =    -0.00052585   -0.00163713    0.00020496
     atom    5 type  1   force =    -0.00073964    0.00089052    0.00199086
     atom    6 type  1   force =     0.00073964   -0.00089052   -0.00199086
     atom    7 type  1   force =    -0.00160197   -0.00051739    0.00185290
     atom    8 type  1   force =     0.00160197    0.00051739   -0.00185290
     atom    9 type  1   force =    -0.00119344   -0.00171952   -0.00002522
     atom   10 type  1   force =     0.00119344    0.00171952    0.00002522
     atom   11 type  1   force =     0.00012301   -0.00099610   -0.00165285
     atom   12 type  1   force =    -0.00012301    0.00099610    0.00165285
     atom   13 type  1   force =     0.00134138    0.00110611   -0.00204626
     atom   14 type  1   force =    -0.00134138   -0.00110611    0.00204626
     atom   15 type  1   force =     0.00037280    0.00071242   -0.00000432
     atom   16 type  1   force =    -0.00037280   -0.00071242    0.00000432
     atom   17 type  1   force =    -0.00001631    0.00025858    0.00055115
     atom   18 type  1   force =     0.00001631   -0.00025858   -0.00055115
     atom   19 type  1   force =    -0.00049468   -0.00075784    0.00012096
     atom   20 type  1   force =     0.00049468    0.00075784   -0.00012096
     atom   21 type  2   force =     0.00009786    0.00006332   -0.00014289
     atom   22 type  2   force =    -0.00009786   -0.00006332    0.00014289
     atom   23 type  2   force =    -0.00014223    0.00003617    0.00016831
     atom   24 type  2   force =     0.00014223   -0.00003617   -0.00016831
     atom   25 type  2   force =    -0.00019858    0.00020946   -0.00003146
     atom   26 type  2   force =     0.00019858   -0.00020946    0.00003146
     atom   27 type  2   force =    -0.00013363   -0.00009957   -0.00021122
     atom   28 type  2   force =     0.00013363    0.00009957    0.00021122
     atom   29 type  2   force =    -0.00008346   -0.00000259   -0.00010464
     atom   30 type  2   force =     0.00008346    0.00000259    0.00010464
     atom   31 type  2   force =    -0.00011798   -0.00005222   -0.00001382
     atom   32 type  2   force =     0.00011798    0.00005222    0.00001382
     atom   33 type  3   force =    -0.00016197   -0.00013682   -0.00058985
     atom   34 type  3   force =     0.00016197    0.00013682    0.00058985
     atom   35 type  4   force =     0.00014040    0.00037026   -0.00007780
     atom   36 type  4   force =    -0.00014040   -0.00037026    0.00007780

     Total force =     1.530338     Total SCF correction =     0.000931

     BFGS Geometry Optimization
     Energy error            =      0.0E+00 Ry
     Gradient error          =      4.2E-01 Ry/Bohr

     number of scf cycles    =   1
     number of bfgs steps    =   0

     energy             new  =    -522.1801708281 Ry

     new trust radius        =       0.4372015970 bohr
     new conv_thr            =       0.0000010000 Ry


ATOMIC_POSITIONS (angstrom)
C             2.7573716282        2.0281966233        0.0588122030
C            -1.4539682436        1.4522262102       14.0718764369
C             1.7984105465        4.9779666558        4.5439565998
C            -0.4950070233       -1.4975435257        9.5867314941
C             1.2279897158        4.4047255251        5.7198497135
C             0.0754137617       -0.9243025941        8.4108381326
C             0.8805771804        3.1909088469        5.5441834966
C             0.4228264330        0.2895148320        8.5865046349
C             1.0660569117        2.5140905405        4.5560087506
C             0.2373461934        0.9663328327        9.5746795570
C             1.7351043016        2.9886114951        3.3390833063
C            -0.4317009124        0.4918122401       10.7916038116
C             2.0923393413        4.3580082568        3.4453076981
C            -0.7889362226       -0.8775850313       10.6853802828
C            -1.1324293512        5.0174106233        2.2949237052
C             2.4358329626       -1.5369885458       11.8357629914
C            -0.9207836143        4.0897887717        1.0872182711
C             2.2241871671       -0.6093657438       13.0434684487
C             2.4804404037        2.7100718513        1.1556323159
C            -1.1770374330        0.7703505281       12.9750558206
H            -0.3813090616       -0.3028650421        4.6897720806
H             1.6847124928        3.7832884186        9.4409158111
H             1.1336151890        5.0454684471        6.5859679906
H             0.1697883546       -1.5650453167        7.5447194416
H             0.3942386408        2.6959366698        6.4523686049
H             0.9091649342        0.7844868597        7.6783190054
H             0.8863730482        1.3439904517        4.4710543186
H             0.4170305495        2.1364333506        9.6596336776
H             1.6032025828        1.1690299263        2.2897645442
H            -0.2997987799        2.3113938827       11.8409234548
H             2.3906241208        0.8081986355        0.1201068825
H            -1.0872204431        2.6722252132       14.0105809484
N             1.9348846352        2.4294664129        2.2775875300
N            -0.6314804113        1.0509595706       11.8531002224
O             0.5627885672       -0.3236117718        2.2568528821
O             0.7406145121        3.8040278584       11.8738378344



     Writing config-only to output data dir /scratch/calc/outdir/pwscf.save/
     NEW-OLD atomic charge density approx. for the potential

     Check: negative core charge=   -0.000005

     total cpu time spent up to now is       11.6 secs

     Self-consistent Calculation

     iteration #  1     ecut=    36.00 Ry     beta= 0.20
     Davidson diagonalization with overlap
     c_bands:  4 eigenvalues not converged
     c_bands:  1 eigenvalues not converged
     c_bands:  3 eigenvalues not converged
     c_bands:  3 eigenvalues not converged
     c_bands:  3 eigenvalues not converged
     c_bands:  2 eigenvalues not converged
     c_bands:  2 eigenvalues not converged
     ethr =  1.00E-06,  avg # of iterations = 20.0

     total cpu time spent up to now is       14.6 secs

     total energy              =    -522.01797200 Ry
     estimated scf accuracy    <       0.75407701 Ry

     iteration #  2     ecut=    36.00 Ry     beta= 0.20
     Davidson diagonalization with overlap
     ethr =  6.61E-04,  avg # of iterations =  1.0

     total cpu time spent up to now is       15.0 secs

     total energy              =    -521.91038553 Ry
     estimated scf accuracy    <       0.30162619 Ry

     iteration #  3     ecut=    36.00 Ry     beta= 0.20
     Davidson diagonalization with overlap
     ethr =  2.65E-04,  avg # of iterations =  2.6

     total cpu time spent up to now is       15.6 secs

     total energy              =    -521.94423257 Ry
     estimated scf accuracy    <       0.04834099 Ry

     iteration #  4     ecut=    36.00 Ry     beta= 0.20
     Davidson diagonalization with overlap
     ethr =  4.24E-05,  avg # of iterations =  8.6

     total cpu time spent up to now is       16.3 secs

     total energy              =    -521.94121811 Ry
     estimated scf accuracy    <       0.01755789 Ry

     iteration #  5     ecut=    36.00 Ry     beta= 0.20
     Davidson diagonalization with overlap
     ethr =  1.54E-05,  avg # of iterations =  5.6

     total cpu time spent up to now is       17.0 secs

     total energy              =    -521.94341017 Ry
     estimated scf accuracy    <       0.00170100 Ry

     iteration #  6     ecut=    36.00 Ry     beta= 0.20
     Davidson diagonalization with overlap
     ethr =  1.49E-06,  avg # of iterations =  6.0

     total cpu time spent up to now is       17.7 secs

     total energy              =    -521.94359674 Ry
     estimated scf accuracy    <       0.00063811 Ry

     iteration #  7     ecut=    36.00 Ry     beta= 0.20
     Davidson diagonalization with overlap
     ethr =  5.60E-07,  avg # of iterations =  2.0

     total cpu time spent up to now is       18.2 secs

     total energy              =    -521.94371023 Ry
     estimated scf accuracy    <       0.00008581 Ry

     iteration #  8     ecut=    36.00 Ry     beta= 0.20
     Davidson diagonalization with overlap
     ethr =  7.53E-08,  avg # of iterations =  2.9

     total cpu time spent up to now is       18.8 secs

     total energy              =    -521.94375436 Ry
     estimated scf accuracy    <       0.00003324 Ry

     iteration #  9     ecut=    36.00 Ry     beta= 0.20
     Davidson diagonalization with overlap
     ethr =  2.92E-08,  avg # of iterations =  2.0

     total cpu time spent up to now is       19.4 secs

     total energy              =    -521.94378741 Ry
     estimated scf accuracy    <       0.00000451 Ry

     iteration # 10     ecut=    36.00 Ry     beta= 0.20
     Davidson diagonalization with overlap
     ethr =  3.95E-09,  avg # of iterations =  2.5

     total cpu time spent up to now is       19.9 secs

     total energy              =    -521.94380447 Ry
     estimated scf accuracy    <       0.00000160 Ry

     iteration # 11     ecut=    36.00 Ry     beta= 0.20
     Davidson diagonalization with overlap
     ethr =  1.40E-09,  avg # of iterations =  2.9

     total cpu time spent up to now is       20.5 secs

     End of self-consistent calculation

          k = 0.0000 0.0000 0.0000 (  8537 PWs)   bands (ev):

   -19.9244 -19.9162 -18.7137 -18.6466 -15.3241 -15.0058 -14.6890 -12.9292
   -12.6576 -12.6147 -11.9403 -11.6406 -10.5674 -10.1303  -9.9814  -8.8449
    -8.4179  -7.5599  -7.4624  -7.2434  -7.0804  -6.4263  -6.2374  -6.1075
    -5.3373  -5.1892  -5.1188  -4.6981  -4.5198  -4.2806  -4.1935  -4.0761
    -3.9395  -3.8179  -3.2689  -2.9958  -2.9365  -2.3468  -2.2262  -2.0288
    -1.9719  -1.8509  -1.7081  -1.7031  -1.2801  -1.1181  -0.8359  -0.1708
    -0.0443   0.0058   0.2044   0.5728   0.7544   0.9518   1.0724   2.1690
     2.6884   4.2691   5.2891   5.3277   6.1617   6.4281   6.4442   7.2287
     7.2682   7.5469   7.7329   7.8357

          k = 0.0000 0.0000-0.1345 (  8514 PWs)   bands (ev):

   -19.9242 -19.9162 -18.7136 -18.6466 -15.3119 -15.0396 -14.6616 -12.9619
   -12.6597 -12.5898 -11.9443 -11.5826 -10.7498 -10.0882  -9.7998  -8.9294
    -8.4701  -7.5661  -7.4426  -7.2791  -7.0631  -6.2611  -6.2106  -6.0501
    -5.6361  -5.2806  -4.8874  -4.6994  -4.5926  -4.3137  -4.2357  -4.0746
    -3.9897  -3.7009  -3.0775  -2.9399  -2.8962  -2.7216  -2.2175  -1.9725
    -1.8829  -1.8419  -1.6915  -1.5644  -1.5350  -1.1429  -0.7158  -0.2093
    -0.0313   0.0347   0.1779   0.5681   0.7613   0.9790   1.0564   2.1286
     2.7308   4.2655   5.2352   5.3277   6.2171   6.4313   6.5048   7.1509
     7.2940   7.5645   7.7183   7.8089

          k = 0.0000-0.2941-0.0621 (  8526 PWs)   bands (ev):

   -19.9082 -19.9066 -18.7402 -18.6698 -15.3060 -15.0248 -14.6520 -12.9586
   -12.6077 -12.5640 -11.9744 -11.6083 -10.7785 -10.0300  -9.7737  -8.8446
    -8.4546  -7.8712  -7.5978  -7.4850  -6.9113  -6.4855  -6.1292  -6.1184
    -5.4940  -5.2616  -4.6314  -4.5577  -4.2706  -4.1033  -4.0087  -3.9239
    -3.7792  -3.6348  -3.0043  -2.9803  -2.8203  -2.7144  -2.7058  -2.6644
    -2.4276  -2.1501  -1.8429  -1.7867  -1.4108  -1.1233  -0.5577  -0.0734
     0.0618   0.1493   0.2146   0.6036   0.7391   1.2115   1.3325   2.1436
     2.7961   4.1829   5.2552   5.3518   6.3999   6.5045   6.8138   6.8234
     7.3789   7.7132   7.7632   7.8978

          k = 0.0000-0.2941-0.1966 (  8540 PWs)   bands (ev):

   -19.9084 -19.9066 -18.7403 -18.6697 -15.3143 -15.0008 -14.6724 -12.9345
   -12.6125 -12.5661 -11.9817 -11.6688 -10.5945 -10.1117  -9.8978  -8.7567
    -8.4515  -7.8686  -7.5843  -7.4466  -6.9029  -6.5049  -6.4099  -6.0278
    -5.4598  -4.9766  -4.8468  -4.4425  -4.2596  -4.1027  -4.0874  -3.8947
    -3.7469  -3.7385  -3.0029  -2.9828  -2.9304  -2.7175  -2.7077  -2.6495
    -2.1608  -2.1263  -2.0479  -1.7364  -1.4667  -1.0942  -0.4854  -0.1029
    -0.0622   0.1872   0.2596   0.6138   0.7358   1.1975   1.3397   2.1879
     2.7477   4.1815   5.3113   5.3544   6.3548   6.4904   6.6307   7.1346
     7.1887   7.7149   7.7641   7.8534

          k =-0.5000-0.1073-0.0620 (  8542 PWs)   bands (ev):

   -19.8794 -19.8751 -18.6574 -18.6080 -15.1890 -14.8749 -14.5636 -12.9396
   -12.5620 -12.5448 -11.8955 -11.5941 -10.5259 -10.0773  -9.8602  -8.8015
    -8.4999  -7.8343  -7.5720  -7.4754  -6.8907  -6.4752  -6.3610  -6.0280
    -5.4599  -5.3327  -5.0553  -4.8614  -4.7428  -4.4835  -4.0513  -3.8695
    -3.7936  -3.7190  -3.5857  -3.5355  -3.1594  -2.9199  -2.6073  -2.5895
    -2.5658  -2.5085  -2.0961  -2.0561  -1.6944  -1.4083  -0.5032  -0.1869
    -0.1717   0.1757   0.1937   0.2736   0.4741   1.1777   1.2651   1.4562
     2.4822   4.2648   5.4019   5.4021   6.5853   6.7086   7.2100   7.3608
     7.4311   7.7652   7.9705   8.2645

          k =-0.5000-0.1073-0.1965 (  8554 PWs)   bands (ev):

   -19.8794 -19.8751 -18.6574 -18.6080 -15.1847 -14.8887 -14.5515 -12.9505
   -12.5567 -12.5512 -11.8899 -11.5540 -10.6546 -10.0316  -9.7714  -8.8270
    -8.5114  -7.8374  -7.5831  -7.5205  -6.9041  -6.4545  -6.1617  -6.1278
    -5.3583  -5.3143  -5.2826  -4.8700  -4.7173  -4.5198  -4.0043  -3.9174
    -3.7336  -3.6753  -3.5868  -3.5480  -3.1619  -2.8378  -2.6065  -2.6011
    -2.5489  -2.5147  -2.3946  -1.9055  -1.6149  -1.4155  -0.5622  -0.2147
    -0.0764   0.1572   0.2123   0.2461   0.4552   1.1927   1.2580   1.4729
     2.4700   4.2796   5.3574   5.3961   6.5602   6.7857   7.1702   7.4278
     7.4736   7.6686   8.1152   8.2886

          k =-0.5000-0.4013-0.1241 (  8560 PWs)   bands (ev):

   -19.8864 -19.8831 -18.6408 -18.5927 -15.1865 -14.8973 -14.5603 -12.9505
   -12.6093 -12.5751 -11.8770 -11.5419 -10.6487 -10.0763  -9.7924  -8.9035
    -8.5109  -7.5353  -7.4868  -7.2474  -7.0006  -6.2781  -6.1915  -6.0454
    -5.4673  -5.3877  -5.2915  -4.9476  -4.8579  -4.6771  -4.5343  -4.3693
    -4.0154  -3.7109  -3.3672  -3.3467  -3.1164  -3.0310  -2.6211  -2.5820
    -2.0241  -1.9936  -1.9724  -1.6682  -1.6100  -1.4094  -0.7129  -0.2487
    -0.1553  -0.0057   0.1990   0.2501   0.5193   1.0097   1.0730   1.4044
     2.5220   4.0819   5.1877   5.4165   6.4163   6.7091   7.3113   7.3697
     7.5114   7.5334   7.5951   7.7127

          k =-0.5000-0.4013-0.2586 (  8552 PWs)   bands (ev):

   -19.8863 -19.8830 -18.6407 -18.5927 -15.1938 -14.8748 -14.5794 -12.9324
   -12.6067 -12.5875 -11.8745 -11.5813 -10.5216 -10.1152  -9.9024  -8.8736
    -8.4585  -7.5282  -7.4995  -7.2253  -7.0134  -6.3244  -6.2543  -6.0809
    -5.3981  -5.3075  -5.1419  -5.1141  -4.9350  -4.6679  -4.4518  -4.3284
    -3.9411  -3.8383  -3.3579  -3.3448  -3.2018  -3.1223  -2.6325  -2.2037
    -2.1996  -2.0105  -1.9986  -1.8179  -1.4462  -1.3594  -0.8207  -0.2491
    -0.1032  -0.0122   0.2219   0.2292   0.5013   1.0139   1.0813   1.4127
     2.5046   4.0782   5.1993   5.4343   6.4448   6.6953   7.2663   7.3234
     7.4997   7.5146   7.6386   7.7959

     the Fermi energy is     3.4261 ev

!    total energy              =    -521.94383622 Ry
     total all-electron energy =     -2057.517106 Ry
     estimated scf accuracy    <       0.00000032 Ry
     smearing contrib. (-TS)   =      -0.00000000 Ry
     internal energy E=F+TS    =    -521.94383622 Ry

     The total energy is F=E-TS. E is the sum of the following terms:
     one-electron contribution =    -367.39207933 Ry
     hartree contribution      =     228.96640411 Ry
     xc contribution           =    -128.50751220 Ry
     ewald contribution        =     -96.23909229 Ry
     DFT-D3 Dispersion         =      -0.22231285 Ry
     one-center paw contrib.   =    -158.54924366 Ry

     convergence has been achieved in  11 iterations

     Forces acting on atoms (cartesian axes, Ry/au):

     atom    1 type  1   force =    -0.08970074   -0.33834151   -0.00657766
     atom    2 type  1   force =     0.08970155    0.33834162    0.00657504
     atom    3 type  1   force =    -0.02185955    0.24677317    0.25879197
     atom    4 type  1   force =     0.02185916   -0.24677256   -0.25879299
     atom    5 type  1   force =     0.10184236    0.30518185   -0.07347082
     atom    6 type  1   force =    -0.10184119   -0.30517845    0.07347122
     atom    7 type  1   force =    -0.17961516   -0.05856926    0.43458778
     atom    8 type  1   force =     0.17961498    0.05856677   -0.43458918
     atom    9 type  1   force =     0.09735524   -0.40002426   -0.46760603
     atom   10 type  1   force =    -0.09735489    0.40002397    0.46760372
     atom   11 type  1   force =    -0.07513359    0.19733005    0.31258102
     atom   12 type  1   force =     0.07513185   -0.19732839   -0.31257533
     atom   13 type  1   force =     0.02431206   -0.07152148   -0.14542171
     atom   14 type  1   force =    -0.02431338    0.07152018    0.14542240
     atom   15 type  1   force =    -0.03867350   -0.26090757   -0.05575391
     atom   16 type  1   force =     0.03866655    0.26088422    0.05575671
     atom   17 type  1   force =    -0.03109637   -0.02532028    0.07689054
     atom   18 type  1   force =     0.03109550    0.02531846   -0.07688923
     atom   19 type  1   force =     0.07241546    0.23444631   -0.02197723
     atom   20 type  1   force =    -0.07241344   -0.23444481    0.02197344
     atom   21 type  2   force =    -0.01119023   -0.10081951   -0.02966117
     atom   22 type  2   force =     0.01119002    0.10081878    0.02966136
     atom   23 type  2   force =    -0.02074901   -0.00934773    0.00065092
     atom   24 type  2   force =     0.02074874    0.00934740   -0.00065032
     atom   25 type  2   force =     0.01366038    0.00814988   -0.03570032
     atom   26 type  2   force =    -0.01366099   -0.00815078    0.03570116
     atom   27 type  2   force =    -0.00345650    0.08442076    0.01511790
     atom   28 type  2   force =     0.00345612   -0.08442138   -0.01511781
     atom   29 type  2   force =     0.02401095    0.13781647    0.00065804
     atom   30 type  2   force =    -0.02401086   -0.13781674   -0.00065784
     atom   31 type  2   force =     0.03642327    0.11369082   -0.00804963
     atom   32 type  2   force =    -0.03642353   -0.11369198    0.00805038
     atom   33 type  3   force =    -0.09309821   -0.52445420   -0.12495780
     atom   34 type  3   force =     0.09309572    0.52444960    0.12495744
     atom   35 type  4   force =     0.07793751    0.28355324   -0.00816678
     atom   36 type  4   force =    -0.07792627   -0.28352265    0.00816472
     The non-local contrib.  to forces
     atom    1 type  1   force =    -0.10870159   -0.29533728    0.06356419
     atom    2 type  1   force =     0.10870352    0.29533862   -0.06356831
     atom    3 type  1   force =     0.01691605    0.26951348    0.17047752
     atom    4 type  1   force =    -0.01691486   -0.26951227   -0.17048002
     atom    5 type  1   force =     0.08683671    0.23906069   -0.12345278
     atom    6 type  1   force =    -0.08683487   -0.23905755    0.12345194
     atom    7 type  1   force =    -0.18850462   -0.10640927    0.38540536
     atom    8 type  1   force =     0.18850428    0.10640778   -0.38540659
     atom    9 type  1   force =     0.14188433   -0.33782709   -0.48431477
     atom   10 type  1   force =    -0.14188244    0.33782807    0.48431263
     atom   11 type  1   force =    -0.00701275   -0.00977312   -0.09598730
     atom   12 type  1   force =     0.00701131    0.00977416    0.09598953
     atom   13 type  1   force =     0.01197499   -0.11185384   -0.17780229
     atom   14 type  1   force =    -0.01197567    0.11185388    0.17780373
     atom   15 type  1   force =     0.03829630   -0.03419893   -0.12661694
     atom   16 type  1   force =    -0.03830282    0.03418698    0.12662147
     atom   17 type  1   force =    -0.02480130   -0.05094453    0.05370908
     atom   18 type  1   force =     0.02480081    0.05094335   -0.05370965
     atom   19 type  1   force =    -0.11636406    0.10367862    0.31634155
     atom   20 type  1   force =     0.11636522   -0.10367599   -0.31634133
     atom   21 type  2   force =    -0.00985614   -0.05403507   -0.00770443
     atom   22 type  2   force =     0.00985617    0.05403512    0.00770443
     atom   23 type  2   force =     0.00592971   -0.04902812   -0.06382275
     atom   24 type  2   force =    -0.00592970    0.04902807    0.06382275
     atom   25 type  2   force =     0.02822195    0.02776423   -0.05281228
     atom   26 type  2   force =    -0.02822193   -0.02776421    0.05281227
     atom   27 type  2   force =     0.00781774    0.05888242    0.00509562
     atom   28 type  2   force =    -0.00781776   -0.05888236   -0.00509560
     atom   29 type  2   force =     0.01116619    0.04140736    0.00003239
     atom   30 type  2   force =    -0.01116621   -0.04140756   -0.00003239
     atom   31 type  2   force =     0.01283521    0.04531557   -0.00164919
     atom   32 type  2   force =    -0.01283515   -0.04531546    0.00164929
     atom   33 type  3   force =     0.11211359   -0.07286569    0.01347740
     atom   34 type  3   force =    -0.11211748    0.07285893   -0.01347689
     atom   35 type  4   force =    -0.53434403   -2.25552775    0.07773730
     atom   36 type  4   force =     0.53434255    2.25552387   -0.07775406
     The ionic contribution  to forces
     atom    1 type  1   force =    -1.06374428   -5.88912016    0.45344411
     atom    2 type  1   force =     1.06375746    5.88911759   -0.45346311
     atom    3 type  1   force =     0.24854104    6.08668395    6.85313124
     atom    4 type  1   force =    -0.24853975   -6.08668063   -6.85312456
     atom    5 type  1   force =    -0.35062917    3.55167217    7.64808492
     atom    6 type  1   force =     0.35063126   -3.55166672   -7.64808064
     atom    7 type  1   force =    -2.31699757   -3.11882578    8.96956303
     atom    8 type  1   force =     2.31699816    3.11881854   -8.96956349
     atom    9 type  1   force =    -1.15889121   -6.65484149    4.62005769
     atom   10 type  1   force =     1.15889257    6.65483649   -4.62006567
     atom   11 type  1   force =    -0.75068372   -1.98529867    7.59171528
     atom   12 type  1   force =     0.75066774    1.98528359   -7.59169007
     atom   13 type  1   force =     0.65911427    1.72676585    4.40624587
     atom   14 type  1   force =    -0.65911970   -1.72676487   -4.40623474
     atom   15 type  1   force =    -0.89660805   -1.56802377    2.44434155
     atom   16 type  1   force =     0.89657083    1.56792866   -2.44436211
     atom   17 type  1   force =    -0.08452656    2.53866523    1.62318797
     atom   18 type  1   force =     0.08451896   -2.53868122   -1.62319463
     atom   19 type  1   force =     0.30093576   -2.15472975    0.22107295
     atom   20 type  1   force =    -0.30093136    2.15471263   -0.22109235
     atom   21 type  2   force =     0.22622932    2.15655573    1.64241496
     atom   22 type  2   force =    -0.22622980   -2.15655459   -1.64241462
     atom   23 type  2   force =    -0.40575873    1.40544870    1.88342303
     atom   24 type  2   force =     0.40575875   -1.40544678   -1.88342097
     atom   25 type  2   force =    -0.92796644   -1.23583496    2.36185977
     atom   26 type  2   force =     0.92796547    1.23583343   -2.36185825
     atom   27 type  2   force =    -0.31208995   -2.12073403    1.46996485
     atom   28 type  2   force =     0.31209029    2.12073212   -1.46996706
     atom   29 type  2   force =    -0.14223998   -1.63983652    0.89388205
     atom   30 type  2   force =     0.14223594    1.63983518   -0.89388277
     atom   31 type  2   force =    -0.45499975   -1.81584249    0.22380159
     atom   32 type  2   force =     0.45499868    1.81584125   -0.22380032
     atom   33 type  3   force =    -1.60221450   -7.40782272    3.61493131
     atom   34 type  3   force =     1.60221017    7.40780312   -3.61493082
     atom   35 type  4   force =     2.47614083   11.97253503    3.93240442
     atom   36 type  4   force =    -2.47608700  -11.97236409   -3.93238040
     The local contribution  to forces
     atom    1 type  1   force =     1.08016001    5.83734478   -0.52222973
     atom    2 type  1   force =    -1.08017335   -5.83734322    0.52224687
     atom    3 type  1   force =    -0.28786743   -6.10284875   -6.75911853
     atom    4 type  1   force =     0.28786481    6.10284388    6.75910977
     atom    5 type  1   force =     0.36812656   -3.47941198   -7.59995954
     atom    6 type  1   force =    -0.36812821    3.47940860    7.59995358
     atom    7 type  1   force =     2.32126222    3.16539062   -8.90939554
     atom    8 type  1   force =    -2.32126163   -3.16538554    8.90939112
     atom    9 type  1   force =     1.11816510    6.58380411   -4.61631289
     atom   10 type  1   force =    -1.11816687   -6.58379971    4.61631773
     atom   11 type  1   force =     0.68153678    2.19576286   -7.17772840
     atom   12 type  1   force =    -0.68152114   -2.19574591    7.17770915
     atom   13 type  1   force =    -0.64566829   -1.69110581   -4.37982986
     atom   14 type  1   force =     0.64567281    1.69110380    4.37981940
     atom   15 type  1   force =     0.81705572    1.32868404   -2.37588500
     atom   16 type  1   force =    -0.81701956   -1.32860117    2.37590643
     atom   17 type  1   force =     0.07563812   -2.51549124   -1.59546921
     atom   18 type  1   force =    -0.07562966    2.51550947    1.59547607
     atom   19 type  1   force =    -0.11304257    2.28931702   -0.55443726
     atom   20 type  1   force =     0.11303838   -2.28929998    0.55445419
     atom   21 type  2   force =    -0.22790206   -2.20481884   -1.66446818
     atom   22 type  2   force =     0.22790250    2.20481717    1.66446767
     atom   23 type  2   force =     0.37920505   -1.36591110   -1.81917393
     atom   24 type  2   force =    -0.37920505    1.36590983    1.81917248
     atom   25 type  2   force =     0.91380661    1.21625993   -2.34511863
     atom   26 type  2   force =    -0.91380627   -1.21625927    2.34511792
     atom   27 type  2   force =     0.30103453    2.14725193   -1.45962273
     atom   28 type  2   force =    -0.30103487   -2.14724942    1.45962486
     atom   29 type  2   force =     0.15618782    1.74027009   -0.89322526
     atom   30 type  2   force =    -0.15618327   -1.74026779    0.89322644
     atom   31 type  2   force =     0.47940876    1.88665167   -0.23029456
     atom   32 type  2   force =    -0.47940775   -1.88665171    0.23029359
     atom   33 type  3   force =     1.39783937    6.94848163   -3.75544617
     atom   34 type  3   force =    -1.39783495   -6.94845915    3.75545068
     atom   35 type  4   force =    -1.86683566   -9.44691692   -4.01770489
     atom   36 type  4   force =     1.86679357    9.44677476    4.01769396
     The core correction contribution to forces
     atom    1 type  1   force =     0.00282993    0.00945521   -0.00098176
     atom    2 type  1   force =    -0.00283001   -0.00945526    0.00098191
     atom    3 type  1   force =     0.00001186   -0.00871802   -0.00590796
     atom    4 type  1   force =    -0.00001191    0.00871800    0.00590800
     atom    5 type  1   force =    -0.00221823   -0.00844692    0.00002283
     atom    6 type  1   force =     0.00221819    0.00844686   -0.00002281
     atom    7 type  1   force =     0.00620574    0.00250605   -0.01248096
     atom    8 type  1   force =    -0.00620572   -0.00250602    0.01248097
     atom    9 type  1   force =    -0.00280582    0.01107644    0.01415478
     atom   10 type  1   force =     0.00280579   -0.01107648   -0.01415473
     atom   11 type  1   force =     0.00171425   -0.00125040   -0.00504140
     atom   12 type  1   force =    -0.00171418    0.00125037    0.00504129
     atom   13 type  1   force =    -0.00179067    0.00303132    0.00614980
     atom   14 type  1   force =     0.00179066   -0.00303136   -0.00614980
     atom   15 type  1   force =     0.00198970    0.01176783    0.00299175
     atom   16 type  1   force =    -0.00198944   -0.01176726   -0.00299181
     atom   17 type  1   force =     0.00192631   -0.00002764   -0.00460953
     atom   18 type  1   force =    -0.00192627    0.00002771    0.00460952
     atom   19 type  1   force =     0.00148087   -0.00242972   -0.00469938
     atom   20 type  1   force =    -0.00148092    0.00242966    0.00469940
     atom   21 type  2   force =     0.00000000    0.00000000    0.00000000
     atom   22 type  2   force =     0.00000000    0.00000000    0.00000000
     atom   23 type  2   force =     0.00000000    0.00000000    0.00000000
     atom   24 type  2   force =     0.00000000    0.00000000    0.00000000
     atom   25 type  2   force =     0.00000000    0.00000000    0.00000000
     atom   26 type  2   force =     0.00000000    0.00000000    0.00000000
     atom   27 type  2   force =     0.00000000    0.00000000    0.00000000
     atom   28 type  2   force =     0.00000000    0.00000000    0.00000000
     atom   29 type  2   force =     0.00000000    0.00000000    0.00000000
     atom   30 type  2   force =     0.00000000    0.00000000    0.00000000
     atom   31 type  2   force =     0.00000000    0.00000000    0.00000000
     atom   32 type  2   force =     0.00000000    0.00000000    0.00000000
     atom   33 type  3   force =    -0.00097572    0.00547361    0.00194455
     atom   34 type  3   force =     0.00097580   -0.00547346   -0.00194454
     atom   35 type  4   force =     0.00285062    0.01306573   -0.00042503
     atom   36 type  4   force =    -0.00285071   -0.01306598    0.00042518
     The Hubbard contrib.    to forces
     atom    1 type  1   force =     0.00000000    0.00000000    0.00000000
     atom    2 type  1   force =     0.00000000    0.00000000    0.00000000
     atom    3 type  1   force =     0.00000000    0.00000000    0.00000000
     atom    4 type  1   force =     0.00000000    0.00000000    0.00000000
     atom    5 type  1   force =     0.00000000    0.00000000    0.00000000
     atom    6 type  1   force =     0.00000000    0.00000000    0.00000000
     atom    7 type  1   force =     0.00000000    0.00000000    0.00000000
     atom    8 type  1   force =     0.00000000    0.00000000    0.00000000
     atom    9 type  1   force =     0.00000000    0.00000000    0.00000000
     atom   10 type  1   force =     0.00000000    0.00000000    0.00000000
     atom   11 type  1   force =     0.00000000    0.00000000    0.00000000
     atom   12 type  1   force =     0.00000000    0.00000000    0.00000000
     atom   13 type  1   force =     0.00000000    0.00000000    0.00000000
     atom   14 type  1   force =     0.00000000    0.00000000    0.00000000
     atom   15 type  1   force =     0.00000000    0.00000000    0.00000000
     atom   16 type  1   force =     0.00000000    0.00000000    0.00000000
     atom   17 type  1   force =     0.00000000    0.00000000    0.00000000
     atom   18 type  1   force =     0.00000000    0.00000000    0.00000000
     atom   19 type  1   force =     0.00000000    0.00000000    0.00000000
     atom   20 type  1   force =     0.00000000    0.00000000    0.00000000
     atom   21 type  2   force =     0.00000000    0.00000000    0.00000000
     atom   22 type  2   force =     0.00000000    0.00000000    0.00000000
     atom   23 type  2   force =     0.00000000    0.00000000    0.00000000
     atom   24 type  2   force =     0.00000000    0.00000000    0.00000000
     atom   25 type  2   force =     0.00000000    0.00000000    0.00000000
     atom   26 type  2   force =     0.00000000    0.00000000    0.00000000
     atom   27 type  2   force =     0.00000000    0.00000000    0.00000000
     atom   28 type  2   force =     0.00000000    0.00000000    0.00000000
     atom   29 type  2   force =     0.00000000    0.00000000    0.00000000
     atom   30 type  2   force =     0.00000000    0.00000000    0.00000000
     atom   31 type  2   force =     0.00000000    0.00000000    0.00000000
     atom   32 type  2   force =     0.00000000    0.00000000    0.00000000
     atom   33 type  3   force =     0.00000000    0.00000000    0.00000000
     atom   34 type  3   force =     0.00000000    0.00000000    0.00000000
     atom   35 type  4   force =     0.00000000    0.00000000    0.00000000
     atom   36 type  4   force =     0.00000000    0.00000000    0.00000000
     The SCF correction term to forces
     atom    1 type  1   force =     0.00002589   -0.00019923   -0.00014108
     atom    2 type  1   force =    -0.00002652    0.00019965    0.00014416
     atom    3 type  1   force =    -0.00002653    0.00024375    0.00017196
     atom    4 type  1   force =     0.00002658   -0.00024225   -0.00016857
     atom    5 type  1   force =     0.00005916    0.00028272    0.00010427
     atom    6 type  1   force =    -0.00005998   -0.00028395   -0.00010153
     atom    7 type  1   force =    -0.00000478   -0.00008817    0.00003249
     atom    8 type  1   force =     0.00000401    0.00008984   -0.00002794
     atom    9 type  1   force =     0.00005796   -0.00025140   -0.00021159
     atom   10 type  1   force =    -0.00005878    0.00025132    0.00021438
     atom   11 type  1   force =    -0.00007330   -0.00027176    0.00003922
     atom   12 type  1   force =     0.00007354    0.00027107   -0.00004177
     atom   13 type  1   force =    -0.00001357    0.00007463   -0.00003839
     atom   14 type  1   force =     0.00001411   -0.00007438    0.00003681
     atom   15 type  1   force =    -0.00000596    0.00003922   -0.00017368
     atom   16 type  1   force =     0.00000658   -0.00003842    0.00017100
     atom   17 type  1   force =    -0.00000832    0.00022634   -0.00001559
     atom   18 type  1   force =     0.00000728   -0.00022879    0.00001715
     atom   19 type  1   force =    -0.00002742   -0.00002092    0.00000209
     atom   20 type  1   force =     0.00002835    0.00002047   -0.00000376
     atom   21 type  2   force =    -0.00000313    0.00001231    0.00001747
     atom   22 type  2   force =     0.00000320   -0.00001201   -0.00001724
     atom   23 type  2   force =     0.00000587    0.00001931    0.00000391
     atom   24 type  2   force =    -0.00000591   -0.00001970   -0.00000407
     atom   25 type  2   force =    -0.00002117   -0.00003278    0.00005337
     atom   26 type  2   force =     0.00002142    0.00003327   -0.00005346
     atom   27 type  2   force =     0.00000772   -0.00000545   -0.00000514
     atom   28 type  2   force =    -0.00000783    0.00000470    0.00000517
     atom   29 type  2   force =     0.00000379    0.00000387    0.00001289
     atom   30 type  2   force =    -0.00000388   -0.00000420   -0.00001330
     atom   31 type  2   force =    -0.00000440   -0.00003124   -0.00001455
     atom   32 type  2   force =     0.00000440    0.00003177    0.00001476
     atom   33 type  3   force =    -0.00010572   -0.00012371    0.00022296
     atom   34 type  3   force =     0.00010719    0.00012327   -0.00022898
     atom   35 type  4   force =    -0.00010558   -0.00018013   -0.00005142
     atom   36 type  4   force =     0.00010691    0.00018659    0.00005273

     DFT-D3 dispersion contribution to forces:
     atom    1 type  1   force =    -0.00027057   -0.00048456   -0.00023346
     atom    2 type  1   force =     0.00027057    0.00048452    0.00023345
     atom    3 type  1   force =     0.00056559    0.00189902    0.00003768
     atom    4 type  1   force =    -0.00056559   -0.00189902   -0.00003769
     atom    5 type  1   force =    -0.00033254    0.00202544    0.00172941
     atom    6 type  1   force =     0.00033254   -0.00202543   -0.00172940
     atom    7 type  1   force =    -0.00157601   -0.00114243    0.00146332
     atom    8 type  1   force =     0.00157601    0.00114243   -0.00146332
     atom    9 type  1   force =    -0.00105498   -0.00198457   -0.00097932
     atom   10 type  1   force =     0.00105498    0.00198455    0.00097932
     atom   11 type  1   force =    -0.00061473   -0.00183860   -0.00041645
     atom   12 type  1   force =     0.00061472    0.00183860    0.00041646
     atom   13 type  1   force =     0.00069546    0.00156664   -0.00014692
     atom   14 type  1   force =    -0.00069547   -0.00156663    0.00014693
     atom   15 type  1   force =     0.00059892    0.00082431   -0.00041165
     atom   16 type  1   force =    -0.00059892   -0.00082430    0.00041166
     atom   17 type  1   force =     0.00067550    0.00225182    0.00008776
     atom   18 type  1   force =    -0.00067549   -0.00225178   -0.00008776
     atom   19 type  1   force =    -0.00056700   -0.00136867   -0.00025725
     atom   20 type  1   force =     0.00056702    0.00136867    0.00025722
     atom   21 type  2   force =     0.00034191    0.00146663    0.00007895
     atom   22 type  2   force =    -0.00034191   -0.00146663   -0.00007895
     atom   23 type  2   force =    -0.00013078    0.00012375    0.00022058
[...]
     atom   30 type  2   force =     0.56928138    2.55316933   -0.79989275
     atom   31 type  2   force =    -0.53128183   -2.32527759    0.21823939
     atom   32 type  2   force =     0.53134175    2.32553289   -0.21822182
     atom   33 type  3   force =    -0.29805182   -5.74997590    4.40026769
     atom   34 type  3   force =     0.29775453    5.74936850   -4.39986864
     atom   35 type  4   force =     2.07451310    9.70503284    4.26929771
     atom   36 type  4   force =    -2.07472532   -9.70576179   -4.26931161
     The local contribution  to forces
     atom    1 type  1   force =     0.87976743    4.71543071   -0.53624062
     atom    2 type  1   force =    -0.87962035   -4.71525213    0.53606650
     atom    3 type  1   force =    -0.44876940   -5.07657171   -5.95581768
     atom    4 type  1   force =     0.44943305    5.07652884    5.95444319
     atom    5 type  1   force =     0.99131752   -2.50197046   -7.34662589
     atom    6 type  1   force =    -0.99158294    2.50221714    7.34742863
     atom    7 type  1   force =     1.56027842    2.59567444   -7.92413724
     atom    8 type  1   force =    -1.56027772   -2.59671709    7.92352930
     atom    9 type  1   force =     0.83064479    5.21402035   -6.36586826
     atom   10 type  1   force =    -0.83107013   -5.21379329    6.36697538
     atom   11 type  1   force =     0.35558794    1.57357109   -5.71645646
     atom   12 type  1   force =    -0.35538531   -1.57369717    5.71595010
     atom   13 type  1   force =    -0.11774310   -1.45325722   -4.76390508
     atom   14 type  1   force =     0.11757491    1.45405487    4.76452690
     atom   15 type  1   force =     0.57766091    0.56847452   -2.67252990
     atom   16 type  1   force =    -0.57783194   -0.56901771    2.67256917
     atom   17 type  1   force =    -0.22324972   -1.43611784   -1.08752271
     atom   18 type  1   force =     0.22309205    1.43627433    1.08793071
     atom   19 type  1   force =    -0.20016933    1.48973265   -0.83573241
     atom   20 type  1   force =     0.19989225   -1.48994424    0.83631367
     atom   21 type  2   force =    -0.30267530   -2.39229500   -1.56246475
     atom   22 type  2   force =     0.30276001    2.39239007    1.56230736
     atom   23 type  2   force =     0.46223221   -1.35950240   -1.92501204
     atom   24 type  2   force =    -0.46215869    1.35933921    1.92476181
     atom   25 type  2   force =     0.97168540    1.14044695   -2.31240379
     atom   26 type  2   force =    -0.97170143   -1.14060148    2.31237820
     atom   27 type  2   force =     0.44403279    2.21541512   -1.60911298
     atom   28 type  2   force =    -0.44409409   -2.21542924    1.60923072
     atom   29 type  2   force =     0.53682129    2.46104240   -0.80160265
     atom   30 type  2   force =    -0.53690441   -2.46129676    0.80154544
     atom   31 type  2   force =     0.51365266    2.24848957   -0.21633929
     atom   32 type  2   force =    -0.51368666   -2.24864772    0.21631427
     atom   33 type  3   force =     0.33598341    5.45207463   -4.35298300
     atom   34 type  3   force =    -0.33574705   -5.45161998    4.35262334
     atom   35 type  4   force =    -1.49505675   -7.52287813   -4.25503285
     atom   36 type  4   force =     1.49517255    7.52339555    4.25508994
     The core correction contribution to forces
     atom    1 type  1   force =     0.00029548    0.00009644   -0.00044653
     atom    2 type  1   force =    -0.00029376   -0.00009267    0.00044412
     atom    3 type  1   force =    -0.00080262   -0.00098963    0.00154028
     atom    4 type  1   force =     0.00080708    0.00098537   -0.00155095
     atom    5 type  1   force =     0.00075870    0.00045359   -0.00175963
     atom    6 type  1   force =    -0.00076216   -0.00044771    0.00176913
     atom    7 type  1   force =     0.00057674   -0.00005323   -0.00189826
     atom    8 type  1   force =    -0.00057534    0.00004511    0.00189153
     atom    9 type  1   force =    -0.00056308    0.00114398    0.00156588
     atom   10 type  1   force =     0.00055987   -0.00114026   -0.00155759
     atom   11 type  1   force =    -0.00167561    0.00315268    0.00492935
     atom   12 type  1   force =     0.00167644   -0.00315530   -0.00493297
     atom   13 type  1   force =    -0.00032636    0.00110020    0.00106867
     atom   14 type  1   force =     0.00032484   -0.00109369   -0.00106212
     atom   15 type  1   force =     0.00033960    0.00268635    0.00047670
     atom   16 type  1   force =    -0.00034060   -0.00269132   -0.00047778
     atom   17 type  1   force =     0.00066608    0.00120999   -0.00139001
     atom   18 type  1   force =    -0.00066659   -0.00120923    0.00139192
     atom   19 type  1   force =     0.00211466    0.00134640   -0.00593247
     atom   20 type  1   force =    -0.00211673   -0.00134968    0.00593599
     atom   21 type  2   force =     0.00000000    0.00000000    0.00000000
     atom   22 type  2   force =     0.00000000    0.00000000    0.00000000
     atom   23 type  2   force =     0.00000000    0.00000000    0.00000000
     atom   24 type  2   force =     0.00000000    0.00000000    0.00000000
     atom   25 type  2   force =     0.00000000    0.00000000    0.00000000
     atom   26 type  2   force =     0.00000000    0.00000000    0.00000000
     atom   27 type  2   force =     0.00000000    0.00000000    0.00000000
     atom   28 type  2   force =     0.00000000    0.00000000    0.00000000
     atom   29 type  2   force =     0.00000000    0.00000000    0.00000000
     atom   30 type  2   force =     0.00000000    0.00000000    0.00000000
     atom   31 type  2   force =     0.00000000    0.00000000    0.00000000
     atom   32 type  2   force =     0.00000000    0.00000000    0.00000000
     atom   33 type  3   force =     0.00002660   -0.00522553    0.00077593
     atom   34 type  3   force =    -0.00002546    0.00522831   -0.00077695
     atom   35 type  4   force =     0.00430542    0.01623177    0.00017320
     atom   36 type  4   force =    -0.00430572   -0.01623140   -0.00017266
     The Hubbard contrib.    to forces
     atom    1 type  1   force =     0.00000000    0.00000000    0.00000000
     atom    2 type  1   force =     0.00000000    0.00000000    0.00000000
     atom    3 type  1   force =     0.00000000    0.00000000    0.00000000
     atom    4 type  1   force =     0.00000000    0.00000000    0.00000000
     atom    5 type  1   force =     0.00000000    0.00000000    0.00000000
     atom    6 type  1   force =     0.00000000    0.00000000    0.00000000
     atom    7 type  1   force =     0.00000000    0.00000000    0.00000000
     atom    8 type  1   force =     0.00000000    0.00000000    0.00000000
     atom    9 type  1   force =     0.00000000    0.00000000    0.00000000
     atom   10 type  1   force =     0.00000000    0.00000000    0.00000000
     atom   11 type  1   force =     0.00000000    0.00000000    0.00000000
     atom   12 type  1   force =     0.00000000    0.00000000    0.00000000
     atom   13 type  1   force =     0.00000000    0.00000000    0.00000000
     atom   14 type  1   force =     0.00000000    0.00000000    0.00000000
     atom   15 type  1   force =     0.00000000    0.00000000    0.00000000
     atom   16 type  1   force =     0.00000000    0.00000000    0.00000000
     atom   17 type  1   force =     0.00000000    0.00000000    0.00000000
     atom   18 type  1   force =     0.00000000    0.00000000    0.00000000
     atom   19 type  1   force =     0.00000000    0.00000000    0.00000000
     atom   20 type  1   force =     0.00000000    0.00000000    0.00000000
     atom   21 type  2   force =     0.00000000    0.00000000    0.00000000
     atom   22 type  2   force =     0.00000000    0.00000000    0.00000000
     atom   23 type  2   force =     0.00000000    0.00000000    0.00000000
     atom   24 type  2   force =     0.00000000    0.00000000    0.00000000
     atom   25 type  2   force =     0.00000000    0.00000000    0.00000000
     atom   26 type  2   force =     0.00000000    0.00000000    0.00000000
     atom   27 type  2   force =     0.00000000    0.00000000    0.00000000
     atom   28 type  2   force =     0.00000000    0.00000000    0.00000000
     atom   29 type  2   force =     0.00000000    0.00000000    0.00000000
     atom   30 type  2   force =     0.00000000    0.00000000    0.00000000
     atom   31 type  2   force =     0.00000000    0.00000000    0.00000000
     atom   32 type  2   force =     0.00000000    0.00000000    0.00000000
     atom   33 type  3   force =     0.00000000    0.00000000    0.00000000
     atom   34 type  3   force =     0.00000000    0.00000000    0.00000000
     atom   35 type  4   force =     0.00000000    0.00000000    0.00000000
     atom   36 type  4   force =     0.00000000    0.00000000    0.00000000
     The SCF correction term to forces
     atom    1 type  1   force =    -0.00000280    0.00000485    0.00000181
     atom    2 type  1   force =     0.00000312   -0.00000500   -0.00000304
     atom    3 type  1   force =     0.00000309    0.00000109    0.00000470
     atom    4 type  1   force =    -0.00000259   -0.00000081   -0.00000654
     atom    5 type  1   force =     0.00000521   -0.00000007    0.00000595
     atom    6 type  1   force =    -0.00000511    0.00000203   -0.00000594
     atom    7 type  1   force =     0.00000541   -0.00000750    0.00000324
     atom    8 type  1   force =    -0.00000548    0.00000767   -0.00000357
     atom    9 type  1   force =     0.00000268   -0.00000306   -0.00000093
     atom   10 type  1   force =    -0.00000257    0.00000269   -0.00000043
     atom   11 type  1   force =     0.00000287   -0.00000988    0.00000220
     atom   12 type  1   force =    -0.00000317    0.00001019   -0.00000141
     atom   13 type  1   force =     0.00000521   -0.00000194    0.00000519
     atom   14 type  1   force =    -0.00000563    0.00000396   -0.00000381
     atom   15 type  1   force =     0.00000611   -0.00000304    0.00000391
     atom   16 type  1   force =    -0.00000601    0.00000428   -0.00000283
     atom   17 type  1   force =     0.00001110    0.00000210   -0.00001270
     atom   18 type  1   force =    -0.00001107   -0.00000048    0.00001380
     atom   19 type  1   force =    -0.00000237   -0.00001372   -0.00000588
     atom   20 type  1   force =     0.00000265    0.00001242    0.00000415
     atom   21 type  2   force =    -0.00000007    0.00000164    0.00000131
     atom   22 type  2   force =     0.00000009   -0.00000176   -0.00000157
     atom   23 type  2   force =     0.00000019    0.00000122    0.00000184
     atom   24 type  2   force =    -0.00000015   -0.00000107   -0.00000204
     atom   25 type  2   force =    -0.00000040   -0.00000168    0.00000166
     atom   26 type  2   force =     0.00000027    0.00000148   -0.00000146
     atom   27 type  2   force =     0.00000003    0.00000068    0.00000052
     atom   28 type  2   force =    -0.00000009   -0.00000116   -0.00000074
     atom   29 type  2   force =    -0.00000009    0.00000059    0.00000002
     atom   30 type  2   force =    -0.00000016   -0.00000134    0.00000013
     atom   31 type  2   force =     0.00000044    0.00000394    0.00000033
     atom   32 type  2   force =    -0.00000040   -0.00000371   -0.00000025
     atom   33 type  3   force =     0.00001691    0.00000430    0.00000107
     atom   34 type  3   force =    -0.00001750   -0.00000507    0.00000123
     atom   35 type  4   force =     0.00000282    0.00003761   -0.00000197
     atom   36 type  4   force =    -0.00000223   -0.00003765    0.00000313

     DFT-D3 dispersion contribution to forces:
     atom    1 type  1   force =    -0.00050041   -0.00078383    0.00016788
     atom    2 type  1   force =     0.00050030    0.00078358   -0.00016779
     atom    3 type  1   force =     0.00004729    0.00066574   -0.00009709
     atom    4 type  1   force =    -0.00004738   -0.00066575    0.00009727
     atom    5 type  1   force =    -0.00039295    0.00051134    0.00036591
     atom    6 type  1   force =     0.00039297   -0.00051133   -0.00036590
     atom    7 type  1   force =    -0.00072104    0.00000351    0.00022536
     atom    8 type  1   force =     0.00072103   -0.00000349   -0.00022535
     atom    9 type  1   force =    -0.00042598   -0.00045607   -0.00057787
     atom   10 type  1   force =     0.00042607    0.00045638    0.00057778
     atom   11 type  1   force =    -0.00032960   -0.00057803   -0.00027531
     atom   12 type  1   force =     0.00032946    0.00057773    0.00027551
     atom   13 type  1   force =     0.00021912    0.00032337   -0.00026980
     atom   14 type  1   force =    -0.00021921   -0.00032352    0.00026990
     atom   15 type  1   force =     0.00034033    0.00046032    0.00013755
     atom   16 type  1   force =    -0.00034017   -0.00046027   -0.00013786
     atom   17 type  1   force =     0.00024903    0.00042450    0.00034273
     atom   18 type  1   force =    -0.00024907   -0.00042416   -0.00034237
     atom   19 type  1   force =    -0.00027357   -0.00071322    0.00007344
     atom   20 type  1   force =     0.00027386    0.00071346   -0.00007407
     atom   21 type  2   force =     0.00004357    0.00013456   -0.00017144
     atom   22 type  2   force =    -0.00004355   -0.00013442    0.00017146
     atom   23 type  2   force =    -0.00007104    0.00005217    0.00013563
     atom   24 type  2   force =     0.00007111   -0.00005232   -0.00013585
     atom   25 type  2   force =    -0.00021686    0.00012827    0.00000347
     atom   26 type  2   force =     0.00021683   -0.00012829   -0.00000342
     atom   27 type  2   force =    -0.00010158   -0.00016850   -0.00025198
     atom   28 type  2   force =     0.00010158    0.00016847    0.00025197
     atom   29 type  2   force =    -0.00006233   -0.00003397   -0.00006419
     atom   30 type  2   force =     0.00006232    0.00003391    0.00006420
     atom   31 type  2   force =    -0.00012189   -0.00021697    0.00001640
     atom   32 type  2   force =     0.00012183    0.00021674   -0.00001639
     atom   33 type  3   force =    -0.00017166   -0.00015425   -0.00002319
     atom   34 type  3   force =     0.00017158    0.00015434    0.00002345
     atom   35 type  4   force =     0.00019994    0.00037289   -0.00001310
     atom   36 type  4   force =    -0.00019995   -0.00037290    0.00001309

     Total force =     0.003522     Total SCF correction =     0.000075
     Energy error            =      2.0E-05 Ry
     Gradient error          =      8.7E-04 Ry/Bohr

     bfgs converged in  38 scf cycles and  36 bfgs steps
     (criteria: energy <  1.0E-04 Ry, force <  1.0E-03 Ry/Bohr)

     End of BFGS Geometry Optimization

     Final energy             =    -522.7754025355 Ry

     File /scratch/calc/outdir/pwscf.bfgs deleted, as requested
Begin final coordinates

ATOMIC_POSITIONS (angstrom)
C             2.7462178406        1.8804602173        0.0537632393
C            -1.4427997992        1.6000054591       14.0769058405
C             1.6473386400        5.1074396156        4.5231235264
C            -0.3439096551       -1.6270591518        9.6074810349
C             1.0166793735        4.5418914808        5.6085714187
C             0.2866998433       -1.0614172213        8.5221983966
C             0.7283083707        3.1617583563        5.6072286731
C             0.5751064330        0.3186039025        8.5234069534
C             1.0558890962        2.3721062011        4.5220296248
C             0.2474913436        1.1083394764        9.6087157472
C             1.6830650573        2.9494420369        3.3970463002
C            -0.3796538565        0.5309574458       10.7336111790
C             2.0061337750        4.3339567829        3.4035967288
C            -0.7027388165       -0.8534782415       10.7271430592
C            -1.1134437476        4.9471653905        2.2717849269
C             2.4168423939       -1.4667690721       11.8588957958
C            -0.8824103210        4.0700941717        1.1172987735
C             2.1858132967       -0.5896713738       13.0134015506
C             2.5442389371        2.6932610599        1.1711080168
C            -1.2408562708        0.7871250154       12.9596072009
H            -0.5305300165       -0.2939579641        4.4944570483
H             1.8339362921        3.7743972944        9.6362371239
H             0.7531141893        5.1580755274        6.4653666827
H             0.5502970450       -1.6776767562        7.6652891850
H             0.2255124254        2.7132064248        6.4665761278
H             1.0778858428        0.7672176311        7.6641167598
H             0.8266085803        1.3059768128        4.5013994758
H             0.4767955963        2.1744453721        9.6292861509
H             1.6500002475        1.1969100404        2.2962733378
H            -0.3466009661        2.2834963091       11.8344143865
H             2.4830111189        0.8244826187        0.0863335239
H            -1.1796128012        2.6559171868       14.0443553524
N             1.9821337482        2.1748945506        2.3115530427
N            -0.6787083242        1.3055730370       11.8191180866
O             0.6216439125       -0.3093033432        2.2713992302
O             0.6817638534        3.7897476654       11.8592893992
End final coordinates



     Writing all to output data dir /scratch/calc/outdir/pwscf.save/
 
     init_run     :      0.55s CPU      0.64s WALL (       1 calls)
     electrons    :    176.47s CPU    197.89s WALL (      38 calls)
     update_pot   :      8.78s CPU      9.32s WALL (      37 calls)
     forces       :     19.03s CPU     27.09s WALL (      38 calls)
     force_dftd3  :     10.66s CPU     18.01s WALL (      38 calls)

     Called by init_run:
     wfcinit      :      0.23s CPU      0.28s WALL (       1 calls)
     potinit      :      0.09s CPU      0.11s WALL (       1 calls)
     hinit0       :      0.16s CPU      0.18s WALL (       1 calls)

     Called by electrons:
     c_bands      :    136.65s CPU    146.95s WALL (     314 calls)
     sum_band     :     21.62s CPU     23.97s WALL (     314 calls)
     v_of_rho     :      2.04s CPU      2.19s WALL (     348 calls)
     newd         :      4.15s CPU      4.52s WALL (     348 calls)
     PAW_pot      :      6.90s CPU      8.89s WALL (     385 calls)
     mix_rho      :      0.28s CPU      0.32s WALL (     314 calls)
     energy_dftd3 :      6.13s CPU     12.24s WALL (      38 calls)

     Called by c_bands:
     init_us_2    :      0.96s CPU      1.06s WALL (    5632 calls)
     init_us_2:cp :      0.95s CPU      1.04s WALL (    5632 calls)
     cegterg      :    133.75s CPU    143.72s WALL (    2512 calls)

     Called by *egterg:
     cdiaghg      :     39.42s CPU     39.75s WALL (    9766 calls)
     h_psi        :     78.99s CPU     87.65s WALL (   10102 calls)
     s_psi        :      2.99s CPU      3.06s WALL (   10102 calls)
     g_psi        :      0.15s CPU      0.16s WALL (    7582 calls)

     Called by h_psi:
     h_psi:calbec :      5.21s CPU      5.65s WALL (   10102 calls)
     vloc_psi     :     70.08s CPU     78.18s WALL (   10102 calls)
     add_vuspsi   :      3.40s CPU      3.50s WALL (   10102 calls)

     General routines
     calbec       :      8.07s CPU      8.82s WALL (   14126 calls)
     fft          :      2.33s CPU      3.38s WALL (    4907 calls)
     ffts         :      0.09s CPU      0.10s WALL (     662 calls)
     fftw         :     77.86s CPU     86.84s WALL ( 1038770 calls)
     interpolate  :      0.20s CPU      0.23s WALL (     348 calls)
 
     Parallel routines
 
     PWSCF        :   3m27.49s CPU   4m 0.85s WALL

 
   This run was terminated on:  22:16: 1   7Mar2024            

=------------------------------------------------------------------------------=
   JOB DONE.
=------------------------------------------------------------------------------=
