
     Program PWSCF v.7.3 starts on 14Apr2024 at  2:44:20 

     This program is part of the open-source Quantum ESPRESSO suite
     for quantum simulation of materials; please cite
         "P. Giannozzi et al., J. Phys.:Condens. Matter 21 395502 (2009);
         "P. Giannozzi et al., J. Phys.:Condens. Matter 29 465901 (2017);
         "P. Giannozzi et al., J. Chem. Phys. 152 154105 (2020);
          URL http://www.quantum-espresso.org", 
     in publications or presentations arising from this work. More details at
     http://www.quantum-espresso.org/quote

     Parallel version (MPI & OpenMP), running on      36 processor cores
     Number of MPI processes:                36
     Threads/MPI process:                     1

     MPI processes distributed on     1 nodes
     558684 MiB available memory on the printing compute node when the environment starts
 
     Waiting for input...
     Reading input from standard input
Warning: card &CELL ignored
Warning: card / ignored

     Current dimensions of program PWSCF are:
     Max number of different atomic species (ntypx) = 10
     Max number of k-points (npk) =  40000
     Max angular momentum in pseudopotentials (lmaxx) =  4
     file Mo.pbe-spn-kjpaw_psl.1.0.0.UPF: wavefunction(s)  4S 4D renormalized
     file S.pbe-n-kjpaw_psl.1.0.0.UPF: wavefunction(s)  3S 3P renormalized
     file Pt.pbe-spfn-kjpaw_psl.1.0.0.UPF: wavefunction(s)  5P 4F renormalized
     file Pd.pbe-spn-kjpaw_psl.1.0.0.UPF: wavefunction(s)  4S 5S 4D renormalized
 
     R & G space division:  proc/nbgrp/npool/nimage =      36
     Subspace diagonalization in iterative solution of the eigenvalue problem:
     one sub-group per band group will be used
     scalapack distributed-memory algorithm (size of sub-group:  6*  6 procs)

 
     Parallelization info
     --------------------
     sticks:   dense  smooth     PW     G-vecs:    dense   smooth      PW
     Min         585     334     89               198743    85850   11735
     Max         586     335     90               198750    85861   11748
     Sum       21073   12049   3205              7154885  3090769  422587
 
     Using Slab Decomposition
 


     bravais-lattice index     =            0
     lattice parameter (alat)  =      23.8199  a.u.
     unit-cell volume          =   33861.0370 (a.u.)^3
     number of atoms/cell      =          195
     number of atomic types    =            4
     number of electrons       =      1746.00
     number of Kohn-Sham states=         1048
     kinetic-energy cutoff     =      77.0000  Ry
     charge density cutoff     =     539.0000  Ry
     scf convergence threshold =      1.0E-06
     mixing beta               =       0.2000
     number of iterations used =            8  plain     mixing
     energy convergence thresh.=      1.0E-04
     force convergence thresh. =      1.0E-03
     Exchange-correlation= SLA  PW   PBX  PBC
                           (   1   4   3   4   0   0   0)
     nstep                     =         1000


     Effective Screening Medium Method
     =================================
     Boundary Conditions: Vacuum-Slab-Vacuum
     total charge in unit cell        =   0.0000
     grid points for fit at edges     =        4 
 

     celldm(1)=  23.819920  celldm(2)=   0.000000  celldm(3)=   0.000000
     celldm(4)=   0.000000  celldm(5)=   0.000000  celldm(6)=   0.000000

     crystal axes: (cart. coord. in units of alat)
               a(1) = (   1.000000   0.000000   0.000000 )  
               a(2) = (  -0.499999   0.866026   0.000000 )  
               a(3) = (   0.000000   0.000000   2.893000 )  

     reciprocal axes: (cart. coord. in units 2 pi/alat)
               b(1) = (  1.000000  0.577349  0.000000 )  
               b(2) = (  0.000000  1.154700  0.000000 )  
               b(3) = (  0.000000  0.000000  0.345662 )  


     PseudoPot. # 1 for Mo read from file:
     ./pseudo/Mo.pbe-spn-kjpaw_psl.1.0.0.UPF
     MD5 check sum: 317bf72632116215fd98f72de1686f13
     Pseudo is Projector augmented-wave + core cor, Zval = 14.0
     Generated using 'atomic' code by A. Dal Corso  v.7.2
     Shape of augmentation charge: PSQ
     Using radial grid of 1229 points,  6 beta functions with: 
                l(1) =   0
                l(2) =   0
                l(3) =   1
                l(4) =   1
                l(5) =   2
                l(6) =   2
     Q(r) pseudized with 0 coefficients 


     PseudoPot. # 2 for S  read from file:
     ./pseudo/S.pbe-n-kjpaw_psl.1.0.0.UPF
     MD5 check sum: 8b7b5302570d38d5e87fed6a1065abda
     Pseudo is Projector augmented-wave + core cor, Zval =  6.0
     Generated using 'atomic' code by A. Dal Corso  v.7.2
     Shape of augmentation charge: PSQ
     Using radial grid of 1151 points,  6 beta functions with: 
                l(1) =   0
                l(2) =   0
                l(3) =   1
                l(4) =   1
                l(5) =   2
                l(6) =   2
     Q(r) pseudized with 0 coefficients 


     PseudoPot. # 3 for Pt read from file:
     ./pseudo/Pt.pbe-spfn-kjpaw_psl.1.0.0.UPF
     MD5 check sum: 620096ebf4e6ebacc94de60fd67efcb5
     Pseudo is Projector augmented-wave + core cor, Zval = 32.0
     Generated using 'atomic' code by A. Dal Corso  v.7.2
     Shape of augmentation charge: PSQ
     Using radial grid of 1277 points,  8 beta functions with: 
                l(1) =   0
                l(2) =   0
                l(3) =   1
                l(4) =   1
                l(5) =   2
                l(6) =   2
                l(7) =   3
                l(8) =   3
     Q(r) pseudized with 0 coefficients 


     PseudoPot. # 4 for Pd read from file:
     ./pseudo/Pd.pbe-spn-kjpaw_psl.1.0.0.UPF
     MD5 check sum: a60571a671f2502b8a6a4569d20a6edb
     Pseudo is Projector augmented-wave + core cor, Zval = 18.0
     Generated using 'atomic' code by A. Dal Corso  v.7.2
     Shape of augmentation charge: PSQ
     Using radial grid of 1235 points,  6 beta functions with: 
                l(1) =   0
                l(2) =   0
                l(3) =   1
                l(4) =   1
                l(5) =   2
                l(6) =   2
     Q(r) pseudized with 0 coefficients 


     atomic species   valence    mass     pseudopotential
     Mo               14.00    95.95000     Mo( 1.00)
     S                 6.00    32.06000     S ( 1.00)
     Pt               32.00   195.08400     Pt( 1.00)
     Pd               18.00   106.42000     Pd( 1.00)

     No symmetry found



   Cartesian axes

     site n.     atom                  positions (alat units)
         1        Mo     tau(   1) = (   0.0000010   0.1443372  -0.7272732  )
         2        Mo     tau(   2) = (   0.1249995   0.0721706  -0.2424038  )
         3        S      tau(   3) = (   0.0000015   0.1443386  -0.3667807  )
         4        S      tau(   4) = (   0.1250010   0.0721682  -0.6030489  )
         5        S      tau(   5) = (   0.1250010   0.0721683  -0.8514963  )
         6        S      tau(   6) = (   0.0000015   0.1443389  -0.1180260  )
         7        Mo     tau(   7) = (   0.0000005   0.1443381   0.2424561  )
         8        Mo     tau(   8) = (   0.1251981   0.0716023   0.7276027  )
         9        S      tau(   9) = (  -0.0003031   0.1454842   0.6052312  )
        10        S      tau(  10) = (   0.1249558   0.0721599   0.3668208  )
        11        S      tau(  11) = (   0.1250088   0.0721517   0.1180857  )
        12        S      tau(  12) = (  -0.0004157   0.1382876   0.8564685  )
        13        Mo     tau(  13) = (  -0.1249989   0.3608437  -0.7272732  )
        14        Mo     tau(  14) = (   0.0000030   0.2886752  -0.2424042  )
        15        S      tau(  15) = (  -0.1249977   0.3608450  -0.3667802  )
        16        S      tau(  16) = (   0.0000012   0.2886747  -0.6030489  )
        17        S      tau(  17) = (   0.0000012   0.2886748  -0.8514963  )
        18        S      tau(  18) = (  -0.1249977   0.3608454  -0.1180274  )
        19        Mo     tau(  19) = (  -0.1249623   0.3608201   0.2425155  )
        20        Mo     tau(  20) = (  -0.0007801   0.2872696   0.7308518  )
        21        S      tau(  21) = (  -0.1240398   0.3604107   0.6055268  )
        22        S      tau(  22) = (   0.0000411   0.2886546   0.3669163  )
        23        S      tau(  23) = (   0.0000035   0.2886726   0.1180964  )
        24        S      tau(  24) = (  -0.1315418   0.3638985   0.8543850  )
        25        Mo     tau(  25) = (  -0.2499987   0.5773502  -0.7272732  )
        26        Mo     tau(  26) = (  -0.1249977   0.5051839  -0.2424055  )
        27        S      tau(  27) = (  -0.2499981   0.5773518  -0.3667809  )
        28        S      tau(  28) = (  -0.1249986   0.5051812  -0.6030489  )
        29        S      tau(  29) = (  -0.1249986   0.5051813  -0.8514963  )
        30        S      tau(  30) = (  -0.2499979   0.5773512  -0.1180266  )
        31        Mo     tau(  31) = (  -0.2499787   0.5773156   0.2425145  )
        32        Mo     tau(  32) = (  -0.1271807   0.5060660   0.7281741  )
        33        S      tau(  33) = (  -0.2502658   0.5775034   0.6017985  )
        34        S      tau(  34) = (  -0.1249543   0.5051367   0.3669386  )
        35        S      tau(  35) = (  -0.1249864   0.5051552   0.1181399  )
        36        S      tau(  36) = (  -0.2525628   0.5785576   0.8514793  )
        37        Mo     tau(  37) = (  -0.3749985   0.7938567  -0.7272732  )
        38        Mo     tau(  38) = (  -0.2500001   0.7216874  -0.2424031  )
        39        S      tau(  39) = (  -0.3749980   0.7938584  -0.3667800  )
        40        S      tau(  40) = (  -0.2499984   0.7216877  -0.6030489  )
        41        S      tau(  41) = (  -0.2499984   0.7216878  -0.8514963  )
        42        S      tau(  42) = (  -0.3749982   0.7938585  -0.1180264  )
        43        Mo     tau(  43) = (  -0.3750043   0.7938372   0.2424536  )
        44        Mo     tau(  44) = (  -0.2503619   0.7218808   0.7263407  )
        45        S      tau(  45) = (  -0.3755748   0.7941519   0.6023691  )
        46        S      tau(  46) = (  -0.2500067   0.7216811   0.3668312  )
        47        S      tau(  47) = (  -0.2499793   0.7216445   0.1181126  )
        48        S      tau(  48) = (  -0.3746959   0.7932047   0.8515893  )
        49        Mo     tau(  49) = (   0.2500010   0.1443372  -0.7272732  )
        50        Mo     tau(  50) = (   0.3750034   0.0721723  -0.2424032  )
        51        S      tau(  51) = (   0.2500017   0.1443391  -0.3667788  )
        52        S      tau(  52) = (   0.3750010   0.0721682  -0.6030489  )
        53        S      tau(  53) = (   0.3750010   0.0721683  -0.8514963  )
        54        S      tau(  54) = (   0.2500016   0.1443391  -0.1180271  )
        55        Mo     tau(  55) = (   0.2500033   0.1443124   0.2424881  )
        56        Mo     tau(  56) = (   0.3752595   0.0716472   0.7255395  )
        57        S      tau(  57) = (   0.2498544   0.1431280   0.6011361  )
        58        S      tau(  58) = (   0.3750516   0.0721435   0.3668117  )
        59        S      tau(  59) = (   0.3750079   0.0721203   0.1180977  )
        60        S      tau(  60) = (   0.2517312   0.1427646   0.8506906  )
        61        Mo     tau(  61) = (   0.1250012   0.3608437  -0.7272732  )
        62        Mo     tau(  62) = (   0.2500029   0.2886782  -0.2424031  )
        63        S      tau(  63) = (   0.1250024   0.3608455  -0.3667794  )
        64        S      tau(  64) = (   0.2500012   0.2886747  -0.6030489  )
        65        S      tau(  65) = (   0.2500012   0.2886748  -0.8514963  )
        66        S      tau(  66) = (   0.1250021   0.3608455  -0.1180270  )
        67        Mo     tau(  67) = (   0.1249995   0.3608273   0.2424838  )
        68        Mo     tau(  68) = (   0.2535704   0.2866116   0.7259154  )
        69        S      tau(  69) = (   0.1241106   0.3617788   0.6079553  )
        70        S      tau(  70) = (   0.2499752   0.2886689   0.3668869  )
        71        S      tau(  71) = (   0.2500098   0.2886475   0.1181123  )
        72        S      tau(  72) = (   0.1336503   0.3523048   0.8541313  )
        73        Mo     tau(  73) = (   0.0000014   0.5773502  -0.7272732  )
        74        Mo     tau(  74) = (   0.1250045   0.5051840  -0.2424036  )
        75        S      tau(  75) = (   0.0000030   0.5773520  -0.3667799  )
        76        S      tau(  76) = (   0.1250014   0.5051812  -0.6030489  )
        77        S      tau(  77) = (   0.1250014   0.5051813  -0.8514963  )
        78        S      tau(  78) = (   0.0000026   0.5773517  -0.1180274  )
        79        Mo     tau(  79) = (   0.0000276   0.5772927   0.2425177  )
        80        Mo     tau(  80) = (   0.1255270   0.5059369   0.7313762  )
        81        S      tau(  81) = (   0.0011816   0.5764663   0.6064450  )
        82        S      tau(  82) = (   0.1250222   0.5051261   0.3669341  )
        83        S      tau(  83) = (   0.1249880   0.5051467   0.1180950  )
        84        S      tau(  84) = (  -0.0088763   0.5830479   0.8565830  )
        85        Mo     tau(  85) = (  -0.1249984   0.7938567  -0.7272732  )
        86        Mo     tau(  86) = (   0.0000069   0.7216896  -0.2424039  )
        87        S      tau(  87) = (  -0.1249975   0.7938582  -0.3667782  )
        88        S      tau(  88) = (   0.0000016   0.7216877  -0.6030489  )
        89        S      tau(  89) = (   0.0000016   0.7216878  -0.8514963  )
        90        S      tau(  90) = (  -0.1249973   0.7938582  -0.1180279  )
        91        Mo     tau(  91) = (  -0.1249699   0.7938095   0.2424907  )
        92        Mo     tau(  92) = (  -0.0004895   0.7231014   0.7275053  )
        93        S      tau(  93) = (  -0.1248847   0.7932555   0.6014963  )
        94        S      tau(  94) = (   0.0000405   0.7216116   0.3668908  )
        95        S      tau(  95) = (   0.0000242   0.7216332   0.1181249  )
        96        S      tau(  96) = (  -0.1259194   0.7949777   0.8510667  )
        97        Mo     tau(  97) = (   0.5000010   0.1443372  -0.7272732  )
        98        Mo     tau(  98) = (   0.6250001   0.0721662  -0.2424040  )
        99        S      tau(  99) = (   0.5000017   0.1443386  -0.3667801  )
       100        S      tau( 100) = (   0.6250010   0.0721682  -0.6030489  )
       101        S      tau( 101) = (   0.6250010   0.0721683  -0.8514963  )
       102        S      tau( 102) = (   0.5000020   0.1443388  -0.1180261  )
       103        Mo     tau( 103) = (   0.5000355   0.1442968   0.2424343  )
       104        Mo     tau( 104) = (   0.6251054   0.0720760   0.7269638  )
       105        S      tau( 105) = (   0.5007812   0.1439212   0.6015111  )
       106        S      tau( 106) = (   0.6250309   0.0721295   0.3668346  )
       107        S      tau( 107) = (   0.6250410   0.0721183   0.1180973  )
       108        S      tau( 108) = (   0.4998652   0.1442971   0.8504179  )
       109        Mo     tau( 109) = (   0.3750012   0.3608437  -0.7272732  )
       110        Mo     tau( 110) = (   0.4999991   0.2886761  -0.2424038  )
       111        S      tau( 111) = (   0.3750012   0.3608452  -0.3667804  )
       112        S      tau( 112) = (   0.5000012   0.2886747  -0.6030489  )
       113        S      tau( 113) = (   0.5000012   0.2886748  -0.8514963  )
       114        S      tau( 114) = (   0.3750014   0.3608455  -0.1180261  )
       115        Mo     tau( 115) = (   0.3749988   0.3608207   0.2424913  )
       116        Mo     tau( 116) = (   0.5005676   0.2886014   0.7258090  )
       117        S      tau( 117) = (   0.3761076   0.3615161   0.6013079  )
       118        S      tau( 118) = (   0.5000282   0.2886169   0.3668001  )
       119        S      tau( 119) = (   0.5000158   0.2886613   0.1180928  )
       120        S      tau( 120) = (   0.3768791   0.3600665   0.8508100  )
       121        Mo     tau( 121) = (   0.2500014   0.5773502  -0.7272732  )
       122        Mo     tau( 122) = (   0.3749983   0.5051825  -0.2424043  )
       123        S      tau( 123) = (   0.2500017   0.5773519  -0.3667810  )
       124        S      tau( 124) = (   0.3750014   0.5051812  -0.6030489  )
       125        S      tau( 125) = (   0.3750014   0.5051813  -0.8514963  )
       126        S      tau( 126) = (   0.2500018   0.5773519  -0.1180256  )
       127        Mo     tau( 127) = (   0.2499755   0.5773110   0.2424609  )
       128        Mo     tau( 128) = (   0.3758691   0.5051374   0.7277779  )
       129        S      tau( 129) = (   0.2483182   0.5768077   0.6062789  )
       130        S      tau( 130) = (   0.3749464   0.5051844   0.3668408  )
       131        S      tau( 131) = (   0.3749944   0.5051486   0.1180923  )
       132        S      tau( 132) = (   0.2574557   0.5818559   0.8585037  )
       133        Mo     tau( 133) = (   0.1250016   0.7938567  -0.7272732  )
       134        Mo     tau( 134) = (   0.2499995   0.7216883  -0.2424036  )
       135        S      tau( 135) = (   0.1250024   0.7938578  -0.3667813  )
       136        S      tau( 136) = (   0.2500016   0.7216877  -0.6030489  )
       137        S      tau( 137) = (   0.2500016   0.7216878  -0.8514963  )
       138        S      tau( 138) = (   0.1250024   0.7938579  -0.1180253  )
       139        Mo     tau( 139) = (   0.1250229   0.7938069   0.2425006  )
       140        Mo     tau( 140) = (   0.2504358   0.7224862   0.7284223  )
       141        S      tau( 141) = (   0.1254429   0.7935457   0.6029055  )
       142        S      tau( 142) = (   0.2500049   0.7216116   0.3668842  )
       143        S      tau( 143) = (   0.2500022   0.7216616   0.1181021  )
       144        S      tau( 144) = (   0.1246626   0.7944127   0.8519137  )
       145        Mo     tau( 145) = (   0.7500010   0.1443372  -0.7272732  )
       146        Mo     tau( 146) = (   0.8750038   0.0721696  -0.2424038  )
       147        S      tau( 147) = (   0.7500016   0.1443382  -0.3667789  )
       148        S      tau( 148) = (   0.8750010   0.0721682  -0.6030489  )
       149        S      tau( 149) = (   0.8750010   0.0721683  -0.8514963  )
       150        S      tau( 150) = (   0.7500016   0.1443384  -0.1180279  )
       151        Mo     tau( 151) = (   0.7500289   0.1443141   0.2424936  )
       152        Mo     tau( 152) = (   0.8748115   0.0715393   0.7280420  )
       153        S      tau( 153) = (   0.7503587   0.1440662   0.6027403  )
       154        S      tau( 154) = (   0.8750369   0.0721618   0.3668742  )
       155        S      tau( 155) = (   0.8750002   0.0721408   0.1181001  )
       156        S      tau( 156) = (   0.7494385   0.1444101   0.8516821  )
       157        Mo     tau( 157) = (   0.6250012   0.3608437  -0.7272732  )
       158        Mo     tau( 158) = (   0.7500028   0.2886769  -0.2424041  )
       159        S      tau( 159) = (   0.6250015   0.3608451  -0.3667792  )
       160        S      tau( 160) = (   0.7500012   0.2886747  -0.6030489  )
       161        S      tau( 161) = (   0.7500012   0.2886748  -0.8514963  )
       162        S      tau( 162) = (   0.6250016   0.3608454  -0.1180280  )
       163        Mo     tau( 163) = (   0.6250302   0.3608127   0.2424760  )
       164        Mo     tau( 164) = (   0.7487590   0.2885376   0.7272130  )
       165        S      tau( 165) = (   0.6254237   0.3608917   0.6015174  )
       166        S      tau( 166) = (   0.7500486   0.2886525   0.3668797  )
       167        S      tau( 167) = (   0.7500385   0.2886557   0.1181169  )
       168        S      tau( 168) = (   0.6239430   0.3610912   0.8510113  )
       169        Mo     tau( 169) = (   0.5000014   0.5773502  -0.7272732  )
       170        Mo     tau( 170) = (   0.6250029   0.5051841  -0.2424047  )
       171        S      tau( 171) = (   0.5000014   0.5773518  -0.3667794  )
       172        S      tau( 172) = (   0.6250014   0.5051812  -0.6030489  )
       173        S      tau( 173) = (   0.6250014   0.5051813  -0.8514963  )
       174        S      tau( 174) = (   0.5000016   0.5773516  -0.1180277  )
       175        Mo     tau( 175) = (   0.4999859   0.5773250   0.2424709  )
       176        Mo     tau( 176) = (   0.6245890   0.5053660   0.7261562  )
       177        S      tau( 177) = (   0.4993068   0.5776651   0.6022414  )
       178        S      tau( 178) = (   0.6249823   0.5051501   0.3668388  )
       179        S      tau( 179) = (   0.6250205   0.5051637   0.1181147  )
       180        S      tau( 180) = (   0.5009766   0.5773609   0.8515797  )
       181        Mo     tau( 181) = (   0.3750016   0.7938567  -0.7272732  )
       182        Mo     tau( 182) = (   0.5000025   0.7216901  -0.2424039  )
       183        S      tau( 183) = (   0.3750019   0.7938578  -0.3667793  )
       184        S      tau( 184) = (   0.5000016   0.7216877  -0.6030489  )
       185        S      tau( 185) = (   0.5000016   0.7216878  -0.8514963  )
       186        S      tau( 186) = (   0.3750020   0.7938579  -0.1180272  )
       187        Mo     tau( 187) = (   0.3749951   0.7938323   0.2424893  )
       188        Mo     tau( 188) = (   0.4998599   0.7217391   0.7271366  )
       189        S      tau( 189) = (   0.3746033   0.7939741   0.6029663  )
       190        S      tau( 190) = (   0.4999946   0.7216688   0.3668260  )
       191        S      tau( 191) = (   0.4999891   0.7216628   0.1180901  )
       192        S      tau( 192) = (   0.3755955   0.7938624   0.8526444  )
       193        Pt     tau( 193) = (   0.1194898   0.4990527   0.9549993  )
       194        Pd     tau( 194) = (   0.0026419   0.2990244   0.9662205  )
       195        Pt     tau( 195) = (  -0.0004760   0.7231281   0.9755684  )

     --------------------------------------------
     DFT-D3 Dispersion Correction (3-body terms):
     --------------------------------------------
       Reference C6 values for interpolation: 

         atom   Coordination number   C6
         S          0.000           268.01
         S          0.995           261.99
         S          1.990           251.62
         Mo         0.000          1691.79
         Mo         1.942          1004.01
         Mo        11.056           674.22
         Pd         0.000          1217.01
         Pd         1.863           573.90
         Pd         5.710           531.75
         Pt         0.000           782.29
         Pt         1.919           692.72
         Pt         6.667           673.75

       Values used:

         atom   Coordination number  R0_AB[au]  C6      C8
         Mo        10.208            3.547    674.21  77634.20
         Mo        10.221            3.547    674.22  77634.20
         S          3.858            3.128    251.62  12327.25
         S          3.859            3.128    251.62  12327.25
         S          3.758            3.128    251.62  12327.25
         S          3.859            3.128    251.62  12327.25
         Mo        10.221            3.547    674.22  77634.20
         Mo        10.229            3.547    674.22  77634.20
         S          3.849            3.128    251.62  12327.25
         S          3.859            3.128    251.62  12327.25
         S          3.859            3.128    251.62  12327.25
         S          4.621            3.128    251.62  12327.25
         Mo        10.208            3.547    674.22  77634.20
         Mo        10.221            3.547    674.22  77634.20
         S          3.858            3.128    251.62  12327.25
         S          3.859            3.128    251.62  12327.25
         S          3.758            3.128    251.62  12327.25
         S          3.859            3.128    251.62  12327.25
         Mo        10.222            3.547    674.22  77634.20
         Mo        10.721            3.547    674.22  77634.20
         S          3.862            3.128    251.62  12327.25
         S          3.850            3.128    251.62  12327.25
         S          3.859            3.128    251.62  12327.25
         S          4.669            3.128    251.62  12327.25
         Mo        10.208            3.547    674.22  77634.20
         Mo        10.221            3.547    674.22  77634.20
         S          3.858            3.128    251.62  12327.25
         S          3.859            3.128    251.62  12327.25
         S          3.758            3.128    251.62  12327.25
         S          3.859            3.128    251.62  12327.25
         Mo        10.220            3.547    674.22  77634.20
         Mo        10.180            3.547    674.22  77634.20
         S          3.843            3.128    251.62  12327.25
         S          3.853            3.128    251.62  12327.25
         S          3.859            3.128    251.62  12327.25
         S          3.853            3.128    251.62  12327.25
         Mo        10.208            3.547    674.22  77634.20
         Mo        10.220            3.547    674.22  77634.20
         S          3.858            3.128    251.62  12327.25
         S          3.859            3.128    251.62  12327.25
         S          3.758            3.128    251.62  12327.25
         S          3.859            3.128    251.62  12327.25
         Mo        10.220            3.547    674.22  77634.20
         Mo        10.269            3.547    674.22  77634.20
         S          3.856            3.128    251.62  12327.25
         S          3.861            3.128    251.62  12327.25
         S          3.859            3.128    251.62  12327.25
         S          3.809            3.128    251.62  12327.25
         Mo        10.208            3.547    674.22  77634.20
         Mo        10.221            3.547    674.22  77634.20
         S          3.858            3.128    251.62  12327.25
         S          3.859            3.128    251.62  12327.25
         S          3.758            3.128    251.62  12327.25
         S          3.859            3.128    251.62  12327.25
         Mo        10.220            3.547    674.22  77634.20
         Mo        10.287            3.547    674.22  77634.20
         S          3.837            3.128    251.62  12327.25
         S          3.863            3.128    251.62  12327.25
         S          3.859            3.128    251.62  12327.25
         S          3.842            3.128    251.62  12327.25
         Mo        10.208            3.547    674.22  77634.20
         Mo        10.221            3.547    674.22  77634.20
         S          3.858            3.128    251.62  12327.25
         S          3.859            3.128    251.62  12327.25
         S          3.758            3.128    251.62  12327.25
         S          3.859            3.128    251.62  12327.25
         Mo        10.222            3.547    674.22  77634.20
         Mo        10.177            3.547    674.22  77634.20
         S          3.873            3.128    251.62  12327.25
         S          3.855            3.128    251.62  12327.25
         S          3.859            3.128    251.62  12327.25
         S          5.643            3.128    251.62  12327.25
         Mo        10.208            3.547    674.22  77634.20
         Mo        10.221            3.547    674.22  77634.20
         S          3.858            3.128    251.62  12327.25
         S          3.859            3.128    251.62  12327.25
         S          3.758            3.128    251.62  12327.25
         S          3.859            3.128    251.62  12327.25
         Mo        10.222            3.547    674.22  77634.20
         Mo        10.877            3.547    674.22  77634.20
         S          3.861            3.128    251.62  12327.25
         S          3.850            3.128    251.62  12327.25
         S          3.859            3.128    251.62  12327.25
         S          5.648            3.128    251.62  12327.25
         Mo        10.208            3.547    674.22  77634.20
         Mo        10.221            3.547    674.22  77634.20
         S          3.858            3.128    251.62  12327.25
         S          3.859            3.128    251.62  12327.25
         S          3.758            3.128    251.62  12327.25
         S          3.859            3.128    251.62  12327.25
         Mo        10.220            3.547    674.22  77634.20
         Mo        10.740            3.547    674.22  77634.20
         S          3.851            3.128    251.62  12327.25
         S          3.856            3.128    251.62  12327.25
         S          3.859            3.128    251.62  12327.25
         S          4.779            3.128    251.62  12327.25
         Mo        10.208            3.547    674.22  77634.20
         Mo        10.221            3.547    674.22  77634.20
         S          3.858            3.128    251.62  12327.25
         S          3.859            3.128    251.62  12327.25
         S          3.758            3.128    251.62  12327.25
         S          3.859            3.128    251.62  12327.25
         Mo        10.220            3.547    674.22  77634.20
         Mo        10.260            3.547    674.22  77634.20
         S          3.856            3.128    251.62  12327.25
         S          3.861            3.128    251.62  12327.25
         S          3.859            3.128    251.62  12327.25
         S          3.801            3.128    251.62  12327.25
         Mo        10.208            3.547    674.22  77634.20
         Mo        10.221            3.547    674.22  77634.20
         S          3.858            3.128    251.62  12327.25
         S          3.859            3.128    251.62  12327.25
         S          3.758            3.128    251.62  12327.25
         S          3.859            3.128    251.62  12327.25
         Mo        10.220            3.547    674.22  77634.20
         Mo        10.278            3.547    674.22  77634.20
         S          3.840            3.128    251.62  12327.25
         S          3.863            3.128    251.62  12327.25
         S          3.859            3.128    251.62  12327.25
         S          3.819            3.128    251.62  12327.25
         Mo        10.208            3.547    674.22  77634.20
         Mo        10.221            3.547    674.22  77634.20
         S          3.858            3.128    251.62  12327.25
         S          3.859            3.128    251.62  12327.25
         S          3.758            3.128    251.62  12327.25
         S          3.859            3.128    251.62  12327.25
         Mo        10.222            3.547    674.22  77634.20
         Mo        10.220            3.547    674.21  77634.20
         S          3.851            3.128    251.62  12327.25
         S          3.858            3.128    251.62  12327.25
         S          3.859            3.128    251.62  12327.25
         S          4.652            3.128    251.62  12327.25
         Mo        10.208            3.547    674.22  77634.20
         Mo        10.221            3.547    674.22  77634.20
         S          3.858            3.128    251.62  12327.25
         S          3.859            3.128    251.62  12327.25
         S          3.758            3.128    251.62  12327.25
         S          3.859            3.128    251.62  12327.25
         Mo        10.221            3.547    674.22  77634.20
         Mo        10.235            3.547    674.22  77634.20
         S          3.864            3.128    251.62  12327.25
         S          3.856            3.128    251.62  12327.25
         S          3.859            3.128    251.62  12327.25
         S          4.720            3.128    251.62  12327.25
         Mo        10.208            3.547    674.22  77634.20
         Mo        10.221            3.547    674.22  77634.20
         S          3.858            3.128    251.62  12327.25
         S          3.859            3.128    251.62  12327.25
         S          3.758            3.128    251.62  12327.25
         S          3.859            3.128    251.62  12327.25
         Mo        10.221            3.547    674.22  77634.20
         Mo        10.241            3.547    674.22  77634.20
         S          3.864            3.128    251.62  12327.25
         S          3.857            3.128    251.62  12327.25
         S          3.859            3.128    251.62  12327.25
         S          3.768            3.128    251.62  12327.25
         Mo        10.208            3.547    674.22  77634.20
         Mo        10.220            3.547    674.22  77634.20
         S          3.858            3.128    251.62  12327.25
         S          3.859            3.128    251.62  12327.25
         S          3.758            3.128    251.62  12327.25
         S          3.859            3.128    251.62  12327.25
         Mo        10.220            3.547    674.22  77634.20
         Mo        10.226            3.547    674.22  77634.20
         S          3.854            3.128    251.62  12327.25
         S          3.857            3.128    251.62  12327.25
         S          3.859            3.128    251.62  12327.25
         S          3.809            3.128    251.62  12327.25
         Mo        10.208            3.547    674.22  77634.20
         Mo        10.221            3.547    674.22  77634.20
         S          3.858            3.128    251.62  12327.25
         S          3.859            3.128    251.62  12327.25
         S          3.758            3.128    251.62  12327.25
         S          3.859            3.128    251.62  12327.25
         Mo        10.220            3.547    674.22  77634.20
         Mo        10.267            3.547    674.22  77634.20
         S          3.853            3.128    251.62  12327.25
         S          3.861            3.128    251.62  12327.25
         S          3.859            3.128    251.62  12327.25
         S          3.821            3.128    251.62  12327.25
         Mo        10.208            3.547    674.22  77634.20
         Mo        10.221            3.547    674.22  77634.20
         S          3.858            3.128    251.62  12327.25
         S          3.859            3.128    251.62  12327.25
         S          3.758            3.128    251.62  12327.25
         S          3.859            3.128    251.62  12327.25
         Mo        10.221            3.547    674.22  77634.20
         Mo        10.251            3.547    674.22  77634.20
         S          3.853            3.128    251.62  12327.25
         S          3.860            3.128    251.62  12327.25
         S          3.859            3.128    251.62  12327.25
         S          3.823            3.128    251.62  12327.25
         Pt         4.704            3.168    673.75  70061.90
         Pd         4.114            3.168    531.75  48720.88
         Pt         3.761            3.168    692.72  72035.25

         Molecular C6 ( Ry / a.u.^6 ) =  14174368.34


     number of k points=     4  Gaussian smearing, width (Ry)=  0.0100
                       cart. coord. in units 2pi/alat
        k(    1) = (   0.0000000   0.0000000   0.0000000), wk =   0.5000000
        k(    2) = (   0.0000000  -0.5773499   0.0000000), wk =   0.5000000
        k(    3) = (  -0.5000000  -0.2886744   0.0000000), wk =   0.5000000
        k(    4) = (  -0.5000000  -0.8660242   0.0000000), wk =   0.5000000

     Dense  grid:  7154885 G-vectors     FFT dimensions: ( 180, 180, 512)

     Smooth grid:  3090769 G-vectors     FFT dimensions: ( 135, 135, 400)

     Estimated max dynamical RAM per process >       4.33 GB

     Estimated total dynamical RAM >     155.86 GB

     Atomic positions and unit cell read from directory:
     ./outdir/pwscf.save/
     Atomic positions from file used, from input discarded
 

     The initial density is read from file :
     ./outdir/pwscf.save/charge-density


     negative rho (up, down):  9.059E-04 0.000E+00
     Cannot read wfcs: file not found
     Starting wfcs are 1196 randomized atomic wfcs
     Checking if some PAW data can be deallocated... 

     total cpu time spent up to now is      181.5 secs

     Self-consistent Calculation

     iteration #  1     ecut=    77.00 Ry     beta= 0.20
     Davidson diagonalization with overlap
     c_bands:  7 eigenvalues not converged
     c_bands: 12 eigenvalues not converged
     c_bands: 17 eigenvalues not converged
     c_bands: 11 eigenvalues not converged
     ethr =  1.00E-05,  avg # of iterations =120.0

     negative rho (up, down):  8.218E-04 0.000E+00

     total cpu time spent up to now is    11152.4 secs

     total energy              =  -35655.72378120 Ry
     estimated scf accuracy    <      17.34328360 Ry

     iteration #  2     ecut=    77.00 Ry     beta= 0.20
     Davidson diagonalization with overlap
     ethr =  9.93E-04,  avg # of iterations =  7.0

     negative rho (up, down):  8.184E-04 0.000E+00

     total cpu time spent up to now is    11589.0 secs

     total energy              =  -35649.98946183 Ry
     estimated scf accuracy    <      36.71584676 Ry

     iteration #  3     ecut=    77.00 Ry     beta= 0.20
     Davidson diagonalization with overlap
     c_bands:  4 eigenvalues not converged
     c_bands:  1 eigenvalues not converged
     ethr =  9.93E-04,  avg # of iterations = 28.5

     negative rho (up, down):  8.014E-04 0.000E+00

     total cpu time spent up to now is    12294.8 secs

     total energy              =  -35625.68660119 Ry
     estimated scf accuracy    <    4626.02789772 Ry

     iteration #  4     ecut=    77.00 Ry     beta= 0.20
     Davidson diagonalization with overlap
     ethr =  9.93E-04,  avg # of iterations =  5.0

     negative rho (up, down):  7.189E-04 0.000E+00

     total cpu time spent up to now is    12706.2 secs

     total energy              =  -35654.20446878 Ry
     estimated scf accuracy    <      22.15765783 Ry

     iteration #  5     ecut=    77.00 Ry     beta= 0.20
     Davidson diagonalization with overlap
     ethr =  9.93E-04,  avg # of iterations =  4.0

     negative rho (up, down):  6.690E-04 0.000E+00

     total cpu time spent up to now is    13122.5 secs

     total energy              =  -35654.66410399 Ry
     estimated scf accuracy    <       3.73574341 Ry

     iteration #  6     ecut=    77.00 Ry     beta= 0.20
     Davidson diagonalization with overlap
     ethr =  2.14E-04,  avg # of iterations = 10.5

     negative rho (up, down):  6.827E-04 0.000E+00

     total cpu time spent up to now is    13634.2 secs

     total energy              =  -35655.11345703 Ry
     estimated scf accuracy    <       1.69683892 Ry

     iteration #  7     ecut=    77.00 Ry     beta= 0.20
     Davidson diagonalization with overlap
     ethr =  9.72E-05,  avg # of iterations =  4.5

     negative rho (up, down):  7.258E-04 0.000E+00

     total cpu time spent up to now is    14052.0 secs

     total energy              =  -35654.75644968 Ry
     estimated scf accuracy    <       0.98472169 Ry

     iteration #  8     ecut=    77.00 Ry     beta= 0.20
     Davidson diagonalization with overlap
     ethr =  5.64E-05,  avg # of iterations = 15.0

     negative rho (up, down):  7.210E-04 0.000E+00

     total cpu time spent up to now is    14588.3 secs

     total energy              =  -35654.91570939 Ry
     estimated scf accuracy    <       1.36979012 Ry

     iteration #  9     ecut=    77.00 Ry     beta= 0.20
     Davidson diagonalization with overlap
     ethr =  5.64E-05,  avg # of iterations =  7.8

     negative rho (up, down):  7.140E-04 0.000E+00

     total cpu time spent up to now is    15017.3 secs

     total energy              =  -35654.86264307 Ry
     estimated scf accuracy    <       0.36747734 Ry

     iteration # 10     ecut=    77.00 Ry     beta= 0.20
     Davidson diagonalization with overlap
     c_bands:  1 eigenvalues not converged
     c_bands:  2 eigenvalues not converged
     ethr =  2.10E-05,  avg # of iterations = 24.0

     negative rho (up, down):  7.327E-04 0.000E+00

     total cpu time spent up to now is    15778.1 secs

     total energy              =  -35654.93223013 Ry
     estimated scf accuracy    <       0.05820968 Ry

     iteration # 11     ecut=    77.00 Ry     beta= 0.20
     Davidson diagonalization with overlap
     c_bands:  3 eigenvalues not converged
     c_bands:  2 eigenvalues not converged
     c_bands:  5 eigenvalues not converged
     c_bands:  2 eigenvalues not converged
     ethr =  3.33E-06,  avg # of iterations = 50.0

     negative rho (up, down):  7.553E-04 0.000E+00

     total cpu time spent up to now is    17121.2 secs

     total energy              =  -35654.94344910 Ry
     estimated scf accuracy    <       0.03111829 Ry

     iteration # 12     ecut=    77.00 Ry     beta= 0.20
     Davidson diagonalization with overlap
     c_bands:  5 eigenvalues not converged
     c_bands:  2 eigenvalues not converged
     c_bands:  1 eigenvalues not converged
     c_bands:  3 eigenvalues not converged
     ethr =  1.78E-06,  avg # of iterations = 20.0

     negative rho (up, down):  7.829E-04 0.000E+00

     total cpu time spent up to now is    17619.3 secs

     total energy              =  -35654.94006261 Ry
     estimated scf accuracy    <       0.01237963 Ry

     iteration # 13     ecut=    77.00 Ry     beta= 0.20
     Davidson diagonalization with overlap
     c_bands:  2 eigenvalues not converged
     c_bands:  3 eigenvalues not converged
     c_bands:  1 eigenvalues not converged
     c_bands:  4 eigenvalues not converged
     ethr =  7.09E-07,  avg # of iterations = 70.0

     negative rho (up, down):  8.056E-04 0.000E+00

     total cpu time spent up to now is    19388.2 secs

     total energy              =  -35654.94615198 Ry
     estimated scf accuracy    <       0.00387887 Ry

     iteration # 14     ecut=    77.00 Ry     beta= 0.20
     Davidson diagonalization with overlap
     c_bands:  1 eigenvalues not converged
     c_bands:  2 eigenvalues not converged
     ethr =  2.22E-07,  avg # of iterations = 24.8

     negative rho (up, down):  8.254E-04 0.000E+00

     total cpu time spent up to now is    20098.3 secs

     total energy              =  -35654.94659138 Ry
     estimated scf accuracy    <       0.00135379 Ry

     iteration # 15     ecut=    77.00 Ry     beta= 0.20
     Davidson diagonalization with overlap
     c_bands:  1 eigenvalues not converged
     ethr =  7.75E-08,  avg # of iterations = 13.0

     negative rho (up, down):  8.422E-04 0.000E+00

     total cpu time spent up to now is    20886.6 secs

     total energy              =  -35654.94771364 Ry
     estimated scf accuracy    <       0.00067680 Ry

     iteration # 16     ecut=    77.00 Ry     beta= 0.20
     Davidson diagonalization with overlap
     c_bands:  2 eigenvalues not converged
     ethr =  3.88E-08,  avg # of iterations = 25.8

     negative rho (up, down):  8.743E-04 0.000E+00

     total cpu time spent up to now is    21655.5 secs

     total energy              =  -35654.94763023 Ry
     estimated scf accuracy    <       0.00037169 Ry

     iteration # 17     ecut=    77.00 Ry     beta= 0.20
     Davidson diagonalization with overlap
     c_bands:  1 eigenvalues not converged
     ethr =  2.13E-08,  avg # of iterations = 13.8

     negative rho (up, down):  8.848E-04 0.000E+00

     total cpu time spent up to now is    22395.8 secs

     total energy              =  -35654.94784540 Ry
     estimated scf accuracy    <       0.00011693 Ry

     iteration # 18     ecut=    77.00 Ry     beta= 0.20
     Davidson diagonalization with overlap
     ethr =  6.70E-09,  avg # of iterations = 14.0

     negative rho (up, down):  8.883E-04 0.000E+00

     total cpu time spent up to now is    23141.3 secs

     total energy              =  -35654.94791673 Ry
     estimated scf accuracy    <       0.00004422 Ry

     iteration # 19     ecut=    77.00 Ry     beta= 0.20
     Davidson diagonalization with overlap
     c_bands:  4 eigenvalues not converged
     c_bands:  1 eigenvalues not converged
     ethr =  2.53E-09,  avg # of iterations = 17.8

     negative rho (up, down):  8.929E-04 0.000E+00

     total cpu time spent up to now is    23988.1 secs

     total energy              =  -35654.94794433 Ry
     estimated scf accuracy    <       0.00001943 Ry

     iteration # 20     ecut=    77.00 Ry     beta= 0.20
     Davidson diagonalization with overlap
     c_bands:  2 eigenvalues not converged
     ethr =  1.11E-09,  avg # of iterations = 12.8

     negative rho (up, down):  8.995E-04 0.000E+00

     total cpu time spent up to now is    24614.5 secs

     total energy              =  -35654.94794537 Ry
     estimated scf accuracy    <       0.00001060 Ry

     iteration # 21     ecut=    77.00 Ry     beta= 0.20
     Davidson diagonalization with overlap
     c_bands:  1 eigenvalues not converged
     ethr =  6.07E-10,  avg # of iterations = 15.0

     negative rho (up, down):  9.030E-04 0.000E+00

     total cpu time spent up to now is    25377.8 secs

     total energy              =  -35654.94794983 Ry
     estimated scf accuracy    <       0.00000380 Ry

     iteration # 22     ecut=    77.00 Ry     beta= 0.20
     Davidson diagonalization with overlap
     c_bands:  2 eigenvalues not converged
     ethr =  2.17E-10,  avg # of iterations = 22.2

     negative rho (up, down):  9.042E-04 0.000E+00

     total cpu time spent up to now is    26245.4 secs

     total energy              =  -35654.94795143 Ry
     estimated scf accuracy    <       0.00000112 Ry

     iteration # 23     ecut=    77.00 Ry     beta= 0.20
     Davidson diagonalization with overlap
     c_bands:  3 eigenvalues not converged
     ethr =  6.39E-11,  avg # of iterations = 17.0

     negative rho (up, down):  9.066E-04 0.000E+00

     total cpu time spent up to now is    27221.6 secs

     End of self-consistent calculation

          k = 0.0000 0.0000 0.0000 (386245 PWs)   bands (ev):

  -102.9728-102.4975 -88.8654 -71.3395 -71.3327 -71.2947 -71.2591 -71.2527
   -71.2360 -71.2301 -70.8705 -70.8688 -70.8271 -70.8104 -70.7981 -70.7870
   -70.7725 -66.6874 -66.6869 -66.6861 -66.6811 -66.6671 -66.6661 -66.6661
   -66.6661 -66.6661 -66.6661 -66.6661 -66.6660 -66.6658 -66.6657 -66.6655
   -66.6653 -66.6652 -66.6648 -66.6648 -66.6648 -66.6647 -66.6647 -66.6647
   -66.6624 -66.6595 -66.6537 -66.6489 -66.6450 -66.6447 -66.6447 -66.6447
   -66.6447 -66.6447 -66.6447 -66.6447 -66.6447 -66.6447 -66.6445 -66.6444
   -66.6442 -66.6442 -66.6440 -66.6439 -66.6438 -66.6436 -66.6434 -66.6434
   -66.6433 -66.6433 -66.6433 -66.6433 -66.6433 -66.6433 -66.6433 -66.6422
   -66.6403 -66.6339 -66.6280 -66.6250 -66.6229 -66.6174 -66.6052 -66.5992
   -66.5526 -57.3546 -57.1652 -57.0425 -56.8484 -56.7244 -56.5203 -54.7462
   -54.6393 -54.5874 -41.0148 -41.0148 -41.0148 -41.0143 -41.0142 -41.0141
   -41.0141 -41.0141 -41.0140 -40.9990 -40.9964 -40.9908 -40.9395 -40.9395
   -40.9395 -40.9395 -40.9395 -40.9394 -40.9391 -40.9390 -40.9389 -40.9388
   -40.9388 -40.9388 -40.9388 -40.9387 -40.9387 -40.9387 -40.9387 -40.9385
   -40.9308 -40.9218 -40.9190 -40.9107 -40.9030 -40.9025 -40.8616 -40.8470
   -40.8465 -40.8463 -40.8411 -40.8272 -40.8244 -40.8132 -40.8131 -40.8131
   -40.8131 -40.8131 -40.8131 -40.8128 -40.8127 -40.8125 -40.8125 -40.8123
   -40.8123 -40.8123 -40.8123 -40.8123 -40.8123 -40.8123 -40.8123 -40.8079
   -40.8053 -40.8053 -40.8053 -40.8053 -40.8052 -40.8052 -40.8051 -40.8050
   -40.8048 -40.8047 -40.8046 -40.8045 -40.8045 -40.8045 -40.8045 -40.8045
   -40.8045 -40.8044 -40.8032 -40.8000 -40.7988 -40.7933 -40.7924 -40.7882
   -40.7864 -40.7781 -40.7781 -40.7781 -40.7781 -40.7781 -40.7781 -40.7777
   -40.7777 -40.7776 -40.7774 -40.7773 -40.7772 -40.7772 -40.7772 -40.7772
   -40.7772 -40.7772 -40.7772 -40.7767 -40.7746 -40.7707 -40.7675 -40.7635
   -40.7634 -40.7633 -40.7633 -40.7633 -40.7633 -40.7633 -40.7633 -40.7632
   -40.7632 -40.7632 -40.7630 -40.7630 -40.7629 -40.7629 -40.7628 -40.7626
   -40.7625 -40.7625 -40.7625 -40.7625 -40.7625 -40.7625 -40.7625 -40.7625
   -40.7625 -40.7624 -40.7624 -40.7623 -40.7602 -40.7583 -40.7568 -40.7518
   -40.7478 -40.7440 -40.7427 -40.7393 -40.7259 -40.7086 -40.6998 -40.6998
   -40.6998 -40.6993 -40.6992 -40.6990 -40.6988 -40.6988 -40.6988 -40.6792
   -40.6772 -40.6690 -40.6527 -40.6527 -40.6527 -40.6526 -40.6526 -40.6526
   -40.6523 -40.6523 -40.6521 -40.6520 -40.6518 -40.6517 -40.6516 -40.6516
   -40.6516 -40.6516 -40.6516 -40.6516 -40.6310 -40.6295 -40.6272 -40.6210
   -40.6158 -40.6058 -40.6050 -40.6050 -40.6044 -40.6044 -40.6040 -40.6040
   -40.5716 -40.5629 -20.4382 -20.1701 -20.0733 -19.9622 -19.8500 -19.5866
   -19.3818 -19.3281 -19.3222 -19.3127 -19.3009 -19.2996 -19.2933 -19.2791
   -19.2722 -19.2567 -19.2158 -19.2123 -19.2028 -19.1916 -19.1866 -19.1742
   -19.1108 -19.1081 -19.1031 -19.0989 -19.0975 -19.0928 -18.9843 -18.9218
   -18.8653 -18.7370 -18.6856 -18.6271 -18.5999 -18.5723 -18.5679 -18.5512
   -18.5267 -18.5017 -18.4845 -18.4816 -18.4701 -18.4630 -18.4246 -18.3985
   -18.3603 -18.3499 -18.3470 -18.3395 -18.3242 -18.3134 -18.2709 -18.2551
   -18.2483 -18.2465 -18.2429 -18.2382 -18.2267 -18.2169 -18.1896 -18.1841
   -18.1835 -18.1823 -18.1818 -18.1807 -18.1716 -18.1526 -18.1514 -18.1460
   -18.1451 -18.1432 -18.1394 -18.1382 -18.1381 -18.1333 -18.1130 -18.1123
   -18.1115 -18.1089 -18.1002 -18.0954 -18.0935 -18.0870 -18.0797 -18.0721
   -18.0692 -18.0669 -18.0644 -18.0541 -18.0523 -18.0498 -18.0241 -18.0179
   -18.0140 -18.0074 -17.9994 -17.9849 -17.9832 -17.9819 -17.9806 -17.9606
   -17.9578 -17.9544 -17.9501 -17.9441 -17.9383 -17.9331 -17.9306 -17.9280
   -17.9226 -17.9216 -17.9196 -17.9043 -17.9039 -17.9031 -17.8957 -17.8924
   -17.8907 -17.8859 -17.8848 -17.8826 -17.8609 -17.8601 -17.8597 -17.8581
   -17.8575 -17.8566 -12.4901 -12.4371 -12.0779 -12.0423 -11.9517 -11.8664
   -11.8599 -11.8560 -11.7730 -11.7544 -11.7366 -11.7243 -11.6438 -11.6222
   -11.6192 -11.6151 -11.5140 -11.4926 -11.4613 -11.3935 -11.3441 -11.3083
   -11.3054 -11.2991 -11.2963 -11.2754 -11.2435 -11.2320 -11.2034 -11.1941
   -11.1924 -11.1906 -11.1884 -11.1825 -11.1656 -11.1588 -11.1428 -11.1304
   -11.1271 -11.1255 -11.1186 -11.1115 -11.1073 -11.0959 -11.0954 -11.0883
   -11.0680 -11.0419 -11.0298 -11.0257 -11.0150 -11.0107 -11.0048 -10.9973
   -10.9798 -10.9640 -10.9584 -10.9510 -10.9498 -10.9408 -10.9380 -10.9213
   -10.9149 -10.9087 -10.9032 -10.9029 -10.9010 -10.8930 -10.8917 -10.8907
   -10.8891 -10.8860 -10.8772 -10.8719 -10.8711 -10.8655 -10.8467 -10.8452
   -10.8418 -10.8409 -10.8388 -10.8366 -10.8317 -10.8308 -10.8231 -10.8016
   -10.8009 -10.8004 -10.8003 -10.7993 -10.7972 -10.7704 -10.7342 -10.7243
   -10.7105 -10.6942 -10.6725 -10.6557 -10.6525 -10.6457 -10.6330 -10.6012
   -10.4936 -10.3957 -10.3012 -10.2322 -10.2069 -10.1543 -10.1133 -10.0398
    -9.9850  -9.9833  -9.9617  -9.9207  -9.8924  -9.8814  -9.8729  -9.8637
    -9.8557  -9.8428  -9.8401  -9.8385  -9.8352  -9.8324  -9.8262  -9.8235
    -9.8193  -9.8153  -9.8133  -9.8122  -9.8069  -9.7921  -9.7796  -9.7710
    -9.7575  -9.7499  -9.7069  -9.6999  -9.6924  -9.6912  -9.6871  -9.6835
    -9.6823  -9.6811  -9.6795  -9.6774  -9.6764  -9.6737  -9.6485  -9.6416
    -9.6183  -9.6110  -9.6048  -9.6047  -9.6046  -9.6043  -9.6041  -9.6038
    -9.5934  -9.5855  -9.5755  -9.5737  -9.5691  -9.5512  -9.5455  -9.5197
    -9.5090  -9.4575  -9.4392  -9.4345  -9.4325  -9.4237  -9.4211  -9.4134
    -9.4039  -9.3994  -9.3971  -9.3864  -9.3733  -9.3562  -9.3356  -9.3162
    -9.3086  -9.3052  -9.2976  -9.2803  -9.2716  -9.2560  -9.2472  -9.2470
    -9.2452  -9.2432  -9.2387  -9.2289  -9.2135  -9.1960  -9.1797  -9.1775
    -9.1576  -9.1320  -9.1229  -9.0898  -9.0589  -9.0453  -9.0449  -9.0425
    -9.0370  -9.0195  -9.0110  -9.0103  -8.9996  -8.9897  -8.9805  -8.9803
    -8.9801  -8.9765  -8.9634  -8.9617  -8.9570  -8.9538  -8.8958  -8.8856
    -8.8848  -8.8843  -8.8838  -8.8833  -8.8831  -8.8398  -8.8295  -8.8231
    -8.8133  -8.8021  -8.7963  -8.7576  -8.7390  -8.7325  -8.7293  -8.7228
    -8.7175  -8.6975  -8.6620  -8.6588  -8.6562  -8.6547  -8.6532  -8.6502
    -8.6314  -8.5927  -8.5862  -8.5010  -8.4568  -8.4294  -8.4294  -8.4244
    -8.4237  -8.4201  -8.4175  -8.4166  -8.4004  -8.3761  -8.3635  -8.3387
    -8.3385  -8.3384  -8.3382  -8.3376  -8.3363  -8.3125  -8.3119  -8.3116
    -8.3111  -8.3103  -8.3087  -8.2849  -8.2842  -8.2837  -8.2835  -8.2832
    -8.2826  -8.2579  -8.2371  -8.1905  -8.1217  -8.0518  -8.0086  -7.9244
    -7.9223  -7.9196  -7.9115  -7.8771  -7.8620  -7.8340  -7.8182  -7.8009
    -7.7716  -7.7504  -7.7235  -7.7161  -7.7074  -7.6985  -7.6902  -7.6798
    -7.6690  -7.6666  -7.6585  -7.6507  -7.6425  -7.6207  -7.6192  -7.6149
    -7.6004  -7.5977  -7.5970  -7.5967  -7.5961  -7.5946  -7.5897  -7.5728
    -7.5718  -7.5702  -7.5696  -7.5677  -7.5669  -7.5592  -7.5511  -7.5458
    -7.5451  -7.5447  -7.5443  -7.5436  -7.5418  -7.5332  -7.5191  -7.5109
    -7.4989  -7.4957  -7.4876  -7.4811  -7.4801  -7.4623  -7.4463  -7.4379
    -7.4238  -7.4197  -7.4063  -7.3945  -7.3789  -7.3769  -7.3686  -7.3660
    -7.3591  -7.3581  -7.3555  -7.3468  -7.3398  -7.3133  -7.3132  -7.3001
    -7.2947  -7.2940  -7.2767  -7.2764  -7.2531  -7.2396  -7.2246  -7.1982
    -7.1898  -7.1782  -7.1535  -7.1189  -7.0474  -7.0252  -7.0170  -6.9599
    -6.9437  -6.9381  -6.9307  -6.8854  -6.8578  -6.8442  -6.8406  -6.8402
    -6.8200  -6.7935  -6.7646  -6.7626  -6.7598  -6.7503  -6.7445  -6.7373
    -6.7090  -6.6882  -6.6846  -6.6841  -6.6774  -6.6517  -6.6438  -6.6355
    -6.6329  -6.6275  -6.6157  -6.6011  -6.5850  -6.5831  -6.5782  -6.5771
    -6.5745  -6.5735  -6.5706  -6.5702  -6.5637  -6.5608  -6.5604  -6.5603
    -6.5603  -6.5601  -6.5597  -6.5505  -6.5453  -6.5361  -6.5134  -6.5043
    -6.4998  -6.4834  -6.4733  -6.4721  -6.4712  -6.4424  -6.4147  -6.3981
    -6.3960  -6.3953  -6.3933  -6.3925  -6.3879  -6.3749  -6.3630  -6.3577
    -6.3541  -6.3523  -6.3511  -6.3459  -6.3336  -6.3241  -6.3198  -6.3161
    -6.3153  -6.3138  -6.3119  -6.3073  -6.2844  -6.2144  -6.0856  -6.0659
    -5.9141  -5.8929  -5.6870  -5.6009  -5.5727  -5.4165  -5.3643  -5.2933
    -5.2128  -4.3579  -4.1166  -3.9658  -3.9223  -3.9148  -3.9087  -3.9019
    -3.8940  -3.8937  -3.8912  -3.8869  -3.8848  -3.8681  -3.8542  -3.8212
    -3.7818  -3.7674  -3.7592  -3.7517  -3.7478  -3.7436  -3.7415  -3.7380
    -3.7311  -3.6512  -3.6321  -3.6084  -3.5930  -3.5762  -3.5706  -3.5649
    -3.5575  -3.5490  -3.5384  -3.5348  -3.5342  -3.5314  -3.5288  -3.5255
    -3.5243  -3.5161  -3.5079  -3.5049  -3.5045  -3.5040  -3.4991  -3.4906
    -3.4893  -3.4882  -3.4813  -3.4777  -3.4742  -3.4702  -3.4687  -3.4660
    -3.4628  -3.4589  -3.4523  -3.4456  -3.4433  -3.4239  -3.4198  -3.4188
    -3.4125  -3.4105  -3.4082  -3.4036  -3.3990  -3.3964  -3.3859  -3.3689
    -3.3663  -3.3628  -3.3507  -3.3473  -3.3460  -3.3412  -3.3303  -3.3110
    -3.2955  -3.2792  -3.2712  -3.2646  -3.2542  -3.1683  -3.1510  -3.1426
    -3.1311  -3.1247  -3.1219  -3.1181  -3.1147  -3.1126  -3.1064  -3.0954
    -3.0773  -3.0574  -3.0520  -3.0476  -3.0437  -3.0372  -3.0348  -3.0318
    -3.0283  -3.0271  -3.0249  -3.0247  -3.0206  -3.0189  -3.0159  -3.0150
    -3.0096  -3.0065  -2.9995  -2.9966  -2.9961  -2.9944  -2.9938  -2.9932
    -2.9921  -2.9904  -2.9854  -2.9706  -2.9690  -2.9568  -2.9480  -2.9443
    -2.9324  -2.9286  -2.9281  -2.8987  -2.8691  -2.8689  -2.8689  -2.8687
    -2.8686  -2.8683  -2.8680  -2.8665  -2.8658  -2.8518  -2.8497  -2.8423
    -2.8316  -2.8150  -2.8063  -2.7991  -2.7931  -2.7801  -2.7764  -2.7312
    -2.7260  -2.7111  -2.6997  -2.6961  -2.6929  -2.6900  -2.6865  -2.6818
    -2.6798  -2.6742  -2.6376  -2.6097  -2.6052  -2.6000  -2.5915  -2.5526
    -2.5144  -2.5110  -2.5071  -2.4960  -2.4904  -2.4839  -2.4720  -2.4694

          k = 0.0000-0.5773 0.0000 (386352 PWs)   bands (ev):

  -102.9728-102.4975 -88.8654 -71.3395 -71.3327 -71.2946 -71.2591 -71.2527
   -71.2360 -71.2301 -70.8705 -70.8688 -70.8271 -70.8104 -70.7981 -70.7870
   -70.7725 -66.6812 -66.6812 -66.6809 -66.6805 -66.6798 -66.6798 -66.6794
   -66.6714 -66.6705 -66.6705 -66.6701 -66.6700 -66.6692 -66.6692 -66.6625
   -66.6574 -66.6554 -66.6554 -66.6554 -66.6554 -66.6552 -66.6551 -66.6547
   -66.6546 -66.6541 -66.6541 -66.6540 -66.6540 -66.6531 -66.6510 -66.6510
   -66.6507 -66.6502 -66.6496 -66.6496 -66.6477 -66.6449 -66.6447 -66.6447
   -66.6447 -66.6447 -66.6440 -66.6439 -66.6439 -66.6433 -66.6433 -66.6433
   -66.6433 -66.6429 -66.6409 -66.6403 -66.6403 -66.6398 -66.6397 -66.6389
   -66.6389 -66.6326 -66.6302 -66.6245 -66.6218 -66.6180 -66.6052 -66.5992
   -66.5526 -57.3546 -57.1652 -57.0425 -56.8484 -56.7244 -56.5203 -54.7462
   -54.6393 -54.5874 -40.9832 -40.9832 -40.9832 -40.9832 -40.9829 -40.9825
   -40.9825 -40.9825 -40.9825 -40.9825 -40.9824 -40.9823 -40.9735 -40.9659
   -40.9624 -40.9570 -40.9564 -40.9564 -40.9559 -40.9556 -40.9556 -40.9556
   -40.9496 -40.9443 -40.9443 -40.9437 -40.9436 -40.9436 -40.9436 -40.9353
   -40.9221 -40.8941 -40.8936 -40.8936 -40.8936 -40.8936 -40.8930 -40.8930
   -40.8930 -40.8929 -40.8928 -40.8928 -40.8928 -40.8928 -40.8740 -40.8698
   -40.8610 -40.8562 -40.8514 -40.8476 -40.8348 -40.8348 -40.8344 -40.8342
   -40.8341 -40.8341 -40.8301 -40.8253 -40.8253 -40.8248 -40.8247 -40.8244
   -40.8244 -40.8149 -40.8139 -40.8139 -40.8134 -40.8134 -40.8132 -40.8132
   -40.8130 -40.8037 -40.7973 -40.7928 -40.7886 -40.7843 -40.7843 -40.7843
   -40.7843 -40.7841 -40.7840 -40.7836 -40.7836 -40.7836 -40.7836 -40.7836
   -40.7835 -40.7823 -40.7756 -40.7756 -40.7756 -40.7752 -40.7749 -40.7748
   -40.7748 -40.7703 -40.7655 -40.7638 -40.7638 -40.7633 -40.7633 -40.7633
   -40.7633 -40.7633 -40.7633 -40.7632 -40.7629 -40.7629 -40.7629 -40.7628
   -40.7626 -40.7625 -40.7625 -40.7625 -40.7625 -40.7625 -40.7555 -40.7546
   -40.7546 -40.7541 -40.7541 -40.7538 -40.7538 -40.7491 -40.7453 -40.7392
   -40.7350 -40.7329 -40.7329 -40.7329 -40.7329 -40.7329 -40.7323 -40.7320
   -40.7320 -40.7320 -40.7319 -40.7319 -40.7319 -40.7140 -40.7130 -40.7094
   -40.7085 -40.7032 -40.6982 -40.6982 -40.6982 -40.6982 -40.6976 -40.6976
   -40.6975 -40.6975 -40.6972 -40.6972 -40.6972 -40.6972 -40.6860 -40.6860
   -40.6856 -40.6852 -40.6850 -40.6850 -40.6811 -40.6756 -40.6709 -40.6667
   -40.6667 -40.6664 -40.6657 -40.6657 -40.6657 -40.6640 -40.6561 -40.6497
   -40.6497 -40.6491 -40.6490 -40.6487 -40.6487 -40.6450 -40.6424 -40.6272
   -40.6220 -40.6190 -40.6190 -40.6186 -40.6182 -40.6180 -40.6180 -40.5927
   -40.5901 -40.5826 -20.3843 -19.9776 -19.9342 -19.9163 -19.8415 -19.8175
   -19.7310 -19.7159 -19.6375 -19.5807 -19.4972 -19.4901 -19.4143 -19.3970
   -19.3223 -19.2941 -19.2667 -19.1326 -18.9009 -18.8792 -18.8258 -18.7963
   -18.7884 -18.7853 -18.7805 -18.7700 -18.7553 -18.7416 -18.7302 -18.7119
   -18.7029 -18.6932 -18.6842 -18.6666 -18.6532 -18.6224 -18.6174 -18.6114
   -18.6070 -18.5887 -18.5873 -18.5643 -18.5553 -18.5391 -18.5339 -18.5147
   -18.4795 -18.4731 -18.4691 -18.4600 -18.4329 -18.4235 -18.4111 -18.4015
   -18.3871 -18.3731 -18.3251 -18.3174 -18.3114 -18.3044 -18.2803 -18.2664
   -18.2474 -18.2388 -18.2241 -18.2171 -18.1923 -18.1802 -18.1696 -18.1638
   -18.1606 -18.1604 -18.1569 -18.1445 -18.1356 -18.1340 -18.1319 -18.1291
   -18.1261 -18.1223 -18.1176 -18.1088 -18.1056 -18.1018 -18.0737 -18.0718
   -18.0702 -18.0663 -18.0644 -18.0612 -18.0582 -18.0575 -18.0520 -18.0431
   -18.0165 -18.0090 -18.0009 -17.9983 -17.9974 -17.9917 -17.9574 -17.9548
   -17.9496 -17.9454 -17.9273 -17.9146 -17.9080 -17.9055 -17.9024 -17.8944
   -17.8819 -17.8813 -17.8809 -17.8800 -17.8798 -17.8787 -17.8666 -17.8656
   -17.8474 -17.8451 -17.8232 -17.8209 -17.8041 -17.8010 -17.7891 -17.7871
   -17.7815 -17.7812 -12.4623 -12.3566 -11.9064 -11.8309 -11.7971 -11.7668
   -11.7256 -11.6392 -11.6177 -11.5684 -11.5631 -11.5591 -11.5585 -11.5512
   -11.5311 -11.5061 -11.4788 -11.4684 -11.4550 -11.4492 -11.4470 -11.4289
   -11.4165 -11.3927 -11.3821 -11.3686 -11.3529 -11.3390 -11.3356 -11.3348
   -11.3237 -11.3215 -11.3156 -11.3079 -11.2747 -11.2675 -11.2643 -11.2522
   -11.2418 -11.2416 -11.2315 -11.2264 -11.2208 -11.2095 -11.2085 -11.1948
   -11.1863 -11.1637 -11.1572 -11.1501 -11.1366 -11.1215 -11.0932 -11.0639
   -11.0449 -11.0217 -11.0152 -11.0006 -10.9906 -10.9836 -10.9767 -10.9633
   -10.9284 -10.9103 -10.9062 -10.8967 -10.8866 -10.8813 -10.8804 -10.8736
   -10.8729 -10.8728 -10.8713 -10.8675 -10.8632 -10.8571 -10.8552 -10.8543
   -10.8504 -10.8471 -10.8442 -10.8426 -10.8181 -10.8065 -10.8052 -10.8050
   -10.8002 -10.7559 -10.6699 -10.6214 -10.6061 -10.5929 -10.5855 -10.5678
   -10.5278 -10.4805 -10.4657 -10.4005 -10.3651 -10.3291 -10.3249 -10.2727
   -10.2191 -10.2085 -10.1912 -10.1834 -10.1745 -10.1727 -10.1492 -10.1384
   -10.1117 -10.1005 -10.0982 -10.0962 -10.0872 -10.0821 -10.0801 -10.0653
   -10.0408 -10.0256  -9.9985  -9.9932  -9.9901  -9.9610  -9.9584  -9.9529
    -9.9463  -9.9348  -9.9237  -9.9066  -9.8956  -9.8872  -9.8760  -9.8623
    -9.8471  -9.8335  -9.8280  -9.8241  -9.7808  -9.7755  -9.7599  -9.7510
    -9.7342  -9.7253  -9.7170  -9.7113  -9.6879  -9.6755  -9.6687  -9.6662
    -9.6623  -9.6351  -9.6264  -9.6078  -9.6073  -9.5982  -9.5909  -9.5545
    -9.5517  -9.5455  -9.5409  -9.5383  -9.5317  -9.5275  -9.5209  -9.5184
    -9.5171  -9.5044  -9.4910  -9.4729  -9.4580  -9.4294  -9.3932  -9.3508
    -9.3479  -9.3323  -9.3020  -9.2920  -9.2804  -9.2764  -9.2674  -9.2520
    -9.2490  -9.2318  -9.2157  -9.1951  -9.1892  -9.1857  -9.1726  -9.1561
    -9.1371  -9.1289  -9.1137  -9.1092  -9.1072  -9.1049  -9.0680  -9.0625
    -9.0552  -9.0426  -9.0362  -9.0245  -9.0142  -9.0093  -9.0029  -8.9953
    -8.9664  -8.9637  -8.9544  -8.9521  -8.9511  -8.9488  -8.9452  -8.9430
    -8.9332  -8.9312  -8.9300  -8.9290  -8.9248  -8.9189  -8.9161  -8.9071
    -8.9026  -8.9018  -8.9012  -8.8802  -8.8565  -8.8556  -8.8551  -8.8545
    -8.8485  -8.8471  -8.8372  -8.8246  -8.8238  -8.8215  -8.7962  -8.7946
    -8.7944  -8.7893  -8.7678  -8.7438  -8.7244  -8.7223  -8.7096  -8.6721
    -8.6089  -8.5825  -8.5676  -8.5630  -8.5568  -8.5187  -8.5061  -8.4980
    -8.4471  -8.4206  -8.4050  -8.3644  -8.3427  -8.2969  -8.2776  -8.1993
    -8.1894  -8.1893  -8.1804  -8.1799  -8.1699  -8.1689  -8.1640  -8.1276
    -8.1255  -8.1000  -8.0444  -8.0326  -8.0241  -8.0056  -7.9871  -7.9595
    -7.9481  -7.9125  -7.9093  -7.9042  -7.8993  -7.8929  -7.8847  -7.8800
    -7.8757  -7.8675  -7.8641  -7.8609  -7.8588  -7.8581  -7.8491  -7.8445
    -7.8429  -7.8426  -7.8373  -7.8310  -7.8297  -7.8286  -7.8262  -7.8255
    -7.8237  -7.8200  -7.8196  -7.8122  -7.8073  -7.7943  -7.7924  -7.7906
    -7.7835  -7.7632  -7.7590  -7.7583  -7.7572  -7.7530  -7.7299  -7.7288
    -7.7277  -7.7274  -7.7203  -7.7151  -7.7132  -7.7076  -7.7007  -7.6768
    -7.6751  -7.6708  -7.6696  -7.6692  -7.6653  -7.6521  -7.6472  -7.6455
    -7.6357  -7.6263  -7.6259  -7.6219  -7.6188  -7.6072  -7.5960  -7.5731
    -7.5258  -7.5246  -7.5218  -7.5194  -7.5005  -7.4775  -7.4267  -7.3843
    -7.3127  -7.2784  -7.2369  -7.2353  -7.2342  -7.2283  -7.2214  -7.1996
    -7.1886  -7.1826  -7.1742  -7.1699  -7.1452  -7.1406  -7.1207  -7.1058
    -7.0984  -7.0894  -7.0807  -7.0688  -7.0541  -7.0379  -7.0349  -7.0148
    -6.9846  -6.9776  -6.9748  -6.9574  -6.9526  -6.9441  -6.9224  -6.9212
    -6.9142  -6.9131  -6.8676  -6.8537  -6.8348  -6.8221  -6.8125  -6.7972
    -6.7866  -6.7487  -6.7382  -6.7078  -6.6891  -6.6825  -6.6742  -6.6676
    -6.6668  -6.6663  -6.6633  -6.6556  -6.6495  -6.6486  -6.6478  -6.6470
    -6.6408  -6.6406  -6.6405  -6.6404  -6.6224  -6.6137  -6.5902  -6.5614
    -6.5287  -6.4978  -6.4809  -6.4734  -6.4405  -6.3849  -6.3813  -6.3787
    -6.3755  -6.3694  -6.3606  -6.3422  -6.3388  -6.3377  -6.3342  -6.3341
    -6.3226  -6.3184  -6.3161  -6.3119  -6.3076  -6.2813  -6.2683  -6.2667
    -6.2657  -6.2569  -6.1971  -6.1405  -6.1041  -6.0561  -6.0473  -6.0400
    -6.0191  -5.9812  -5.9768  -5.9185  -5.9176  -5.8950  -5.8852  -5.8657
    -5.7979  -5.7561  -5.7064  -5.6631  -5.6592  -5.5383  -5.5309  -5.4027
    -5.2994  -4.3953  -4.1857  -4.1672  -4.1497  -4.1308  -4.0482  -4.0122
    -4.0005  -3.9890  -3.9753  -3.9437  -3.9127  -3.9025  -3.8965  -3.8870
    -3.8761  -3.8719  -3.8631  -3.8604  -3.8577  -3.8219  -3.8056  -3.7666
    -3.7543  -3.7445  -3.6814  -3.6686  -3.6628  -3.6618  -3.6572  -3.6227
    -3.6133  -3.6108  -3.6080  -3.6064  -3.5848  -3.5820  -3.5725  -3.5675
    -3.5654  -3.5536  -3.5439  -3.5413  -3.5382  -3.5349  -3.5275  -3.5240
    -3.5095  -3.5044  -3.4988  -3.4876  -3.4802  -3.4756  -3.4699  -3.4470
    -3.4276  -3.4235  -3.4113  -3.4085  -3.4080  -3.4042  -3.4016  -3.3940
    -3.3740  -3.3696  -3.3575  -3.3539  -3.3494  -3.3422  -3.3408  -3.3387
    -3.3341  -3.3302  -3.3232  -3.3196  -3.3082  -3.3016  -3.2994  -3.2950
    -3.2859  -3.2771  -3.2715  -3.2698  -3.2689  -3.2668  -3.2488  -3.2450
    -3.2389  -3.2366  -3.2245  -3.2222  -3.2222  -3.2147  -3.1976  -3.1772
    -3.1646  -3.1631  -3.1588  -3.1382  -3.1322  -3.1241  -3.1218  -3.0943
    -3.0860  -3.0845  -3.0828  -3.0814  -3.0811  -3.0776  -3.0764  -3.0738
    -3.0686  -3.0626  -3.0601  -3.0536  -3.0483  -3.0437  -3.0426  -3.0397
    -3.0351  -3.0325  -3.0276  -3.0193  -3.0153  -3.0088  -3.0083  -3.0053
    -3.0037  -2.9948  -2.9904  -2.9864  -2.9770  -2.9674  -2.9592  -2.9508
    -2.9452  -2.9411  -2.9325  -2.9308  -2.9126  -2.8694  -2.8605  -2.8563
    -2.8481  -2.8302  -2.8058  -2.7785  -2.7694  -2.7223  -2.6934  -2.6702
    -2.6581  -2.6468  -2.6274  -2.6225  -2.6203  -2.6012  -2.5937  -2.5872
    -2.5858  -2.5698  -2.5673  -2.5344  -2.5113  -2.5001  -2.4886  -2.4597
    -2.4515  -2.4470  -2.4395  -2.4347  -2.4235  -2.4148  -2.3850  -2.3695

          k =-0.5000-0.2887 0.0000 (386352 PWs)   bands (ev):

  -102.9728-102.4975 -88.8654 -71.3395 -71.3327 -71.2946 -71.2591 -71.2527
   -71.2360 -71.2301 -70.8705 -70.8688 -70.8271 -70.8104 -70.7981 -70.7870
   -70.7725 -66.6812 -66.6812 -66.6808 -66.6806 -66.6801 -66.6798 -66.6798
   -66.6705 -66.6705 -66.6700 -66.6700 -66.6692 -66.6692 -66.6690 -66.6628
   -66.6598 -66.6554 -66.6554 -66.6554 -66.6554 -66.6550 -66.6549 -66.6549
   -66.6548 -66.6541 -66.6541 -66.6541 -66.6540 -66.6526 -66.6510 -66.6510
   -66.6506 -66.6504 -66.6496 -66.6496 -66.6491 -66.6447 -66.6447 -66.6447
   -66.6447 -66.6443 -66.6443 -66.6441 -66.6439 -66.6433 -66.6433 -66.6433
   -66.6433 -66.6425 -66.6403 -66.6403 -66.6398 -66.6397 -66.6389 -66.6389
   -66.6387 -66.6333 -66.6289 -66.6246 -66.6239 -66.6172 -66.6052 -66.5992
   -66.5526 -57.3546 -57.1652 -57.0425 -56.8484 -56.7244 -56.5203 -54.7462
   -54.6393 -54.5874 -40.9832 -40.9832 -40.9832 -40.9831 -40.9826 -40.9826
   -40.9825 -40.9825 -40.9825 -40.9825 -40.9825 -40.9824 -40.9802 -40.9734
   -40.9564 -40.9563 -40.9559 -40.9556 -40.9556 -40.9556 -40.9530 -40.9503
   -40.9443 -40.9443 -40.9437 -40.9437 -40.9436 -40.9436 -40.9407 -40.9368
   -40.9136 -40.9113 -40.8936 -40.8936 -40.8936 -40.8936 -40.8930 -40.8930
   -40.8930 -40.8929 -40.8928 -40.8928 -40.8928 -40.8928 -40.8776 -40.8682
   -40.8641 -40.8569 -40.8554 -40.8418 -40.8350 -40.8348 -40.8348 -40.8344
   -40.8341 -40.8341 -40.8341 -40.8253 -40.8253 -40.8248 -40.8247 -40.8244
   -40.8244 -40.8180 -40.8139 -40.8139 -40.8135 -40.8134 -40.8132 -40.8132
   -40.8101 -40.8021 -40.7943 -40.7890 -40.7883 -40.7843 -40.7843 -40.7843
   -40.7843 -40.7839 -40.7839 -40.7839 -40.7837 -40.7837 -40.7836 -40.7836
   -40.7836 -40.7836 -40.7756 -40.7756 -40.7752 -40.7750 -40.7750 -40.7748
   -40.7748 -40.7708 -40.7673 -40.7638 -40.7638 -40.7633 -40.7633 -40.7633
   -40.7633 -40.7633 -40.7632 -40.7630 -40.7629 -40.7629 -40.7629 -40.7627
   -40.7625 -40.7625 -40.7625 -40.7625 -40.7625 -40.7623 -40.7555 -40.7546
   -40.7546 -40.7541 -40.7541 -40.7538 -40.7538 -40.7473 -40.7455 -40.7396
   -40.7329 -40.7329 -40.7329 -40.7329 -40.7325 -40.7323 -40.7323 -40.7321
   -40.7320 -40.7320 -40.7320 -40.7319 -40.7319 -40.7204 -40.7181 -40.7084
   -40.7044 -40.6982 -40.6982 -40.6982 -40.6981 -40.6976 -40.6976 -40.6975
   -40.6975 -40.6972 -40.6972 -40.6972 -40.6972 -40.6934 -40.6860 -40.6860
   -40.6855 -40.6853 -40.6850 -40.6850 -40.6737 -40.6725 -40.6718 -40.6667
   -40.6667 -40.6662 -40.6660 -40.6657 -40.6657 -40.6653 -40.6616 -40.6497
   -40.6497 -40.6491 -40.6491 -40.6487 -40.6487 -40.6478 -40.6447 -40.6320
   -40.6190 -40.6190 -40.6185 -40.6183 -40.6180 -40.6180 -40.6159 -40.6047
   -40.5955 -40.5695 -20.3889 -19.9558 -19.9339 -19.8995 -19.8417 -19.8055
   -19.7439 -19.7118 -19.7063 -19.5893 -19.4972 -19.4915 -19.4110 -19.3991
   -19.3079 -19.2951 -19.2323 -19.1019 -18.9080 -18.8885 -18.8333 -18.8187
   -18.7863 -18.7859 -18.7809 -18.7774 -18.7639 -18.7371 -18.7211 -18.7178
   -18.7056 -18.6991 -18.6694 -18.6610 -18.6394 -18.6257 -18.6166 -18.6137
   -18.6091 -18.5892 -18.5850 -18.5597 -18.5514 -18.5405 -18.5319 -18.5133
   -18.4954 -18.4751 -18.4702 -18.4660 -18.4434 -18.4238 -18.4087 -18.3943
   -18.3832 -18.3658 -18.3353 -18.3313 -18.3114 -18.3068 -18.2815 -18.2523
   -18.2497 -18.2421 -18.2285 -18.2002 -18.1896 -18.1856 -18.1721 -18.1628
   -18.1610 -18.1594 -18.1585 -18.1391 -18.1364 -18.1338 -18.1301 -18.1284
   -18.1267 -18.1187 -18.1163 -18.1145 -18.1052 -18.0921 -18.0747 -18.0716
   -18.0691 -18.0656 -18.0631 -18.0611 -18.0602 -18.0527 -18.0513 -18.0420
   -18.0176 -18.0096 -18.0012 -17.9991 -17.9954 -17.9849 -17.9581 -17.9554
   -17.9533 -17.9393 -17.9338 -17.9164 -17.9100 -17.9056 -17.9017 -17.8999
   -17.8819 -17.8816 -17.8811 -17.8802 -17.8792 -17.8787 -17.8679 -17.8655
   -17.8491 -17.8447 -17.8241 -17.8206 -17.8048 -17.8005 -17.7893 -17.7866
   -17.7815 -17.7811 -12.4596 -12.3946 -11.8952 -11.8269 -11.7787 -11.7256
   -11.6580 -11.6509 -11.5857 -11.5644 -11.5634 -11.5614 -11.5488 -11.5440
   -11.5367 -11.5238 -11.5017 -11.4743 -11.4713 -11.4572 -11.4401 -11.4268
   -11.4114 -11.4042 -11.3841 -11.3684 -11.3573 -11.3514 -11.3413 -11.3319
   -11.3270 -11.3228 -11.3180 -11.3156 -11.2758 -11.2746 -11.2640 -11.2554
   -11.2508 -11.2439 -11.2336 -11.2323 -11.2228 -11.2135 -11.2097 -11.2015
   -11.1968 -11.1786 -11.1543 -11.1454 -11.1406 -11.1097 -11.0834 -11.0613
   -11.0330 -11.0202 -11.0154 -10.9891 -10.9816 -10.9694 -10.9667 -10.9514
   -10.9373 -10.9104 -10.9021 -10.9001 -10.8969 -10.8897 -10.8830 -10.8737
   -10.8728 -10.8726 -10.8713 -10.8686 -10.8604 -10.8590 -10.8547 -10.8540
   -10.8482 -10.8456 -10.8447 -10.8416 -10.8284 -10.8067 -10.8054 -10.8048
   -10.8043 -10.7694 -10.6833 -10.6124 -10.6048 -10.5938 -10.5885 -10.5640
   -10.5470 -10.4873 -10.4647 -10.4322 -10.3699 -10.3370 -10.3218 -10.2643
   -10.2380 -10.2004 -10.1881 -10.1852 -10.1748 -10.1719 -10.1584 -10.1327
   -10.1149 -10.1095 -10.1013 -10.0949 -10.0921 -10.0836 -10.0779 -10.0642
   -10.0298 -10.0260 -10.0094  -9.9910  -9.9883  -9.9699  -9.9654  -9.9600
    -9.9547  -9.9491  -9.9281  -9.9174  -9.9019  -9.8870  -9.8659  -9.8547
    -9.8446  -9.8367  -9.8249  -9.8117  -9.7981  -9.7822  -9.7688  -9.7568
    -9.7324  -9.7284  -9.6999  -9.6948  -9.6875  -9.6774  -9.6691  -9.6438
    -9.6327  -9.6269  -9.6185  -9.6118  -9.6064  -9.5908  -9.5600  -9.5543
    -9.5521  -9.5512  -9.5424  -9.5310  -9.5254  -9.5228  -9.5195  -9.5147
    -9.4978  -9.4947  -9.4639  -9.4515  -9.4396  -9.4185  -9.3912  -9.3811
    -9.3656  -9.3117  -9.2972  -9.2920  -9.2829  -9.2749  -9.2713  -9.2597
    -9.2331  -9.2280  -9.2156  -9.2116  -9.1945  -9.1821  -9.1698  -9.1587
    -9.1344  -9.1290  -9.1182  -9.1172  -9.1062  -9.1044  -9.0878  -9.0795
    -9.0581  -9.0495  -9.0283  -9.0182  -9.0141  -9.0089  -9.0018  -8.9969
    -8.9893  -8.9688  -8.9575  -8.9538  -8.9514  -8.9495  -8.9476  -8.9436
    -8.9376  -8.9310  -8.9305  -8.9256  -8.9205  -8.9159  -8.9104  -8.9023
    -8.9020  -8.9012  -8.8934  -8.8832  -8.8597  -8.8560  -8.8556  -8.8533
    -8.8485  -8.8457  -8.8257  -8.8249  -8.8237  -8.8082  -8.7983  -8.7956
    -8.7943  -8.7911  -8.7771  -8.7654  -8.7221  -8.7175  -8.7037  -8.6941
    -8.6319  -8.5911  -8.5661  -8.5641  -8.5275  -8.5062  -8.5023  -8.4590
    -8.4238  -8.4149  -8.3811  -8.3628  -8.3177  -8.3026  -8.2759  -8.2110
    -8.1923  -8.1894  -8.1892  -8.1802  -8.1797  -8.1691  -8.1687  -8.1443
    -8.1337  -8.1164  -8.0850  -8.0580  -8.0318  -8.0300  -7.9964  -7.9728
    -7.9564  -7.9142  -7.9041  -7.8972  -7.8935  -7.8894  -7.8832  -7.8738
    -7.8720  -7.8688  -7.8643  -7.8628  -7.8573  -7.8535  -7.8485  -7.8469
    -7.8438  -7.8426  -7.8404  -7.8311  -7.8308  -7.8275  -7.8273  -7.8261
    -7.8260  -7.8206  -7.8198  -7.8162  -7.8047  -7.7974  -7.7955  -7.7921
    -7.7862  -7.7754  -7.7613  -7.7593  -7.7576  -7.7574  -7.7380  -7.7286
    -7.7279  -7.7268  -7.7263  -7.7147  -7.7117  -7.7007  -7.6825  -7.6793
    -7.6754  -7.6697  -7.6691  -7.6617  -7.6595  -7.6567  -7.6470  -7.6450
    -7.6299  -7.6258  -7.6244  -7.6230  -7.6172  -7.6118  -7.5681  -7.5360
    -7.5297  -7.5246  -7.5176  -7.5063  -7.4998  -7.4770  -7.4488  -7.3795
    -7.3564  -7.3018  -7.2347  -7.2323  -7.2293  -7.2285  -7.2114  -7.1865
    -7.1815  -7.1770  -7.1710  -7.1591  -7.1486  -7.1330  -7.1062  -7.0989
    -7.0966  -7.0872  -7.0808  -7.0607  -7.0391  -7.0368  -7.0312  -7.0046
    -6.9965  -6.9772  -6.9742  -6.9656  -6.9483  -6.9438  -6.9294  -6.9220
    -6.9177  -6.9057  -6.8908  -6.8677  -6.8402  -6.8203  -6.8103  -6.7772
    -6.7558  -6.7428  -6.7220  -6.7038  -6.6907  -6.6860  -6.6818  -6.6686
    -6.6677  -6.6668  -6.6650  -6.6599  -6.6502  -6.6492  -6.6477  -6.6476
    -6.6409  -6.6407  -6.6405  -6.6403  -6.6197  -6.6033  -6.5861  -6.5648
    -6.5313  -6.5244  -6.4855  -6.4562  -6.4035  -6.4006  -6.3841  -6.3805
    -6.3776  -6.3716  -6.3613  -6.3498  -6.3393  -6.3387  -6.3350  -6.3345
    -6.3293  -6.3194  -6.3173  -6.3115  -6.3060  -6.2908  -6.2692  -6.2671
    -6.2649  -6.2607  -6.2246  -6.1877  -6.1551  -6.0697  -6.0525  -6.0490
    -6.0113  -5.9860  -5.9751  -5.9194  -5.9167  -5.8786  -5.8578  -5.8422
    -5.7999  -5.7369  -5.6949  -5.6588  -5.6537  -5.5403  -5.5235  -5.4057
    -5.2727  -4.3502  -4.2050  -4.1538  -4.1502  -4.1192  -4.0859  -4.0016
    -3.9918  -3.9877  -3.9729  -3.9196  -3.9166  -3.9054  -3.9012  -3.8932
    -3.8876  -3.8747  -3.8732  -3.8600  -3.8598  -3.8306  -3.7970  -3.7754
    -3.7412  -3.7259  -3.6976  -3.6796  -3.6668  -3.6643  -3.6577  -3.6428
    -3.6265  -3.6161  -3.6100  -3.6056  -3.5913  -3.5825  -3.5723  -3.5682
    -3.5638  -3.5523  -3.5453  -3.5442  -3.5371  -3.5329  -3.5251  -3.5212
    -3.5160  -3.5105  -3.5072  -3.4900  -3.4867  -3.4796  -3.4665  -3.4638
    -3.4428  -3.4161  -3.4119  -3.4082  -3.4064  -3.4041  -3.3999  -3.3975
    -3.3897  -3.3681  -3.3571  -3.3459  -3.3433  -3.3416  -3.3391  -3.3388
    -3.3373  -3.3321  -3.3158  -3.3105  -3.3049  -3.3002  -3.2929  -3.2871
    -3.2852  -3.2774  -3.2723  -3.2694  -3.2642  -3.2634  -3.2496  -3.2446
    -3.2400  -3.2348  -3.2282  -3.2222  -3.2221  -3.2213  -3.2113  -3.1780
    -3.1611  -3.1573  -3.1544  -3.1400  -3.1281  -3.1257  -3.1183  -3.0973
    -3.0875  -3.0838  -3.0821  -3.0814  -3.0806  -3.0781  -3.0726  -3.0713
    -3.0675  -3.0657  -3.0594  -3.0585  -3.0513  -3.0481  -3.0429  -3.0376
    -3.0343  -3.0300  -3.0263  -3.0241  -3.0208  -3.0122  -3.0073  -3.0059
    -2.9982  -2.9950  -2.9921  -2.9817  -2.9748  -2.9691  -2.9611  -2.9494
    -2.9474  -2.9413  -2.9362  -2.9273  -2.8983  -2.8695  -2.8579  -2.8494
    -2.8408  -2.8239  -2.8008  -2.7819  -2.7742  -2.7229  -2.6903  -2.6771
    -2.6595  -2.6515  -2.6354  -2.6251  -2.6103  -2.6038  -2.6011  -2.5891
    -2.5880  -2.5859  -2.5817  -2.5742  -2.5469  -2.5117  -2.4784  -2.4678
    -2.4597  -2.4554  -2.4441  -2.4408  -2.4393  -2.4315  -2.3901  -2.3835

          k =-0.5000-0.8660 0.0000 (386352 PWs)   bands (ev):

  -102.9728-102.4975 -88.8654 -71.3395 -71.3327 -71.2947 -71.2591 -71.2527
   -71.2360 -71.2302 -70.8705 -70.8688 -70.8271 -70.8104 -70.7981 -70.7870
   -70.7725 -66.6812 -66.6812 -66.6808 -66.6806 -66.6798 -66.6798 -66.6796
   -66.6711 -66.6705 -66.6705 -66.6701 -66.6700 -66.6692 -66.6692 -66.6612
   -66.6572 -66.6560 -66.6554 -66.6554 -66.6554 -66.6554 -66.6551 -66.6550
   -66.6549 -66.6546 -66.6541 -66.6541 -66.6541 -66.6540 -66.6510 -66.6510
   -66.6506 -66.6504 -66.6496 -66.6496 -66.6470 -66.6447 -66.6447 -66.6447
   -66.6447 -66.6445 -66.6442 -66.6442 -66.6438 -66.6434 -66.6433 -66.6433
   -66.6433 -66.6432 -66.6403 -66.6403 -66.6398 -66.6397 -66.6393 -66.6389
   -66.6389 -66.6339 -66.6293 -66.6246 -66.6220 -66.6182 -66.6052 -66.5992
   -66.5526 -57.3546 -57.1652 -57.0425 -56.8484 -56.7244 -56.5203 -54.7462
   -54.6393 -54.5874 -40.9832 -40.9832 -40.9832 -40.9831 -40.9827 -40.9825
   -40.9825 -40.9825 -40.9825 -40.9825 -40.9825 -40.9824 -40.9818 -40.9713
   -40.9564 -40.9564 -40.9558 -40.9556 -40.9556 -40.9556 -40.9556 -40.9511
   -40.9443 -40.9443 -40.9437 -40.9436 -40.9436 -40.9436 -40.9386 -40.9329
   -40.9225 -40.9028 -40.8936 -40.8936 -40.8936 -40.8936 -40.8930 -40.8930
   -40.8930 -40.8929 -40.8928 -40.8928 -40.8928 -40.8928 -40.8792 -40.8671
   -40.8630 -40.8604 -40.8542 -40.8472 -40.8348 -40.8348 -40.8344 -40.8342
   -40.8341 -40.8341 -40.8309 -40.8253 -40.8253 -40.8248 -40.8247 -40.8244
   -40.8244 -40.8164 -40.8139 -40.8139 -40.8134 -40.8134 -40.8132 -40.8132
   -40.8111 -40.8016 -40.7955 -40.7926 -40.7890 -40.7843 -40.7843 -40.7843
   -40.7843 -40.7840 -40.7840 -40.7837 -40.7836 -40.7836 -40.7836 -40.7836
   -40.7836 -40.7793 -40.7760 -40.7756 -40.7756 -40.7752 -40.7750 -40.7748
   -40.7748 -40.7748 -40.7638 -40.7638 -40.7633 -40.7633 -40.7633 -40.7633
   -40.7632 -40.7632 -40.7631 -40.7629 -40.7629 -40.7628 -40.7628 -40.7625
   -40.7625 -40.7625 -40.7625 -40.7625 -40.7622 -40.7601 -40.7586 -40.7546
   -40.7546 -40.7541 -40.7541 -40.7538 -40.7538 -40.7484 -40.7401 -40.7388
   -40.7357 -40.7329 -40.7329 -40.7329 -40.7329 -40.7325 -40.7323 -40.7323
   -40.7320 -40.7320 -40.7319 -40.7319 -40.7319 -40.7172 -40.7120 -40.7099
   -40.7070 -40.7012 -40.6982 -40.6982 -40.6982 -40.6982 -40.6976 -40.6976
   -40.6975 -40.6975 -40.6972 -40.6972 -40.6972 -40.6972 -40.6860 -40.6860
   -40.6855 -40.6853 -40.6850 -40.6850 -40.6786 -40.6761 -40.6686 -40.6667
   -40.6667 -40.6662 -40.6660 -40.6657 -40.6657 -40.6642 -40.6587 -40.6497
   -40.6497 -40.6491 -40.6490 -40.6487 -40.6487 -40.6461 -40.6395 -40.6346
   -40.6190 -40.6190 -40.6185 -40.6184 -40.6180 -40.6180 -40.6172 -40.6045
   -40.5946 -40.5704 -20.3856 -19.9711 -19.9341 -19.9133 -19.8417 -19.8160
   -19.7335 -19.7158 -19.6592 -19.5659 -19.4972 -19.4879 -19.4149 -19.3950
   -19.3430 -19.2939 -19.2847 -19.0691 -18.8876 -18.8695 -18.8573 -18.8361
   -18.7863 -18.7853 -18.7811 -18.7793 -18.7608 -18.7405 -18.7186 -18.7156
   -18.7091 -18.7037 -18.6656 -18.6502 -18.6370 -18.6182 -18.6173 -18.6128
   -18.6079 -18.5944 -18.5839 -18.5521 -18.5480 -18.5400 -18.5324 -18.5076
   -18.4914 -18.4738 -18.4722 -18.4649 -18.4469 -18.4333 -18.4160 -18.3929
   -18.3858 -18.3698 -18.3413 -18.3324 -18.3122 -18.3019 -18.2796 -18.2656
   -18.2513 -18.2348 -18.2318 -18.2020 -18.1944 -18.1810 -18.1662 -18.1631
   -18.1607 -18.1604 -18.1512 -18.1377 -18.1366 -18.1349 -18.1337 -18.1281
   -18.1251 -18.1193 -18.1176 -18.1128 -18.1045 -18.0933 -18.0743 -18.0713
   -18.0685 -18.0658 -18.0626 -18.0612 -18.0606 -18.0522 -18.0513 -18.0431
   -18.0160 -18.0068 -18.0033 -17.9990 -17.9932 -17.9841 -17.9616 -17.9538
   -17.9495 -17.9397 -17.9360 -17.9163 -17.9086 -17.9050 -17.9040 -17.9021
   -17.8817 -17.8814 -17.8808 -17.8803 -17.8800 -17.8795 -17.8678 -17.8654
   -17.8492 -17.8444 -17.8244 -17.8202 -17.8053 -17.7999 -17.7896 -17.7861
   -17.7815 -17.7809 -12.4665 -12.3614 -11.9252 -11.8351 -11.7936 -11.7350
   -11.7109 -11.6143 -11.5901 -11.5828 -11.5627 -11.5610 -11.5549 -11.5447
   -11.5321 -11.5212 -11.4929 -11.4696 -11.4541 -11.4507 -11.4460 -11.4263
   -11.4081 -11.4036 -11.3839 -11.3663 -11.3548 -11.3442 -11.3394 -11.3336
   -11.3271 -11.3208 -11.3180 -11.3158 -11.2834 -11.2703 -11.2643 -11.2556
   -11.2423 -11.2388 -11.2338 -11.2290 -11.2218 -11.2101 -11.2056 -11.1992
   -11.1929 -11.1779 -11.1487 -11.1403 -11.1360 -11.0940 -11.0903 -11.0713
[...]
     atom  195 type  3   force =     0.00071204    0.00006683   -0.00136401

     Total force =     0.009669     Total SCF correction =     0.000539
     Energy error            =      1.9E-04 Ry
     Gradient error          =      2.4E-03 Ry/Bohr

     number of scf cycles    =  48
     number of bfgs steps    =  47

     energy             old  =  -35654.9572834351 Ry
     energy             new  =  -35654.9574742964 Ry

     CASE: energy            _new < energy            _old

     new trust radius        =       0.0390022843 bohr
     new conv_thr            =       0.0000000191 Ry


ATOMIC_POSITIONS (angstrom)
Mo               0.0000119917        1.8193638619       -9.1672481230    0   0   0
Mo               1.5756136568        0.9097075315       -3.0554901653    0   0   0
S                0.0000188998        1.8193822938       -4.6232556019    0   0   0
S                1.5756321638        0.9096773839       -7.6014065489    0   0   0
S                1.5756326175        0.9096785128      -10.7330757790    0   0   0
S                0.0000189190        1.8193860094       -1.4877129945    0   0   0
Mo               0.0012134894        1.8206095560        3.0577197202
Mo               1.6036390333        0.9079999274        9.1844294120
S                0.0195497362        1.8388445108        7.6479292659
S                1.5757590130        0.9113369220        4.6269367709
S                1.5771376351        0.9105568279        1.4911054975
S                0.0159218518        1.7256599192       10.8032058352
Mo              -1.5756053507        4.5484193819       -9.1672481230    0   0   0
Mo               0.0000378379        3.6387394919       -3.0554952701    0   0   0
S               -1.5755913433        4.5484363582       -4.6232494962    0   0   0
S                0.0000148214        3.6387329039       -7.6014065489    0   0   0
S                0.0000152751        3.6387340328      -10.7330757790    0   0   0
S               -1.5755906502        4.5484413613       -1.4877305502    0   0   0
Mo              -1.5739990536        4.5493188628        3.0585428789
Mo               0.0221708116        3.6373926993        9.2229902074
S               -1.5456614254        4.5160820136        7.6290572625
S                0.0010339523        3.6390402207        4.6258907894
S                0.0016586734        3.6403847588        1.4905648039
S               -1.6695145599        4.5667904606       10.7704258392
Mo              -3.1512226931        7.2774749019       -9.1672481230    0   0   0
Mo              -1.5755910988        6.3678216792       -3.0555115988    0   0   0
S               -3.1512162438        7.2774954350       -4.6232578178    0   0   0
S               -1.5756025210        6.3677884239       -7.6014065489    0   0   0
S               -1.5756020673        6.3677895528      -10.7330757790    0   0   0
S               -3.1512127704        7.2774877076       -1.4877200710    0   0   0
Mo              -3.1494444991        7.2786622930        3.0591528713
Mo              -1.5942126148        6.3490409319        9.1653983733
S               -3.1413054175        7.2895447697        7.5868747250
S               -1.5739971330        6.3680099051        4.6271615165
S               -1.5740931507        6.3690177490        1.4912202732
S               -3.1457638809        7.2813718611       10.7360266873
Mo              -4.7268400355       10.0065304219       -9.1672481230    0   0   0
Mo              -3.1512405618        9.0968403586       -3.0554816746    0   0   0
S               -4.7268341792       10.0065523623       -4.6232463762    0   0   0
S               -3.1512198634        9.0968439439       -7.6014065489    0   0   0
S               -3.1512194097        9.0968450728      -10.7330757790    0   0   0
S               -4.7268370797       10.0065537885       -1.4877176751    0   0   0
Mo              -4.7256609865       10.0078099207        3.0592579962
Mo              -3.1411259223        9.1000817179        9.1788218088
S               -4.7005886079       10.0205586583        7.5990485313
S               -3.1497600735        9.0983471528        4.6269873579
S               -3.1502366328        9.0981045572        1.4915328066
S               -4.7179930042        9.9976936807       10.7443395479
Mo               3.1512517547        1.8193638619       -9.1672481230    0   0   0
Mo               4.7269020221        0.9097289540       -3.0554823951    0   0   0
S                3.1512612351        1.8193882564       -4.6232320683    0   0   0
S                4.7268719268        0.9096773839       -7.6014065489    0   0   0
S                4.7268723805        0.9096785128      -10.7330757790    0   0   0
S                3.1512592485        1.8193890201       -1.4877261251    0   0   0
Mo               3.1523651642        1.8202532271        3.0596307438
Mo               4.7381540364        0.9240920005        9.1772789118
S                3.1689037473        1.8120636628        7.5936016467
S                4.7285077877        0.9107258454        4.6269864311
S                4.7276411418        0.9107292487        1.4913923821
S                3.1704737250        1.8421214062       10.7437725401
Mo               1.5756344123        4.5484193819       -9.1672481230    0   0   0
Mo               3.1512756394        3.6387769522       -3.0554814834    0   0   0
S                1.5756504879        4.5484423799       -4.6232390542    0   0   0
S                3.1512545844        3.6387329039       -7.6014065489    0   0   0
S                3.1512550381        3.6387340328      -10.7330757790    0   0   0
S                1.5756466253        4.5484431864       -1.4877251801    0   0   0
Mo               1.5770180502        4.5492639805        3.0593621711
Mo               3.1876878023        3.6323490640        9.1516213800
S                1.5752892581        4.5116149939        7.6067439304
S                3.1532132883        3.6397302449        4.6272224711
S                3.1523623221        3.6394192863        1.4917204878
S                1.7118626061        4.6105145118       10.7660255841
Mo               0.0000170699        7.2774749019       -9.1672481230    0   0   0
Mo               1.5756764447        6.3678236689       -3.0554877708    0   0   0
S                0.0000381981        7.2774979204       -4.6232454413    0   0   0
S                1.5756372420        6.3677884239       -7.6014065489    0   0   0
S                1.5756376957        6.3677895528      -10.7330757790    0   0   0
S                0.0000328088        7.2774946042       -1.4877307940    0   0   0
Mo               0.0012837962        7.2783638913        3.0594756131
Mo               1.6366698369        6.3572998713        9.1113204799
S               -0.0017764139        7.2866376697        7.6163197878
S                1.5769059231        6.3687132502        4.6273779540
S                1.5768507634        6.3685699741        1.4915657520
S                0.0411903348        7.1328982594       10.6849926134
Mo              -1.5756002725       10.0065304219       -9.1672481230    0   0   0
Mo               0.0000873425        9.0968676911       -3.0554912329    0   0   0
S               -1.5755883952       10.0065504530       -4.6232240150    0   0   0
S                0.0000198996        9.0968439439       -7.6014065489    0   0   0
S                0.0000203533        9.0968450728      -10.7330757790    0   0   0
S               -1.5755859047       10.0065492576       -1.4877362381    0   0   0
Mo              -1.5744888035       10.0077145897        3.0592572717
Mo               0.0115915804        9.1052101988        9.1916215737
S               -1.5506267795       10.0088414860        7.6315967769
S                0.0012018876        9.0978714974        4.6272320614
S                0.0006766946        9.0977794743        1.4916677273
S               -1.6533496167       10.0688133471       10.8151972266
Mo               6.3024915177        1.8193638619       -9.1672481230    0   0   0
Mo               7.8781001445        0.9096521684       -3.0554919963    0   0   0
S                6.3025008696        1.8193826232       -4.6232480596    0   0   0
S                7.8781116898        0.9096773839       -7.6014065489    0   0   0
S                7.8781121435        0.9096785128      -10.7330757790    0   0   0
S                6.3025042007        1.8193849068       -1.4877147524    0   0   0
Mo               6.3038111205        1.8202882798        3.0587310883
Mo               7.8961402407        0.9188713892        9.1675635343
S                6.3135291503        1.8179606828        7.5947686679
S                7.8792575974        0.9105716498        4.6264999056
S                7.8791298193        0.9105094848        1.4908002217
S                6.3200784058        1.8298973069       10.7325835222
Mo               4.7268741753        4.5484193819       -9.1672481230    0   0   0
Mo               6.3024679138        3.6387501714       -3.0554895197    0   0   0
S                4.7268748770        4.5484386753       -4.6232519432    0   0   0
S                6.3024943474        3.6387329039       -7.6014065489    0   0   0
S                6.3024948011        3.6387340328      -10.7330757790    0   0   0
S                4.7268770533        4.5484432419       -1.4877137856    0   0   0
Mo               4.7285355285        4.5491097055        3.0586440929
Mo               6.3184512323        3.6449535447        9.1533885752
S                4.7501191875        4.5514217667        7.5762906493
S                6.3045031266        3.6394889870        4.6262419862
S                6.3041698695        3.6398156422        1.4911499677
S                4.7590288325        4.5675064043       10.7162178760
Mo               3.1512568329        7.2774749019       -9.1672481230    0   0   0
Mo               4.7268384135        6.3678043337       -3.0554959052    0   0   0
S                3.1512606125        7.2774972547       -4.6232589675    0   0   0
S                4.7268770050        6.3677884239       -7.6014065489    0   0   0
S                4.7268774587        6.3677895528      -10.7330757790    0   0   0
S                3.1512629079        7.2774963749       -1.4877081835    0   0   0
Mo               3.1524939855        7.2786103969        3.0590970891
Mo               4.7522530877        6.3797830067        9.1347936030
S                3.1911725483        7.3026052008        7.5510974607
S                4.7291194866        6.3685630260        4.6251317116
S                4.7276930224        6.3685316242        1.4907006700
S                3.1858162814        7.2836163617       10.7002305753
Mo               1.5756394905       10.0065304219       -9.1672481230    0   0   0
Mo               3.1512330605        9.0968514907       -3.0554878870    0   0   0
S                1.5756499830       10.0065443759       -4.6232632674    0   0   0
S                3.1512596626        9.0968439439       -7.6014065489    0   0   0
S                3.1512601163        9.0968450728      -10.7330757790    0   0   0
S                1.5756503041       10.0065459699       -1.4877044377    0   0   0
Mo               1.5764855270       10.0077229294        3.0586457982
Mo               3.1789241133        9.1034499190        9.1548672569
S                1.5730989196       10.0045564275        7.6192679982
S                3.1522394063        9.0990318037        4.6258951997
S                3.1524287438        9.0979908971        1.4912898027
S                1.6554587706       10.0445891886       10.7819544563
Mo               9.4537312807        1.8193638619       -9.1672481230    0   0   0
Mo              11.0293863460        0.9096952246       -3.0554894007    0   0   0
S                9.4537395970        1.8193770750       -4.6232328036    0   0   0
S               11.0293514528        0.9096773839       -7.6014065489    0   0   0
S               11.0293519066        0.9096785128      -10.7330757790    0   0   0
S                9.4537393632        1.8193794783       -1.4877366147    0   0   0
Mo               9.4550557764        1.8203377955        3.0588675267
Mo              11.0368279272        0.9051277292        9.1778828216
S                9.4673878177        1.8115107081        7.5908640401
S               11.0313381928        0.9113653113        4.6263155583
S               11.0301991687        0.9105418881        1.4905939395
S                9.4627383498        1.8217077788       10.7408468871
Mo               7.8781139383        4.5484193819       -9.1672481230    0   0   0
Mo               9.4537539161        3.6387607911       -3.0554933032    0   0   0
S                7.8781175448        4.5484378232       -4.6232366318    0   0   0
S                9.4537341104        3.6387329039       -7.6014065489    0   0   0
S                9.4537345641        3.6387340328      -10.7330757790    0   0   0
S                7.8781194018        4.5484411585       -1.4877377057    0   0   0
Mo               7.8801209014        4.5492120367        3.0587834830
Mo               9.4468025976        3.6264763504        9.1603036651
S                7.8920147260        4.5523332106        7.5857781725
S                9.4558671759        3.6396273430        4.6270159587
S                9.4554148895        3.6396608586        1.4909852267
S                7.8764463040        4.5573571055       10.7278586100
Mo               6.3024965959        7.2774749019       -9.1672481230    0   0   0
Mo               7.8781361655        6.3678242352       -3.0555014130    0   0   0
S                6.3024973331        7.2774953556       -4.6232392528    0   0   0
S                7.8781167680        6.3677884239       -7.6014065489    0   0   0
S                7.8781172217        6.3677895528      -10.7330757790    0   0   0
S                6.3024989866        7.2774929744       -1.4877349119    0   0   0
Mo               6.3042154849        7.2783467112        3.0579352150
Mo               7.8935276900        6.3754326137        9.1565346512
S                6.3315351132        7.2932569543        7.5796976294
S                7.8798344910        6.3687338779        4.6257713409
S                7.8803003135        6.3685421388        1.4907880843
S                6.3156748032        7.2831405992       10.7184728762
Mo               4.7268792535       10.0065304219       -9.1672481230    0   0   0
Mo               6.3025111524        9.0968738021       -3.0554915260    0   0   0
S                4.7268840634       10.0065452125       -4.6232380477    0   0   0
S                6.3024994256        9.0968439439       -7.6014065489    0   0   0
S                6.3024998793        9.0968450728      -10.7330757790    0   0   0
S                4.7268847312       10.0065459141       -1.4877283294    0   0   0
Mo               4.7283803526       10.0078613024        3.0587960475
Mo               6.3223687317        9.1051917348        9.1571104311
S                4.7476155293       10.0205561349        7.5899825003
S                6.3039123105        9.0974591860        4.6263203666
S                6.3038451876        9.0979987803        1.4910653108
S                4.7457151143        9.9956303127       10.7346051508
Pt               0.6399109231        6.3720684280       12.6543655002
Pd               0.0752118701        3.7117508179       12.1039693198
Pt              -0.0696148187        8.9048563027       12.0461002562



     Writing config-only to output data dir ./outdir/pwscf.save/ :
     XML data file
     NEW-OLD atomic charge density approx. for the potential

     negative rho (up, down):  9.170E-04 0.000E+00

     total cpu time spent up to now is   252479.0 secs

     Self-consistent Calculation

     iteration #  1     ecut=    77.00 Ry     beta= 0.20
     Davidson diagonalization with overlap
     ethr =  1.00E-06,  avg # of iterations = 15.5

     negative rho (up, down):  9.174E-04 0.000E+00

     total cpu time spent up to now is   253341.3 secs

     total energy              =  -35654.96193007 Ry
     estimated scf accuracy    <       0.00382160 Ry

     iteration #  2     ecut=    77.00 Ry     beta= 0.20
     Davidson diagonalization with overlap
     ethr =  2.19E-07,  avg # of iterations = 13.8

     negative rho (up, down):  9.175E-04 0.000E+00

     total cpu time spent up to now is   253850.0 secs

     total energy              =  -35654.96125178 Ry
     estimated scf accuracy    <       0.00172505 Ry

     iteration #  3     ecut=    77.00 Ry     beta= 0.20
     Davidson diagonalization with overlap
     ethr =  9.88E-08,  avg # of iterations =  9.0

     negative rho (up, down):  9.175E-04 0.000E+00

     total cpu time spent up to now is   254297.2 secs

     total energy              =  -35654.95975696 Ry
     estimated scf accuracy    <       0.00024073 Ry

     iteration #  4     ecut=    77.00 Ry     beta= 0.20
     Davidson diagonalization with overlap
     ethr =  1.38E-08,  avg # of iterations = 12.0

     negative rho (up, down):  9.176E-04 0.000E+00

     total cpu time spent up to now is   255089.7 secs

     total energy              =  -35654.95911671 Ry
     estimated scf accuracy    <       0.00013727 Ry

     iteration #  5     ecut=    77.00 Ry     beta= 0.20
     Davidson diagonalization with overlap
     ethr =  7.86E-09,  avg # of iterations = 10.5

     negative rho (up, down):  9.177E-04 0.000E+00

     total cpu time spent up to now is   255553.5 secs

     total energy              =  -35654.95855034 Ry
     estimated scf accuracy    <       0.00006791 Ry

     iteration #  6     ecut=    77.00 Ry     beta= 0.20
     Davidson diagonalization with overlap
     ethr =  3.89E-09,  avg # of iterations =  8.5

     negative rho (up, down):  9.179E-04 0.000E+00

     total cpu time spent up to now is   256030.5 secs

     total energy              =  -35654.95815383 Ry
     estimated scf accuracy    <       0.00006106 Ry

     iteration #  7     ecut=    77.00 Ry     beta= 0.20
     Davidson diagonalization with overlap
     ethr =  3.50E-09,  avg # of iterations =  9.0

     negative rho (up, down):  9.181E-04 0.000E+00

     total cpu time spent up to now is   256487.1 secs

     total energy              =  -35654.95789840 Ry
     estimated scf accuracy    <       0.00003406 Ry

     iteration #  8     ecut=    77.00 Ry     beta= 0.20
     Davidson diagonalization with overlap
     ethr =  1.95E-09,  avg # of iterations = 12.2

     negative rho (up, down):  9.184E-04 0.000E+00

     total cpu time spent up to now is   257035.6 secs

     total energy              =  -35654.95780138 Ry
     estimated scf accuracy    <       0.00001343 Ry

     iteration #  9     ecut=    77.00 Ry     beta= 0.20
     Davidson diagonalization with overlap
     ethr =  7.69E-10,  avg # of iterations =  8.2

     negative rho (up, down):  9.187E-04 0.000E+00

     total cpu time spent up to now is   257617.8 secs

     total energy              =  -35654.95766393 Ry
     estimated scf accuracy    <       0.00001009 Ry

     iteration # 10     ecut=    77.00 Ry     beta= 0.20
     Davidson diagonalization with overlap
     ethr =  5.78E-10,  avg # of iterations =  8.0

     negative rho (up, down):  9.189E-04 0.000E+00

     total cpu time spent up to now is   258104.6 secs

     total energy              =  -35654.95760391 Ry
     estimated scf accuracy    <       0.00000660 Ry

     iteration # 11     ecut=    77.00 Ry     beta= 0.20
     Davidson diagonalization with overlap
     ethr =  3.78E-10,  avg # of iterations = 13.2

     negative rho (up, down):  9.191E-04 0.000E+00

     total cpu time spent up to now is   258633.5 secs

     total energy              =  -35654.95760424 Ry
     estimated scf accuracy    <       0.00000115 Ry

     iteration # 12     ecut=    77.00 Ry     beta= 0.20
     Davidson diagonalization with overlap
