
     Program PWSCF v.7.2 starts on  3Nov2023 at 18:17:24 

     This program is part of the open-source Quantum ESPRESSO suite
     for quantum simulation of materials; please cite
         "P. Giannozzi et al., J. Phys.:Condens. Matter 21 395502 (2009);
         "P. Giannozzi et al., J. Phys.:Condens. Matter 29 465901 (2017);
         "P. Giannozzi et al., J. Chem. Phys. 152 154105 (2020);
          URL http://www.quantum-espresso.org", 
     in publications or presentations arising from this work. More details at
     http://www.quantum-espresso.org/quote

     Parallel version (MPI), running on    36 processors

     MPI processes distributed on     1 nodes
     769383 MiB available memory on the printing compute node when the environment starts
 
     Waiting for input...
     Reading input from standard input
Warning: card &CELL ignored
Warning: card / ignored

     Current dimensions of program PWSCF are:
     Max number of different atomic species (ntypx) = 10
     Max number of k-points (npk) =  40000
     Max angular momentum in pseudopotentials (lmaxx) =  4
     file Mo.pbe-spn-kjpaw_psl.1.0.0.UPF: wavefunction(s)  4S 4D renormalized
     file S.pbe-n-kjpaw_psl.1.0.0.UPF: wavefunction(s)  3S 3P renormalized
     file Pd.pbe-spn-kjpaw_psl.1.0.0.UPF: wavefunction(s)  4S 5S 4D renormalized
 
     R & G space division:  proc/nbgrp/npool/nimage =      36
     Subspace diagonalization in iterative solution of the eigenvalue problem:
     one sub-group per band group will be used
     custom distributed-memory algorithm (size of sub-group:  6*  6 procs)

 
     Parallelization info
     --------------------
     sticks:   dense  smooth     PW     G-vecs:    dense   smooth      PW
     Min         586     335     89               165416    71459    9765
     Max         587     337     90               165425    71461    9778
     Sum       21109   12085   3205              5955087  2572543  351657
 
     Using Slab Decomposition
 


     bravais-lattice index     =            0
     lattice parameter (alat)  =      23.8395  a.u.
     unit-cell volume          =   28182.8498 (a.u.)^3
     number of atoms/cell      =          147
     number of atomic types    =            3
     number of electrons       =      1302.00
     number of Kohn-Sham states=          781
     kinetic-energy cutoff     =      77.0000  Ry
     charge density cutoff     =     539.0000  Ry
     scf convergence threshold =      1.0E-06
     mixing beta               =       0.2000
     number of iterations used =            8  plain     mixing
     energy convergence thresh.=      1.0E-04
     force convergence thresh. =      1.0E-03
     Exchange-correlation= SLA  PW   PBX  PBC
                           (   1   4   3   4   0   0   0)
     nstep                     =         1000


     Effective Screening Medium Method
     =================================
     Boundary Conditions: Vacuum-Slab-Vacuum
     total charge in unit cell        =   0.0000
     grid points for fit at edges     =        4 
 

     celldm(1)=  23.839504  celldm(2)=   0.000000  celldm(3)=   0.000000
     celldm(4)=   0.000000  celldm(5)=   0.000000  celldm(6)=   0.000000

     crystal axes: (cart. coord. in units of alat)
               a(1) = (   1.000000   0.000000   0.000000 )  
               a(2) = (  -0.500001   0.866026   0.000000 )  
               a(3) = (   0.000000   0.000000   2.401941 )  

     reciprocal axes: (cart. coord. in units 2 pi/alat)
               b(1) = (  1.000000  0.577351  0.000000 )  
               b(2) = (  0.000000  1.154700  0.000000 )  
               b(3) = (  0.000000  0.000000  0.416330 )  


     PseudoPot. # 1 for Mo read from file:
     ./pseudo/Mo.pbe-spn-kjpaw_psl.1.0.0.UPF
     MD5 check sum: 317bf72632116215fd98f72de1686f13
     Pseudo is Projector augmented-wave + core cor, Zval = 14.0
     Generated using 'atomic' code by A. Dal Corso  v.7.2
     Shape of augmentation charge: PSQ
     Using radial grid of 1229 points,  6 beta functions with: 
                l(1) =   0
                l(2) =   0
                l(3) =   1
                l(4) =   1
                l(5) =   2
                l(6) =   2
     Q(r) pseudized with 0 coefficients 


     PseudoPot. # 2 for S  read from file:
     ./pseudo/S.pbe-n-kjpaw_psl.1.0.0.UPF
     MD5 check sum: 8b7b5302570d38d5e87fed6a1065abda
     Pseudo is Projector augmented-wave + core cor, Zval =  6.0
     Generated using 'atomic' code by A. Dal Corso  v.7.2
     Shape of augmentation charge: PSQ
     Using radial grid of 1151 points,  6 beta functions with: 
                l(1) =   0
                l(2) =   0
                l(3) =   1
                l(4) =   1
                l(5) =   2
                l(6) =   2
     Q(r) pseudized with 0 coefficients 


     PseudoPot. # 3 for Pd read from file:
     ./pseudo/Pd.pbe-spn-kjpaw_psl.1.0.0.UPF
     MD5 check sum: a60571a671f2502b8a6a4569d20a6edb
     Pseudo is Projector augmented-wave + core cor, Zval = 18.0
     Generated using 'atomic' code by A. Dal Corso  v.7.2
     Shape of augmentation charge: PSQ
     Using radial grid of 1235 points,  6 beta functions with: 
                l(1) =   0
                l(2) =   0
                l(3) =   1
                l(4) =   1
                l(5) =   2
                l(6) =   2
     Q(r) pseudized with 0 coefficients 


     atomic species   valence    mass     pseudopotential
        Mo            14.00    95.95000     Mo( 1.00)
        S              6.00    32.06000     S ( 1.00)
        Pd            18.00   106.42000     Pd( 1.00)

     No symmetry found



   Cartesian axes

     site n.     atom                  positions (alat units)
         1           Mo  tau(   1) = (   0.1248625   0.2131281   0.4810783  )
         2           Mo  tau(   2) = (   0.1250004   0.0721694  -0.4825273  )
         3           Mo  tau(   3) = (  -0.0000005   0.1443526  -0.0000490  )
         4           S   tau(   4) = (   0.0000004   0.0000006  -0.6064556  )
         5           S   tau(   5) = (   0.1249809   0.0722325  -0.1242083  )
         6           S   tau(   6) = (  -0.0008091   0.1437924   0.3564499  )
         7           S   tau(   7) = (   0.0000004   0.0000005  -0.3584711  )
         8           S   tau(   8) = (   0.1250266   0.0721270   0.1240857  )
         9           S   tau(   9) = (  -0.0005942   0.1424836   0.6054838  )
        10           Mo  tau(  10) = (  -0.0011099   0.4328730   0.4866737  )
        11           Mo  tau(  11) = (   0.0000001   0.2886759  -0.4825273  )
        12           Mo  tau(  12) = (  -0.1249710   0.3608625  -0.0000153  )
        13           S   tau(  13) = (  -0.1249999   0.2165071  -0.6064556  )
        14           S   tau(  14) = (   0.0000009   0.2886909  -0.1241159  )
        15           S   tau(  15) = (  -0.1236884   0.3618446   0.3606188  )
        16           S   tau(  16) = (  -0.1249998   0.2165070  -0.3584711  )
        17           S   tau(  17) = (   0.0000530   0.2887092   0.1242638  )
        18           S   tau(  18) = (  -0.1316249   0.3573130   0.6109420  )
        19           Mo  tau(  19) = (  -0.1257401   0.6504248   0.4820927  )
        20           Mo  tau(  20) = (  -0.1250002   0.5051824  -0.4825273  )
        21           Mo  tau(  21) = (  -0.2499958   0.5773353  -0.0001714  )
        22           S   tau(  22) = (  -0.2500002   0.4330136  -0.6064556  )
        23           S   tau(  23) = (  -0.1249719   0.5051311  -0.1241932  )
        24           S   tau(  24) = (  -0.2500164   0.5770675   0.3576049  )
        25           S   tau(  25) = (  -0.2500001   0.4330135  -0.3584711  )
        26           S   tau(  26) = (  -0.1250100   0.5052346   0.1241515  )
        27           S   tau(  27) = (  -0.2503695   0.5776584   0.6061514  )
        28           Mo  tau(  28) = (   0.2502170  -0.0003953   0.4806411  )
        29           Mo  tau(  29) = (  -0.2500004   0.7216889  -0.4825273  )
        30           Mo  tau(  30) = (  -0.3749978   0.7938641  -0.0002041  )
        31           S   tau(  31) = (  -0.3750004   0.6495201  -0.6064556  )
        32           S   tau(  32) = (  -0.2499890   0.7216755  -0.1242803  )
        33           S   tau(  33) = (  -0.3749740   0.7932749   0.3566586  )
        34           S   tau(  34) = (  -0.3750004   0.6495200  -0.3584711  )
        35           S   tau(  35) = (  -0.2500089   0.7216778   0.1239952  )
        36           S   tau(  36) = (  -0.3749998   0.7939174   0.6051309  )
        37           Mo  tau(  37) = (   0.3753608   0.2157704   0.4822604  )
        38           Mo  tau(  38) = (   0.3750004   0.0721694  -0.4825273  )
        39           Mo  tau(  39) = (   0.2499960   0.1443611  -0.0001003  )
        40           S   tau(  40) = (   0.2500004   0.0000006  -0.6064556  )
        41           S   tau(  41) = (   0.3750017   0.0721909  -0.1242276  )
        42           S   tau(  42) = (   0.2507085   0.1439928   0.3565793  )
        43           S   tau(  43) = (   0.2500004   0.0000005  -0.3584711  )
        44           S   tau(  44) = (   0.3750105   0.0721153   0.1240138  )
        45           S   tau(  45) = (   0.2503040   0.1425185   0.6055897  )
        46           Mo  tau(  46) = (   0.2508295   0.4328457   0.4866827  )
        47           Mo  tau(  47) = (   0.2500001   0.2886759  -0.4825273  )
        48           Mo  tau(  48) = (   0.1249947   0.3608692  -0.0000343  )
        49           S   tau(  49) = (   0.1250001   0.2165071  -0.6064556  )
        50           S   tau(  50) = (   0.2499709   0.2887106  -0.1241515  )
        51           S   tau(  51) = (   0.1248475   0.3620695   0.3632119  )
        52           S   tau(  52) = (   0.1250002   0.2165070  -0.3584711  )
        53           S   tau(  53) = (   0.2499461   0.2887051   0.1242364  )
        54           S   tau(  54) = (   0.1248217   0.3502704   0.6102012  )
        55           Mo  tau(  55) = (   0.1249300   0.6515066   0.4828014  )
        56           Mo  tau(  56) = (   0.1249998   0.5051824  -0.4825273  )
        57           Mo  tau(  57) = (   0.0000129   0.5773133  -0.0000993  )
        58           S   tau(  58) = (  -0.0000002   0.4330136  -0.6064556  )
        59           S   tau(  59) = (   0.1250046   0.5051576  -0.1241791  )
        60           S   tau(  60) = (   0.0000991   0.5758547   0.3610070  )
        61           S   tau(  61) = (  -0.0000001   0.4330135  -0.3584711  )
        62           S   tau(  62) = (   0.1249978   0.5051967   0.1242137  )
        63           S   tau(  63) = (  -0.0004561   0.5855879   0.6099183  )
        64           Mo  tau(  64) = (   0.4999896   0.0002543   0.4809432  )
        65           Mo  tau(  65) = (  -0.0000004   0.7216889  -0.4825273  )
        66           Mo  tau(  66) = (  -0.1249822   0.7938260  -0.0001787  )
        67           S   tau(  67) = (  -0.1250004   0.6495201  -0.6064556  )
        68           S   tau(  68) = (   0.0000560   0.7216541  -0.1241922  )
        69           S   tau(  69) = (  -0.1247643   0.7934174   0.3566857  )
        70           S   tau(  70) = (  -0.1250004   0.6495200  -0.3584711  )
        71           S   tau(  71) = (  -0.0000442   0.7215876   0.1241439  )
        72           S   tau(  72) = (  -0.1253483   0.7949346   0.6057201  )
        73           Mo  tau(  73) = (   0.6249017   0.2165129   0.4812697  )
        74           Mo  tau(  74) = (   0.6250004   0.0721694  -0.4825273  )
        75           Mo  tau(  75) = (   0.4999952   0.1443533  -0.0001098  )
        76           S   tau(  76) = (   0.5000004   0.0000006  -0.6064556  )
        77           S   tau(  77) = (   0.6250318   0.0721540  -0.1241362  )
        78           S   tau(  78) = (   0.4996954   0.1447446   0.3570727  )
        79           S   tau(  79) = (   0.5000004   0.0000005  -0.3584711  )
        80           S   tau(  80) = (   0.6249569   0.0721720   0.1241430  )
        81           S   tau(  81) = (   0.5006050   0.1436236   0.6059489  )
        82           Mo  tau(  82) = (   0.5006857   0.4329470   0.4824369  )
        83           Mo  tau(  83) = (   0.5000001   0.2886759  -0.4825273  )
        84           Mo  tau(  84) = (   0.3749597   0.3608609  -0.0000517  )
        85           S   tau(  85) = (   0.3750001   0.2165071  -0.6064556  )
        86           S   tau(  86) = (   0.4999928   0.2887170  -0.1241435  )
        87           S   tau(  87) = (   0.3733222   0.3618437   0.3607838  )
        88           S   tau(  88) = (   0.3750002   0.2165070  -0.3584711  )
        89           S   tau(  89) = (   0.4999211   0.2887076   0.1241935  )
        90           S   tau(  90) = (   0.3816191   0.3573238   0.6109900  )
        91           Mo  tau(  91) = (   0.3756235   0.6503811   0.4821918  )
        92           Mo  tau(  92) = (   0.3749998   0.5051824  -0.4825273  )
        93           Mo  tau(  93) = (   0.2499864   0.5773188  -0.0000834  )
        94           S   tau(  94) = (   0.2499998   0.4330136  -0.6064556  )
        95           S   tau(  95) = (   0.3749642   0.5051523  -0.1241979  )
        96           S   tau(  96) = (   0.2498138   0.5757592   0.3610614  )
        97           S   tau(  97) = (   0.2499999   0.4330135  -0.3584711  )
        98           S   tau(  98) = (   0.3750061   0.5052047   0.1241511  )
        99           S   tau(  99) = (   0.2502814   0.5855194   0.6099661  )
       100           Mo  tau( 100) = (   0.7499287   0.0002139   0.4807633  )
       101           Mo  tau( 101) = (   0.2499996   0.7216889  -0.4825273  )
       102           Mo  tau( 102) = (   0.1249938   0.7938245  -0.0000338  )
       103           S   tau( 103) = (   0.1249996   0.6495201  -0.6064556  )
       104           S   tau( 104) = (   0.2499613   0.7216724  -0.1241590  )
       105           S   tau( 105) = (   0.1248898   0.7937393   0.3567607  )
       106           S   tau( 106) = (   0.1249996   0.6495200  -0.3584711  )
       107           S   tau( 107) = (   0.2500082   0.7215902   0.1241792  )
       108           S   tau( 108) = (   0.1250505   0.7963098   0.6059971  )
       109           Mo  tau( 109) = (  -0.1255078   0.2157673   0.4820262  )
       110           Mo  tau( 110) = (   0.8750004   0.0721694  -0.4825273  )
       111           Mo  tau( 111) = (   0.7499955   0.1443569  -0.0000274  )
       112           S   tau( 112) = (   0.7500004   0.0000006  -0.6064556  )
       113           S   tau( 113) = (   0.8749777   0.0721989  -0.1241465  )
       114           S   tau( 114) = (   0.7500467   0.1447298   0.3568874  )
       115           S   tau( 115) = (   0.7500004   0.0000005  -0.3584711  )
       116           S   tau( 116) = (   0.8749903   0.0721117   0.1240970  )
       117           S   tau( 117) = (   0.7493677   0.1435906   0.6057073  )
       118           Mo  tau( 118) = (  -0.2508787   0.4328922   0.4823938  )
       119           Mo  tau( 119) = (   0.7500001   0.2886759  -0.4825273  )
       120           Mo  tau( 120) = (   0.6249968   0.3608571  -0.0000279  )
       121           S   tau( 121) = (   0.6250001   0.2165071  -0.6064556  )
       122           S   tau( 122) = (   0.7500208   0.2886896  -0.1240956  )
       123           S   tau( 123) = (   0.6248005   0.3612471   0.3574315  )
       124           S   tau( 124) = (   0.6250002   0.2165070  -0.3584711  )
       125           S   tau( 125) = (   0.7500493   0.2887427   0.1242427  )
       126           S   tau( 126) = (   0.6249033   0.3601959   0.6065890  )
       127           Mo  tau( 127) = (  -0.3750379   0.6494479   0.4815491  )
       128           Mo  tau( 128) = (   0.6249998   0.5051824  -0.4825273  )
       129           Mo  tau( 129) = (   0.4999893   0.5773309  -0.0001634  )
       130           S   tau( 130) = (   0.4999998   0.4330136  -0.6064556  )
       131           S   tau( 131) = (   0.6249961   0.5051217  -0.1242214  )
       132           S   tau( 132) = (   0.4998255   0.5770883   0.3576879  )
       133           S   tau( 133) = (   0.4999999   0.4330135  -0.3584711  )
       134           S   tau( 134) = (   0.6249981   0.5052504   0.1240736  )
       135           S   tau( 135) = (   0.5003122   0.5776902   0.6062470  )
       136           Mo  tau( 136) = (  -0.0002805  -0.0004824   0.4806096  )
       137           Mo  tau( 137) = (   0.4999996   0.7216889  -0.4825273  )
       138           Mo  tau( 138) = (   0.3749756   0.7938309  -0.0001159  )
       139           S   tau( 139) = (   0.3749996   0.6495201  -0.6064556  )
       140           S   tau( 140) = (   0.4999628   0.7216864  -0.1242513  )
       141           S   tau( 141) = (   0.3747357   0.7932164   0.3566619  )
       142           S   tau( 142) = (   0.3749996   0.6495200  -0.3584711  )
       143           S   tau( 143) = (   0.5000348   0.7216656   0.1240143  )
       144           S   tau( 144) = (   0.3751928   0.7949639   0.6056664  )
       145           Pd  tau( 145) = (   0.2448410   0.4348549   0.7173028  )
       146           Pd  tau( 146) = (   0.0055759   0.4353384   0.7172832  )
       147           Pd  tau( 147) = (   0.1248482   0.2131535   0.7259955  )

     --------------------------------------------
     DFT-D3 Dispersion Correction (3-body terms):
     --------------------------------------------
       Reference C6 values for interpolation: 

         atom   Coordination number   C6
         S          0.000           268.01
         S          0.995           261.99
         S          1.990           251.62
         Mo         0.000          1691.79
         Mo         1.942          1004.01
         Mo        11.056           674.22
         Pd         0.000          1217.01
         Pd         1.863           573.90
         Pd         5.710           531.75

       Values used:

         atom   Coordination number  R0_AB[au]  C6      C8
         Mo        10.668            3.547    674.22  77634.20
         Mo        10.189            3.547    674.22  77634.20
         Mo        10.201            3.547    674.22  77634.20
         S          3.753            3.128    251.62  12327.25
         S          3.858            3.128    251.62  12327.25
         S          3.844            3.128    251.62  12327.25
         S          3.859            3.128    251.62  12327.25
         S          3.863            3.128    251.62  12327.25
         S          4.762            3.128    251.62  12327.25
         Mo        10.777            3.547    674.22  77634.20
         Mo        10.189            3.547    674.22  77634.20
         Mo        10.202            3.547    674.22  77634.20
         S          3.753            3.128    251.62  12327.25
         S          3.859            3.128    251.62  12327.25
         S          3.854            3.128    251.62  12327.25
         S          3.858            3.128    251.62  12327.25
         S          3.851            3.128    251.62  12327.25
         S          4.647            3.128    251.62  12327.25
         Mo        10.197            3.547    674.22  77634.20
         Mo        10.189            3.547    674.22  77634.20
         Mo        10.201            3.547    674.22  77634.20
         S          3.753            3.128    251.62  12327.25
         S          3.859            3.128    251.62  12327.25
         S          3.862            3.128    251.62  12327.25
         S          3.859            3.128    251.62  12327.25
         S          3.855            3.128    251.62  12327.25
         S          3.758            3.128    251.62  12327.25
         Mo        10.256            3.547    674.22  77634.20
         Mo        10.189            3.547    674.22  77634.20
         Mo        10.200            3.547    674.22  77634.20
         S          3.753            3.128    251.62  12327.25
         S          3.858            3.128    251.62  12327.25
         S          3.860            3.128    251.62  12327.25
         S          3.859            3.128    251.62  12327.25
         S          3.864            3.128    251.62  12327.25
         S          3.787            3.128    251.62  12327.25
         Mo        10.209            3.547    674.22  77634.20
         Mo        10.189            3.547    674.22  77634.20
         Mo        10.201            3.547    674.22  77634.20
         S          3.753            3.128    251.62  12327.25
         S          3.858            3.128    251.62  12327.25
         S          3.846            3.128    251.62  12327.25
         S          3.859            3.128    251.62  12327.25
         S          3.864            3.128    251.62  12327.25
         S          4.760            3.128    251.62  12327.25
         Mo        10.775            3.547    674.22  77634.20
         Mo        10.189            3.547    674.22  77634.20
         Mo        10.203            3.547    674.22  77634.20
         S          3.753            3.128    251.62  12327.25
         S          3.859            3.128    251.62  12327.25
         S          3.877            3.128    251.62  12327.25
         S          3.859            3.128    251.62  12327.25
         S          3.852            3.128    251.62  12327.25
         S          6.580            3.128    251.62  12327.25
         Mo        10.160            3.547    674.22  77634.20
         Mo        10.189            3.547    674.22  77634.20
         Mo        10.203            3.547    674.22  77634.20
         S          3.753            3.128    251.62  12327.25
         S          3.859            3.128    251.62  12327.25
         S          3.866            3.128    251.62  12327.25
         S          3.859            3.128    251.62  12327.25
         S          3.849            3.128    251.62  12327.25
         S          4.660            3.128    251.62  12327.25
         Mo        10.243            3.547    674.22  77634.20
         Mo        10.189            3.547    674.22  77634.20
         Mo        10.200            3.547    674.22  77634.20
         S          3.753            3.128    251.62  12327.25
         S          3.858            3.128    251.62  12327.25
         S          3.855            3.128    251.62  12327.25
         S          3.859            3.128    251.62  12327.25
         S          3.859            3.128    251.62  12327.25
         S          3.804            3.128    251.62  12327.25
         Mo        10.229            3.547    674.22  77634.20
         Mo        10.189            3.547    674.22  77634.20
         Mo        10.200            3.547    674.22  77634.20
         S          3.753            3.128    251.62  12327.25
         S          3.858            3.128    251.62  12327.25
         S          3.852            3.128    251.62  12327.25
         S          3.859            3.128    251.62  12327.25
         S          3.861            3.128    251.62  12327.25
         S          3.808            3.128    251.62  12327.25
         Mo        10.207            3.547    674.22  77634.20
         Mo        10.189            3.547    674.22  77634.20
         Mo        10.202            3.547    674.22  77634.20
         S          3.753            3.128    251.62  12327.25
         S          3.858            3.128    251.62  12327.25
         S          3.856            3.128    251.62  12327.25
         S          3.859            3.128    251.62  12327.25
         S          3.856            3.128    251.62  12327.25
         S          4.650            3.128    251.62  12327.25
         Mo        10.197            3.547    674.22  77634.20
         Mo        10.189            3.547    674.22  77634.20
         Mo        10.203            3.547    674.22  77634.20
         S          3.753            3.128    251.62  12327.25
         S          3.859            3.128    251.62  12327.25
         S          3.867            3.128    251.62  12327.25
         S          3.859            3.128    251.62  12327.25
         S          3.855            3.128    251.62  12327.25
         S          4.658            3.128    251.62  12327.25
         Mo        10.242            3.547    674.22  77634.20
         Mo        10.189            3.547    674.22  77634.20
         Mo        10.201            3.547    674.22  77634.20
         S          3.753            3.128    251.62  12327.25
         S          3.859            3.128    251.62  12327.25
         S          3.844            3.128    251.62  12327.25
         S          3.859            3.128    251.62  12327.25
         S          3.858            3.128    251.62  12327.25
         S          3.832            3.128    251.62  12327.25
         Mo        10.209            3.547    674.21  77634.20
         Mo        10.189            3.547    674.22  77634.20
         Mo        10.200            3.547    674.22  77634.20
         S          3.753            3.128    251.62  12327.25
         S          3.859            3.128    251.62  12327.25
         S          3.851            3.128    251.62  12327.25
         S          3.859            3.128    251.62  12327.25
         S          3.863            3.128    251.62  12327.25
         S          3.810            3.128    251.62  12327.25
         Mo        10.207            3.547    674.22  77634.20
         Mo        10.189            3.547    674.22  77634.20
         Mo        10.201            3.547    674.22  77634.20
         S          3.753            3.128    251.62  12327.25
         S          3.859            3.128    251.62  12327.25
         S          3.847            3.128    251.62  12327.25
         S          3.858            3.128    251.62  12327.25
         S          3.856            3.128    251.62  12327.25
         S          3.821            3.128    251.62  12327.25
         Mo        10.224            3.547    674.22  77634.20
         Mo        10.189            3.547    674.22  77634.20
         Mo        10.201            3.547    674.22  77634.20
         S          3.753            3.128    251.62  12327.25
         S          3.859            3.128    251.62  12327.25
         S          3.864            3.128    251.62  12327.25
         S          3.859            3.128    251.62  12327.25
         S          3.861            3.128    251.62  12327.25
         S          3.758            3.128    251.62  12327.25
         Mo        10.256            3.547    674.21  77634.20
         Mo        10.189            3.547    674.22  77634.20
         Mo        10.200            3.547    674.22  77634.20
         S          3.753            3.128    251.62  12327.25
         S          3.858            3.128    251.62  12327.25
         S          3.854            3.128    251.62  12327.25
         S          3.859            3.128    251.62  12327.25
         S          3.864            3.128    251.62  12327.25
         S          3.805            3.128    251.62  12327.25
         Pd         4.215            3.168    531.75  48720.74
         Pd         4.213            3.168    531.75  48720.74
         Pd         3.833            3.168    539.46  49427.07

         Molecular C6 ( Ry / a.u.^6 ) =   8045451.03


     number of k points=     4  Gaussian smearing, width (Ry)=  0.0100
                       cart. coord. in units 2pi/alat
        k(    1) = (   0.0000000   0.0000000   0.0000000), wk =   0.5000000
        k(    2) = (   0.0000000  -0.5773499   0.0000000), wk =   0.5000000
        k(    3) = (  -0.5000000  -0.2886755   0.0000000), wk =   0.5000000
        k(    4) = (  -0.5000000  -0.8660254   0.0000000), wk =   0.5000000

     Dense  grid:  5955087 G-vectors     FFT dimensions: ( 180, 180, 432)

     Smooth grid:  2572543 G-vectors     FFT dimensions: ( 135, 135, 320)

     Estimated max dynamical RAM per process >       2.14 GB

     Estimated total dynamical RAM >      77.21 GB

     Initial potential from superposition of free atoms

     starting charge    1301.9534, renormalised to    1302.0000

     negative rho (up, down):  1.179E-03 0.000E+00
     Starting wfcs are  894 randomized atomic wfcs
     Checking if some PAW data can be deallocated... 

     total cpu time spent up to now is      107.3 secs

     Self-consistent Calculation

     iteration #  1     ecut=    77.00 Ry     beta= 0.20
     Davidson diagonalization with overlap
     ethr =  1.00E-02,  avg # of iterations =  2.0

     Threshold (ethr) on eigenvalues was too large:
     Diagonalizing with lowered threshold

     Davidson diagonalization with overlap
     ethr =  2.63E-04,  avg # of iterations = 15.8

     negative rho (up, down):  3.834E-04 0.000E+00

     total cpu time spent up to now is     1091.0 secs

     total energy              =  -25380.77280232 Ry
     estimated scf accuracy    <       4.86515694 Ry

     iteration #  2     ecut=    77.00 Ry     beta= 0.20
     Davidson diagonalization with overlap
     ethr =  3.74E-04,  avg # of iterations =  8.0

     negative rho (up, down):  1.190E-04 0.000E+00

     total cpu time spent up to now is     1339.3 secs

     total energy              =  -25380.39833773 Ry
     estimated scf accuracy    <       2.31069009 Ry

     iteration #  3     ecut=    77.00 Ry     beta= 0.20
     Davidson diagonalization with overlap
     ethr =  1.77E-04,  avg # of iterations =  9.5

     negative rho (up, down):  3.339E-05 0.000E+00

     total cpu time spent up to now is     1597.9 secs

     total energy              =  -25380.12086078 Ry
     estimated scf accuracy    <       1.25174513 Ry

     iteration #  4     ecut=    77.00 Ry     beta= 0.20
     Davidson diagonalization with overlap
     c_bands:  2 eigenvalues not converged
     c_bands:  1 eigenvalues not converged
     c_bands:  1 eigenvalues not converged
     ethr =  9.61E-05,  avg # of iterations = 19.8

     negative rho (up, down):  3.828E-05 0.000E+00

     total cpu time spent up to now is     2061.7 secs

     total energy              =  -25380.66471402 Ry
     estimated scf accuracy    <       0.61754991 Ry

     iteration #  5     ecut=    77.00 Ry     beta= 0.20
     Davidson diagonalization with overlap
     ethr =  4.74E-05,  avg # of iterations = 19.0

     negative rho (up, down):  4.170E-05 0.000E+00

     total cpu time spent up to now is     2461.7 secs

     total energy              =  -25380.87312225 Ry
     estimated scf accuracy    <       0.14345536 Ry

     iteration #  6     ecut=    77.00 Ry     beta= 0.20
     Davidson diagonalization with overlap
     c_bands:  2 eigenvalues not converged
     c_bands:  3 eigenvalues not converged
     c_bands:  4 eigenvalues not converged
     ethr =  1.10E-05,  avg # of iterations = 55.5

     negative rho (up, down):  6.757E-05 0.000E+00

     total cpu time spent up to now is     3690.9 secs

     total energy              =  -25381.07581778 Ry
     estimated scf accuracy    <       0.11016022 Ry

     iteration #  7     ecut=    77.00 Ry     beta= 0.20
     Davidson diagonalization with overlap
     c_bands:  3 eigenvalues not converged
     c_bands:  5 eigenvalues not converged
     ethr =  8.46E-06,  avg # of iterations = 13.5

     negative rho (up, down):  2.948E-04 0.000E+00

     total cpu time spent up to now is     3961.2 secs

     total energy              =  -25381.05072102 Ry
     estimated scf accuracy    <       0.08060765 Ry

     iteration #  8     ecut=    77.00 Ry     beta= 0.20
     Davidson diagonalization with overlap
     c_bands:  1 eigenvalues not converged
     c_bands:  1 eigenvalues not converged
     c_bands:  1 eigenvalues not converged
     ethr =  6.19E-06,  avg # of iterations = 23.5

     negative rho (up, down):  9.642E-04 0.000E+00

     total cpu time spent up to now is     4348.2 secs

     total energy              =  -25381.06845029 Ry
     estimated scf accuracy    <       0.02562372 Ry

     iteration #  9     ecut=    77.00 Ry     beta= 0.20
     Davidson diagonalization with overlap
     c_bands:  3 eigenvalues not converged
     c_bands:  3 eigenvalues not converged
     c_bands:  5 eigenvalues not converged
     c_bands:  4 eigenvalues not converged
     ethr =  1.97E-06,  avg # of iterations = 50.0

     negative rho (up, down):  6.356E-04 0.000E+00

     total cpu time spent up to now is     5412.5 secs

     total energy              =  -25381.07862211 Ry
     estimated scf accuracy    <       0.04957256 Ry

     iteration # 10     ecut=    77.00 Ry     beta= 0.20
     Davidson diagonalization with overlap
     c_bands:  2 eigenvalues not converged
     c_bands:  1 eigenvalues not converged
     c_bands:  1 eigenvalues not converged
     c_bands:  5 eigenvalues not converged
     ethr =  1.97E-06,  avg # of iterations = 30.0

     negative rho (up, down):  5.424E-04 0.000E+00

     total cpu time spent up to now is     5856.3 secs

     total energy              =  -25381.07954621 Ry
     estimated scf accuracy    <       0.00782516 Ry

     iteration # 11     ecut=    77.00 Ry     beta= 0.20
     Davidson diagonalization with overlap
     c_bands:  5 eigenvalues not converged
     ethr =  6.01E-07,  avg # of iterations = 16.0

     negative rho (up, down):  6.778E-04 0.000E+00

     total cpu time spent up to now is     6454.6 secs

     total energy              =  -25381.08858206 Ry
     estimated scf accuracy    <       0.00572463 Ry

     iteration # 12     ecut=    77.00 Ry     beta= 0.20
     Davidson diagonalization with overlap
     c_bands:  4 eigenvalues not converged
     ethr =  4.40E-07,  avg # of iterations = 11.5

     negative rho (up, down):  8.723E-04 0.000E+00

     total cpu time spent up to now is     6761.2 secs

     total energy              =  -25381.08797108 Ry
     estimated scf accuracy    <       0.00157457 Ry

     iteration # 13     ecut=    77.00 Ry     beta= 0.20
     Davidson diagonalization with overlap
     ethr =  1.21E-07,  avg # of iterations = 13.0

     negative rho (up, down):  8.980E-04 0.000E+00

     total cpu time spent up to now is     7352.8 secs

     total energy              =  -25381.08975553 Ry
     estimated scf accuracy    <       0.00086162 Ry

     iteration # 14     ecut=    77.00 Ry     beta= 0.20
     Davidson diagonalization with overlap
     ethr =  6.62E-08,  avg # of iterations =  8.5

     negative rho (up, down):  8.916E-04 0.000E+00

     total cpu time spent up to now is     7641.6 secs

     total energy              =  -25381.08949835 Ry
     estimated scf accuracy    <       0.00063488 Ry

     iteration # 15     ecut=    77.00 Ry     beta= 0.20
     Davidson diagonalization with overlap
     ethr =  4.88E-08,  avg # of iterations = 10.5

     negative rho (up, down):  9.594E-04 0.000E+00

     total cpu time spent up to now is     8001.7 secs

     total energy              =  -25381.08971212 Ry
     estimated scf accuracy    <       0.00004943 Ry

     iteration # 16     ecut=    77.00 Ry     beta= 0.20
     Davidson diagonalization with overlap
     c_bands:  1 eigenvalues not converged
     c_bands:  5 eigenvalues not converged
     ethr =  3.80E-09,  avg # of iterations = 20.2

     negative rho (up, down):  1.005E-03 0.000E+00

     total cpu time spent up to now is     9329.5 secs

     total energy              =  -25381.08983710 Ry
     estimated scf accuracy    <       0.00017116 Ry

     iteration # 17     ecut=    77.00 Ry     beta= 0.20
     Davidson diagonalization with overlap
     ethr =  3.80E-09,  avg # of iterations = 11.0

     negative rho (up, down):  1.012E-03 0.000E+00

     total cpu time spent up to now is     9866.5 secs

     total energy              =  -25381.08990170 Ry
     estimated scf accuracy    <       0.00002566 Ry

     iteration # 18     ecut=    77.00 Ry     beta= 0.20
     Davidson diagonalization with overlap
     ethr =  1.97E-09,  avg # of iterations =  3.8

     negative rho (up, down):  1.023E-03 0.000E+00

     total cpu time spent up to now is    10106.1 secs

     total energy              =  -25381.08990023 Ry
     estimated scf accuracy    <       0.00001235 Ry

     iteration # 19     ecut=    77.00 Ry     beta= 0.20
     Davidson diagonalization with overlap
     ethr =  9.48E-10,  avg # of iterations = 14.2

     negative rho (up, down):  1.013E-03 0.000E+00

     total cpu time spent up to now is    10454.1 secs

     total energy              =  -25381.08989596 Ry
     estimated scf accuracy    <       0.00001684 Ry

     iteration # 20     ecut=    77.00 Ry     beta= 0.20
     Davidson diagonalization with overlap
     c_bands:  3 eigenvalues not converged
     ethr =  9.48E-10,  avg # of iterations = 11.2

     negative rho (up, down):  1.017E-03 0.000E+00

     total cpu time spent up to now is    10748.9 secs

     End of self-consistent calculation

          k = 0.0000 0.0000 0.0000 (321495 PWs)   bands (ev):

   -88.7317 -88.7271 -88.5687 -66.6640 -66.6429 -66.6429 -66.6429 -66.6429
   -66.6429 -66.6429 -66.6217 -66.6217 -66.6217 -66.6217 -66.6217 -66.6217
   -66.6217 -66.6217 -66.6217 -66.5979 -66.5771 -66.5771 -66.5769 -66.5767
   -66.5764 -66.5764 -66.5561 -66.5561 -66.5559 -66.5558 -66.5557 -66.5555
   -66.5553 -66.5552 -66.5548 -66.5196 -66.5099 -66.5009 -66.4983 -66.4938
   -66.4870 -66.4832 -66.4756 -66.4750 -66.4736 -66.4691 -66.4652 -66.4607
   -66.4593 -66.4567 -66.4481 -54.6158 -54.5904 -54.5048 -54.4978 -54.4738
   -54.4612 -54.4502 -54.3315 -54.3111 -40.9903 -40.9903 -40.9903 -40.9231
   -40.9230 -40.9230 -40.9155 -40.9155 -40.9155 -40.9155 -40.9155 -40.9155
   -40.8485 -40.8484 -40.8484 -40.8482 -40.8481 -40.8481 -40.8376 -40.8369
   -40.8335 -40.8242 -40.7900 -40.7900 -40.7900 -40.7900 -40.7900 -40.7900
   -40.7828 -40.7828 -40.7828 -40.7828 -40.7828 -40.7828 -40.7677 -40.7656
   -40.7585 -40.7582 -40.7564 -40.7551 -40.7551 -40.7551 -40.7551 -40.7551
   -40.7551 -40.7507 -40.7497 -40.7411 -40.7411 -40.7411 -40.7411 -40.7411
   -40.7411 -40.7410 -40.7410 -40.7410 -40.7231 -40.7230 -40.7230 -40.7227
   -40.7227 -40.7227 -40.7175 -40.7175 -40.7173 -40.7171 -40.7169 -40.7168
   -40.6972 -40.6883 -40.6882 -40.6882 -40.6880 -40.6879 -40.6878 -40.6773
   -40.6773 -40.6773 -40.6761 -40.6759 -40.6758 -40.6757 -40.6756 -40.6754
   -40.6753 -40.6752 -40.6748 -40.6688 -40.6650 -40.6534 -40.6515 -40.6433
   -40.6428 -40.6406 -40.6392 -40.6383 -40.6315 -40.6305 -40.6305 -40.6305
   -40.6305 -40.6305 -40.6305 -40.6277 -40.6183 -40.6179 -40.6129 -40.6104
   -40.6103 -40.6103 -40.6091 -40.6068 -40.6064 -40.6057 -40.6041 -40.5994
   -40.5971 -40.5969 -40.5948 -40.5946 -40.5903 -40.5890 -40.5844 -40.5832
   -40.5832 -40.5638 -40.5637 -40.5637 -40.5634 -40.5634 -40.5633 -40.5221
   -40.5216 -40.5200 -40.5163 -40.5163 -40.4772 -40.4757 -40.4729 -40.4689
   -40.4681 -40.4645 -40.4230 -40.4215 -20.1903 -20.0802 -19.9218 -19.6537
   -19.2589 -19.2396 -19.2311 -19.2310 -19.2286 -19.2232 -19.2037 -19.1822
   -19.1417 -19.1389 -19.1151 -19.0810 -19.0602 -19.0528 -19.0327 -19.0290
   -18.9896 -18.8593 -18.7660 -18.6808 -18.4980 -18.4852 -18.4827 -18.4609
   -18.4597 -18.4329 -18.4175 -18.3533 -18.3473 -18.3374 -18.3361 -18.3016
   -18.2861 -18.2774 -18.1959 -18.1910 -18.1837 -18.1834 -18.1713 -18.1383
   -18.1237 -18.1236 -18.1231 -18.1231 -18.1230 -18.1229 -18.0832 -18.0832
   -18.0831 -18.0732 -18.0594 -18.0470 -18.0449 -18.0388 -18.0372 -18.0350
   -18.0345 -18.0108 -18.0077 -18.0073 -17.9758 -17.9743 -17.9479 -17.9476
   -17.9422 -17.9301 -17.9258 -17.9257 -17.9197 -17.9048 -17.9030 -17.9015
   -17.8971 -17.8952 -17.8735 -17.8658 -17.8644 -17.8504 -17.8416 -17.8314
   -17.8302 -17.8296 -17.8277 -17.8027 -17.7977 -17.7949 -17.7747 -17.7579
   -17.7522 -17.7512 -17.7426 -17.7421 -12.0784 -12.0234 -11.9752 -11.8111
   -11.7389 -11.7374 -11.7371 -11.7194 -11.6540 -11.6535 -11.6456 -11.4170
   -11.3652 -11.3189 -11.2417 -11.2071 -11.1899 -11.1893 -11.1877 -11.1608
   -11.1571 -11.1438 -11.1134 -11.1127 -11.1081 -11.1073 -11.0981 -11.0870
   -11.0856 -11.0235 -11.0138 -10.9759 -10.9718 -10.9674 -10.9606 -10.9521
   -10.9453 -10.9335 -10.9280 -10.9048 -10.9038 -10.8970 -10.8698 -10.8575
   -10.8501 -10.8483 -10.8210 -10.8199 -10.8155 -10.8141 -10.8135 -10.8126
   -10.8063 -10.8001 -10.7884 -10.7853 -10.7849 -10.7783 -10.7705 -10.7677
   -10.7643 -10.7643 -10.7604 -10.7477 -10.7472 -10.7256 -10.7036 -10.6872
   -10.6846 -10.6515 -10.6286 -10.6212 -10.6030 -10.5904 -10.5889 -10.5081
   -10.3009 -10.2133 -10.0514 -10.0341 -10.0317 -10.0305  -9.9950  -9.9926
    -9.8846  -9.8590  -9.8558  -9.8265  -9.7669  -9.7636  -9.7631  -9.7484
    -9.7481  -9.7332  -9.7186  -9.6880  -9.6852  -9.6830  -9.6787  -9.6700
    -9.6366  -9.6341  -9.6199  -9.6108  -9.6032  -9.5998  -9.5996  -9.5969
    -9.5938  -9.5759  -9.5621  -9.5584  -9.5584  -9.5561  -9.5538  -9.5534
    -9.5526  -9.5275  -9.5270  -9.5050  -9.4658  -9.4485  -9.4279  -9.4265
    -9.4191  -9.4180  -9.3814  -9.3721  -9.3423  -9.3395  -9.3249  -9.3207
    -9.3118  -9.2925  -9.2646  -9.2607  -9.2539  -9.2408  -9.2257  -9.2155
    -9.1919  -9.1860  -9.1835  -9.1644  -9.1298  -9.1270  -9.0826  -9.0650
    -9.0319  -9.0095  -9.0062  -9.0029  -9.0020  -9.0018  -8.9999  -8.9946
    -8.9517  -8.9400  -8.9249  -8.9240  -8.9191  -8.8745  -8.8637  -8.8495
    -8.8492  -8.8049  -8.8038  -8.7907  -8.7857  -8.7806  -8.7791  -8.7726
    -8.7714  -8.7532  -8.7488  -8.7416  -8.7275  -8.7189  -8.7160  -8.7140
    -8.7042  -8.6979  -8.6868  -8.6234  -8.5477  -8.5117  -8.4131  -8.4130
    -8.3539  -8.3404  -8.3404  -8.3321  -8.3205  -8.3039  -8.3010  -8.3009
    -8.3009  -8.3006  -8.3005  -8.2965  -8.2670  -8.2589  -8.2307  -8.2248
    -8.2242  -8.2232  -8.2230  -8.2217  -8.1788  -8.1298  -8.1093  -8.0742
    -7.9322  -7.9296  -7.9131  -7.9079  -7.9075  -7.8227  -7.6889  -7.6689
    -7.6600  -7.6466  -7.6426  -7.5676  -7.5657  -7.5655  -7.5654  -7.5654
    -7.5650  -7.5643  -7.5198  -7.5195  -7.5192  -7.5191  -7.5187  -7.5185
    -7.5181  -7.5055  -7.4979  -7.4976  -7.4942  -7.4874  -7.4867  -7.4829
    -7.4769  -7.4730  -7.4675  -7.4570  -7.4506  -7.4432  -7.4430  -7.4417
    -7.4385  -7.4352  -7.4259  -7.4186  -7.4015  -7.4011  -7.3961  -7.3943
    -7.3869  -7.2974  -7.2937  -7.2907  -7.2842  -7.2842  -7.2400  -7.2299
    -7.2155  -7.2151  -7.2013  -7.1973  -7.1941  -7.1897  -7.1091  -7.0542
    -7.0354  -6.9994  -6.9815  -6.9564  -6.9469  -6.9055  -6.8974  -6.8636
    -6.8217  -6.7793  -6.7790  -6.7780  -6.6981  -6.6697  -6.6581  -6.6505
    -6.6477  -6.6399  -6.6231  -6.6198  -6.6140  -6.6028  -6.5967  -6.5673
    -6.5443  -6.5414  -6.5241  -6.5210  -6.5143  -6.4999  -6.4983  -6.4851
    -6.4673  -6.4658  -6.4643  -6.4510  -6.4436  -6.4366  -6.4077  -6.4075
    -6.4003  -6.3754  -6.3749  -6.3698  -6.3336  -6.3322  -6.3322  -6.3322
    -6.3322  -6.3322  -6.3318  -6.3163  -6.3055  -6.2613  -6.2587  -6.2553
    -6.2542  -6.2529  -6.2521  -6.2495  -6.2392  -6.2257  -6.2007  -6.1748
    -6.0513  -5.9936  -5.9678  -5.8066  -5.7036  -5.5194  -5.4645  -5.4623
    -5.3087  -5.2441  -5.0971  -3.9562  -3.8724  -3.8351  -3.8157  -3.8146
    -3.8126  -3.7921  -3.7881  -3.7880  -3.7836  -3.7827  -3.7795  -3.7426
    -3.6841  -3.6434  -3.5807  -3.5803  -3.5751  -3.5682  -3.5643  -3.5640
    -3.5478  -3.5472  -3.5451  -3.4728  -3.4727  -3.4725  -3.4564  -3.4549
    -3.4547  -3.4535  -3.4534  -3.4525  -3.4060  -3.4052  -3.4051  -3.4050
    -3.3874  -3.3779  -3.3689  -3.3599  -3.3592  -3.3537  -3.3500  -3.3482
    -3.3445  -3.3419  -3.3366  -3.3320  -3.3173  -3.3163  -3.3031  -3.2824
    -3.2781  -3.2660  -3.2459  -3.2379  -3.2263  -3.2150  -3.2092  -3.1862
    -3.1751  -3.1650  -3.0077  -3.0069  -3.0069  -3.0014  -3.0010  -2.9923
    -2.9435  -2.9373  -2.9346  -2.9338  -2.9337  -2.9336  -2.9334  -2.9333
    -2.9285  -2.9219  -2.9173  -2.9139  -2.9115  -2.9048  -2.8927  -2.8820
    -2.8733  -2.8698  -2.8694  -2.8649  -2.8617  -2.8608  -2.8582  -2.8510
    -2.8456  -2.8372  -2.8315  -2.8010  -2.7984  -2.7962  -2.7934  -2.7843
    -2.7744  -2.7479  -2.7467  -2.7257  -2.7228  -2.7215  -2.7205  -2.7183
    -2.7144  -2.7023  -2.6780  -2.6741  -2.6503  -2.6391  -2.6163  -2.6093
    -2.5999  -2.5851  -2.5802  -2.5287  -2.5159  -2.5101  -2.4979  -2.4912
    -2.4567  -2.4552  -2.4338  -2.4280  -2.4201

          k = 0.0000-0.5773 0.0000 (321564 PWs)   bands (ev):

   -88.7317 -88.7271 -88.5687 -66.6578 -66.6578 -66.6473 -66.6473 -66.6323
   -66.6323 -66.6323 -66.6323 -66.6279 -66.6279 -66.6217 -66.6217 -66.6217
   -66.6217 -66.6173 -66.6173 -66.5920 -66.5914 -66.5811 -66.5811 -66.5664
   -66.5664 -66.5660 -66.5660 -66.5621 -66.5615 -66.5560 -66.5559 -66.5555
   -66.5548 -66.5512 -66.5512 -66.5170 -66.5136 -66.5004 -66.4990 -66.4943
   -66.4855 -66.4828 -66.4750 -66.4745 -66.4718 -66.4706 -66.4671 -66.4620
   -66.4578 -66.4568 -66.4479 -54.6158 -54.5904 -54.5048 -54.4978 -54.4738
   -54.4612 -54.4502 -54.3315 -54.3111 -40.9589 -40.9589 -40.9589 -40.9589
   -40.9323 -40.9323 -40.9204 -40.9204 -40.8920 -40.8919 -40.8915 -40.8912
   -40.8699 -40.8699 -40.8699 -40.8699 -40.8653 -40.8648 -40.8531 -40.8531
   -40.8166 -40.8121 -40.8121 -40.8101 -40.8028 -40.8027 -40.8027 -40.8027
   -40.8020 -40.8020 -40.8008 -40.7914 -40.7914 -40.7896 -40.7821 -40.7809
   -40.7620 -40.7620 -40.7620 -40.7620 -40.7615 -40.7533 -40.7533 -40.7525
   -40.7467 -40.7462 -40.7411 -40.7411 -40.7411 -40.7410 -40.7410 -40.7410
   -40.7349 -40.7349 -40.7324 -40.7324 -40.7258 -40.7258 -40.7146 -40.7123
   -40.7102 -40.7102 -40.7102 -40.7102 -40.7091 -40.7088 -40.6966 -40.6966
   -40.6962 -40.6962 -40.6912 -40.6880 -40.6874 -40.6769 -40.6760 -40.6757
   -40.6757 -40.6757 -40.6757 -40.6757 -40.6754 -40.6749 -40.6739 -40.6739
   -40.6669 -40.6669 -40.6665 -40.6637 -40.6636 -40.6634 -40.6465 -40.6445
   -40.6445 -40.6436 -40.6435 -40.6432 -40.6432 -40.6426 -40.6391 -40.6382
   -40.6326 -40.6276 -40.6276 -40.6174 -40.6156 -40.6128 -40.6098 -40.6088
   -40.6088 -40.6087 -40.6087 -40.6047 -40.6027 -40.5984 -40.5971 -40.5971
   -40.5970 -40.5964 -40.5937 -40.5889 -40.5877 -40.5808 -40.5779 -40.5771
   -40.5607 -40.5606 -40.5577 -40.5536 -40.5530 -40.5513 -40.5305 -40.5299
   -40.5234 -40.5177 -40.5151 -40.5143 -40.5097 -40.4959 -40.4881 -40.4832
   -40.4676 -40.4664 -40.4428 -40.4300 -20.1157 -19.8618 -19.8499 -19.7617
   -19.6956 -19.6401 -19.4801 -19.4292 -19.4133 -19.3502 -19.2714 -19.2303
   -19.0968 -18.7915 -18.7515 -18.7281 -18.7190 -18.7165 -18.7136 -18.6914
   -18.6834 -18.6574 -18.6200 -18.5923 -18.5870 -18.5761 -18.5658 -18.5567
   -18.5412 -18.5251 -18.4834 -18.4679 -18.4624 -18.4371 -18.4174 -18.3929
   -18.3885 -18.3732 -18.3572 -18.3005 -18.2922 -18.2567 -18.2466 -18.2295
   -18.2110 -18.2037 -18.1684 -18.1531 -18.1390 -18.1163 -18.1087 -18.1039
   -18.1035 -18.1035 -18.1033 -18.0793 -18.0687 -18.0601 -18.0344 -18.0331
   -18.0288 -18.0211 -18.0206 -18.0154 -18.0004 -17.9805 -17.9703 -17.9664
   -17.9525 -17.9450 -17.9241 -17.9234 -17.9215 -17.9137 -17.9017 -17.8899
   -17.8674 -17.8616 -17.8483 -17.8402 -17.8402 -17.8371 -17.8011 -17.7981
   -17.7805 -17.7804 -17.7761 -17.7660 -17.7640 -17.7603 -17.7540 -17.7361
   -17.7201 -17.7200 -17.6609 -17.6580 -11.9776 -11.9424 -11.8484 -11.6591
   -11.6005 -11.5273 -11.4525 -11.4524 -11.4484 -11.4471 -11.4352 -11.4213
   -11.3990 -11.3893 -11.3628 -11.3568 -11.3492 -11.3425 -11.3296 -11.2966
   -11.2905 -11.2744 -11.2613 -11.2478 -11.2450 -11.2332 -11.2332 -11.2144
   -11.1875 -11.1873 -11.1620 -11.1350 -11.1322 -11.1290 -11.1076 -11.0589
   -11.0192 -10.9766 -10.9716 -10.9531 -10.9451 -10.9205 -10.9086 -10.9045
   -10.8876 -10.8860 -10.8760 -10.8666 -10.8344 -10.8329 -10.8160 -10.8100
   -10.8089 -10.8062 -10.8060 -10.8047 -10.7859 -10.7843 -10.7697 -10.7565
   -10.7425 -10.7370 -10.7259 -10.7257 -10.6873 -10.5845 -10.5617 -10.4911
   -10.4697 -10.4403 -10.3661 -10.3652 -10.3183 -10.2434 -10.2299 -10.2247
   -10.1155 -10.1000 -10.0992 -10.0925 -10.0704 -10.0547 -10.0323 -10.0040
    -9.9832  -9.9541  -9.9355  -9.9231  -9.9126  -9.9076  -9.9039  -9.8972
    -9.8744  -9.8711  -9.8656  -9.8592  -9.8326  -9.8319  -9.7841  -9.7690
    -9.7477  -9.7325  -9.7285  -9.7107  -9.7026  -9.6908  -9.6874  -9.6803
    -9.6728  -9.6688  -9.6345  -9.6324  -9.6297  -9.6008  -9.5972  -9.5786
    -9.5642  -9.5236  -9.5217  -9.5119  -9.5047  -9.5008  -9.4576  -9.4492
    -9.4461  -9.4362  -9.3771  -9.3558  -9.3380  -9.3049  -9.2598  -9.2215
    -9.1827  -9.1815  -9.1600  -9.1464  -9.1320  -9.1230  -9.1148  -9.1033
    -9.0914  -9.0815  -9.0521  -9.0509  -9.0279  -9.0233  -9.0161  -9.0030
    -8.9904  -8.9854  -8.9737  -8.9667  -8.9496  -8.9413  -8.9373  -8.9238
    -8.9224  -8.9144  -8.9089  -8.9072  -8.8962  -8.8839  -8.8531  -8.8455
    -8.8345  -8.8337  -8.8308  -8.8270  -8.8235  -8.8159  -8.8152  -8.8131
    -8.7990  -8.7923  -8.7788  -8.7614  -8.7577  -8.7404  -8.7372  -8.7309
    -8.7141  -8.6943  -8.6285  -8.5423  -8.5195  -8.4882  -8.4876  -8.4483
    -8.4111  -8.4054  -8.4036  -8.3713  -8.3160  -8.2452  -8.2005  -8.1695
    -8.1694  -8.1628  -8.1278  -8.1007  -8.0974  -8.0938  -8.0609  -8.0069
    -7.9926  -7.9255  -7.9135  -7.9039  -7.8945  -7.8416  -7.8356  -7.8351
    -7.8342  -7.8270  -7.8228  -7.8227  -7.8216  -7.8195  -7.8089  -7.7872
    -7.7778  -7.7765  -7.7762  -7.7682  -7.7567  -7.7518  -7.7512  -7.7429
    -7.7329  -7.7227  -7.7179  -7.7131  -7.7057  -7.7018  -7.6952  -7.6942
    -7.6934  -7.6686  -7.6601  -7.6590  -7.6447  -7.6405  -7.6376  -7.6370
    -7.6328  -7.6209  -7.6048  -7.5999  -7.5891  -7.5681  -7.5639  -7.5497
    -7.5286  -7.5097  -7.5089  -7.4896  -7.4621  -7.4512  -7.4108  -7.3520
    -7.3007  -7.2903  -7.2812  -7.2262  -7.2164  -7.2015  -7.1999  -7.1736
    -7.1483  -7.1025  -7.0898  -7.0628  -7.0360  -7.0304  -7.0169  -7.0055
    -6.9863  -6.9835  -6.9801  -6.9616  -6.9442  -6.9417  -6.9083  -6.8819
    -6.8776  -6.8704  -6.8447  -6.8097  -6.8087  -6.7756  -6.7554  -6.7348
    -6.7059  -6.6850  -6.6496  -6.6439  -6.6388  -6.6345  -6.6344  -6.6344
    -6.6334  -6.6300  -6.5911  -6.5694  -6.5681  -6.5651  -6.5642  -6.5515
    -6.5302  -6.5281  -6.4946  -6.4750  -6.4407  -6.4303  -6.4221  -6.3497
    -6.3168  -6.3028  -6.3027  -6.3023  -6.3021  -6.2487  -6.2396  -6.2303
    -6.2243  -6.2187  -6.2183  -6.2176  -6.2078  -6.1971  -6.1816  -6.1317
    -6.0665  -6.0383  -6.0098  -5.9714  -5.9543  -5.9542  -5.8795  -5.8761
    -5.8491  -5.7871  -5.6835  -5.6657  -5.5951  -5.5720  -5.5398  -5.4426
    -5.4187  -5.3440  -5.1984  -4.0241  -4.0126  -3.9989  -3.9929  -3.9203
    -3.8699  -3.8699  -3.8563  -3.8320  -3.8082  -3.8050  -3.8035  -3.7727
    -3.7510  -3.7419  -3.7364  -3.6933  -3.6602  -3.5919  -3.5778  -3.5742
    -3.5724  -3.5694  -3.5577  -3.5555  -3.5551  -3.5371  -3.5255  -3.4797
    -3.4764  -3.4738  -3.4735  -3.4622  -3.4528  -3.4522  -3.4479  -3.4371
    -3.4318  -3.3950  -3.3818  -3.3657  -3.3519  -3.3514  -3.3355  -3.3224
    -3.3222  -3.3184  -3.2932  -3.2903  -3.2834  -3.2830  -3.2661  -3.2490
    -3.2463  -3.2459  -3.2456  -3.2424  -3.2205  -3.2163  -3.2084  -3.1993
    -3.1872  -3.1818  -3.1789  -3.1717  -3.1668  -3.1541  -3.1518  -3.1355
    -3.1259  -3.1015  -3.0907  -3.0858  -3.0626  -3.0429  -3.0402  -3.0136
    -3.0090  -3.0026  -3.0011  -2.9830  -2.9828  -2.9822  -2.9822  -2.9511
    -2.9386  -2.9338  -2.9323  -2.9217  -2.9149  -2.8987  -2.8970  -2.8906
    -2.8889  -2.8870  -2.8660  -2.8608  -2.8574  -2.8502  -2.8456  -2.8367
    -2.8197  -2.8123  -2.7970  -2.7803  -2.7737  -2.7721  -2.7560  -2.7076
    -2.7067  -2.6807  -2.6758  -2.6354  -2.6242  -2.6201  -2.6128  -2.6110
    -2.6033  -2.5463  -2.5353  -2.5010  -2.4850  -2.4824  -2.4683  -2.4602
    -2.4323  -2.4209  -2.3477  -2.3219  -2.2698

          k =-0.5000-0.2887 0.0000 (321564 PWs)   bands (ev):

   -88.7317 -88.7271 -88.5687 -66.6578 -66.6578 -66.6473 -66.6473 -66.6323
   -66.6323 -66.6323 -66.6323 -66.6279 -66.6279 -66.6217 -66.6217 -66.6217
   -66.6217 -66.6173 -66.6173 -66.5918 -66.5916 -66.5812 -66.5811 -66.5663
   -66.5663 -66.5662 -66.5661 -66.5618 -66.5617 -66.5557 -66.5557 -66.5555
   -66.5554 -66.5512 -66.5511 -66.5174 -66.5128 -66.5016 -66.4986 -66.4939
   -66.4857 -66.4815 -66.4776 -66.4723 -66.4719 -66.4703 -66.4687 -66.4604
   -66.4590 -66.4564 -66.4480 -54.6158 -54.5904 -54.5048 -54.4978 -54.4738
   -54.4612 -54.4502 -54.3315 -54.3111 -40.9589 -40.9589 -40.9589 -40.9589
   -40.9323 -40.9323 -40.9204 -40.9204 -40.8918 -40.8917 -40.8916 -40.8915
   -40.8699 -40.8699 -40.8699 -40.8699 -40.8651 -40.8649 -40.8531 -40.8530
   -40.8152 -40.8121 -40.8121 -40.8095 -40.8028 -40.8028 -40.8027 -40.8027
   -40.8020 -40.8020 -40.7962 -40.7954 -40.7914 -40.7914 -40.7852 -40.7815
   -40.7626 -40.7620 -40.7620 -40.7620 -40.7619 -40.7533 -40.7533 -40.7495
   -40.7466 -40.7464 -40.7411 -40.7411 -40.7411 -40.7410 -40.7410 -40.7410
   -40.7350 -40.7349 -40.7324 -40.7324 -40.7258 -40.7257 -40.7141 -40.7112
   -40.7106 -40.7102 -40.7102 -40.7102 -40.7102 -40.7074 -40.6965 -40.6964
   -40.6964 -40.6963 -40.6901 -40.6878 -40.6876 -40.6791 -40.6757 -40.6757
   -40.6757 -40.6757 -40.6756 -40.6756 -40.6755 -40.6753 -40.6740 -40.6739
   -40.6669 -40.6669 -40.6645 -40.6637 -40.6636 -40.6607 -40.6493 -40.6471
   -40.6445 -40.6445 -40.6433 -40.6432 -40.6432 -40.6432 -40.6384 -40.6368
   -40.6298 -40.6276 -40.6276 -40.6191 -40.6152 -40.6135 -40.6091 -40.6088
   -40.6088 -40.6087 -40.6087 -40.6046 -40.6028 -40.5984 -40.5971 -40.5971
   -40.5968 -40.5966 -40.5939 -40.5899 -40.5887 -40.5793 -40.5775 -40.5775
   -40.5607 -40.5606 -40.5604 -40.5548 -40.5535 -40.5486 -40.5303 -40.5301
   -40.5196 -40.5181 -40.5162 -40.5138 -40.5109 -40.4973 -40.4897 -40.4828
   -40.4653 -40.4651 -40.4421 -40.4320 -20.1172 -19.8607 -19.8500 -19.7569
   -19.6959 -19.6359 -19.4824 -19.4320 -19.4135 -19.3631 -19.2713 -19.2367
   -19.0807 -18.7704 -18.7576 -18.7256 -18.7250 -18.7162 -18.7137 -18.6919
   -18.6861 -18.6647 -18.6162 -18.5890 -18.5868 -18.5784 -18.5704 -18.5493
   -18.5402 -18.5261 -18.4838 -18.4682 -18.4616 -18.4370 -18.4124 -18.3978
   -18.3940 -18.3743 -18.3558 -18.3167 -18.2916 -18.2492 -18.2393 -18.2331
   -18.2165 -18.2033 -18.1753 -18.1435 -18.1362 -18.1249 -18.1085 -18.1037
   -18.1036 -18.1035 -18.1035 -18.0813 -18.0683 -18.0574 -18.0342 -18.0323
   -18.0270 -18.0224 -18.0196 -18.0138 -18.0010 -17.9804 -17.9724 -17.9670
   -17.9533 -17.9439 -17.9240 -17.9218 -17.9197 -17.9130 -17.9005 -17.8913
   -17.8641 -17.8600 -17.8487 -17.8402 -17.8402 -17.8363 -17.8016 -17.7951
   -17.7811 -17.7803 -17.7784 -17.7653 -17.7639 -17.7575 -17.7525 -17.7443
   -17.7201 -17.7197 -17.6619 -17.6574 -12.0073 -11.9041 -11.8508 -11.6554
   -11.6076 -11.5256 -11.4581 -11.4519 -11.4487 -11.4470 -11.4280 -11.4263
   -11.4185 -11.3867 -11.3577 -11.3532 -11.3483 -11.3412 -11.3239 -11.2959
   -11.2868 -11.2821 -11.2634 -11.2522 -11.2332 -11.2332 -11.2291 -11.1952
   -11.1875 -11.1866 -11.1615 -11.1372 -11.1313 -11.1283 -11.1125 -11.0696
   -11.0268 -10.9941 -10.9692 -10.9458 -10.9435 -10.9264 -10.9132 -10.9007
   -10.8896 -10.8867 -10.8708 -10.8577 -10.8307 -10.8243 -10.8183 -10.8142
   -10.8094 -10.8063 -10.8059 -10.8045 -10.7931 -10.7824 -10.7794 -10.7488
   -10.7424 -10.7370 -10.7270 -10.7175 -10.6696 -10.5700 -10.5643 -10.5129
   -10.4700 -10.4553 -10.4015 -10.3645 -10.3153 -10.2642 -10.2355 -10.1963
   -10.1315 -10.1019 -10.0923 -10.0875 -10.0828 -10.0371 -10.0227  -9.9971
    -9.9799  -9.9566  -9.9235  -9.9174  -9.9132  -9.9092  -9.9039  -9.8919
    -9.8850  -9.8751  -9.8703  -9.8580  -9.8537  -9.8202  -9.7790  -9.7752
    -9.7530  -9.7294  -9.7279  -9.7087  -9.7044  -9.6889  -9.6869  -9.6794
    -9.6742  -9.6661  -9.6388  -9.6329  -9.6231  -9.5987  -9.5942  -9.5817
    -9.5676  -9.5306  -9.5265  -9.5100  -9.5044  -9.4985  -9.4659  -9.4493
    -9.4461  -9.4303  -9.3599  -9.3381  -9.3255  -9.3118  -9.2574  -9.2231
    -9.1852  -9.1754  -9.1548  -9.1425  -9.1387  -9.1194  -9.1145  -9.1043
    -9.0886  -9.0829  -9.0588  -9.0457  -9.0241  -9.0213  -9.0147  -9.0043
    -8.9966  -8.9862  -8.9732  -8.9591  -8.9449  -8.9410  -8.9322  -8.9235
    -8.9203  -8.9153  -8.9068  -8.9061  -8.9022  -8.8844  -8.8702  -8.8525
    -8.8369  -8.8343  -8.8297  -8.8269  -8.8220  -8.8158  -8.8151  -8.8138
    -8.8016  -8.7938  -8.7845  -8.7589  -8.7576  -8.7440  -8.7386  -8.7263
    -8.7090  -8.6890  -8.6193  -8.5485  -8.5227  -8.4881  -8.4877  -8.4359
    -8.4132  -8.4105  -8.4045  -8.3787  -8.3334  -8.2427  -8.2131  -8.1695
    -8.1694  -8.1497  -8.1166  -8.1011  -8.0969  -8.0922  -8.0707  -8.0098
    -7.9636  -7.9241  -7.9146  -7.9034  -7.8943  -7.8447  -7.8367  -7.8317
    -7.8280  -7.8268  -7.8228  -7.8228  -7.8215  -7.8206  -7.8088  -7.7866
    -7.7775  -7.7768  -7.7762  -7.7676  -7.7588  -7.7528  -7.7509  -7.7435
    -7.7417  -7.7225  -7.7216  -7.7161  -7.7148  -7.7030  -7.6962  -7.6954
    -7.6949  -7.6672  -7.6669  -7.6624  -7.6410  -7.6395  -7.6376  -7.6372
    -7.6297  -7.6247  -7.6031  -7.5993  -7.5866  -7.5689  -7.5638  -7.5595
    -7.5251  -7.5122  -7.5108  -7.4951  -7.4648  -7.4486  -7.4122  -7.3660
    -7.3227  -7.2960  -7.2524  -7.2279  -7.2155  -7.2055  -7.2043  -7.1699
    -7.1552  -7.0968  -7.0842  -7.0728  -7.0438  -7.0273  -7.0215  -6.9985
    -6.9853  -6.9781  -6.9633  -6.9506  -6.9410  -6.9310  -6.9072  -6.8900
    -6.8788  -6.8656  -6.8519  -6.8246  -6.8103  -6.7700  -6.7585  -6.7215
    -6.7067  -6.6843  -6.6549  -6.6508  -6.6353  -6.6347  -6.6345  -6.6344
    -6.6329  -6.6257  -6.5870  -6.5685  -6.5667  -6.5652  -6.5637  -6.5408
    -6.5399  -6.5008  -6.4861  -6.4672  -6.4451  -6.4245  -6.4208  -6.3498
    -6.3226  -6.3027  -6.3026  -6.3022  -6.3017  -6.2811  -6.2377  -6.2369
    -6.2232  -6.2191  -6.2184  -6.2169  -6.2029  -6.1944  -6.1826  -6.1444
    -6.0633  -6.0149  -5.9888  -5.9649  -5.9543  -5.9542  -5.9105  -5.8761
    -5.8741  -5.7824  -5.6889  -5.6614  -5.6142  -5.5644  -5.5313  -5.4749
    -5.3902  -5.3380  -5.1995  -4.0202  -4.0129  -3.9964  -3.9953  -3.9195
    -3.8700  -3.8699  -3.8688  -3.8219  -3.8059  -3.8049  -3.8012  -3.7715
    -3.7528  -3.7467  -3.7318  -3.6960  -3.6613  -3.5896  -3.5782  -3.5726
    -3.5702  -3.5689  -3.5555  -3.5553  -3.5518  -3.5392  -3.5222  -3.4870
    -3.4789  -3.4730  -3.4725  -3.4604  -3.4518  -3.4499  -3.4445  -3.4414
    -3.4356  -3.3966  -3.3745  -3.3596  -3.3491  -3.3451  -3.3354  -3.3282
    -3.3228  -3.3220  -3.2941  -3.2894  -3.2881  -3.2828  -3.2711  -3.2494
    -3.2467  -3.2459  -3.2455  -3.2441  -3.2207  -3.2171  -3.2069  -3.1986
    -3.1934  -3.1800  -3.1757  -3.1718  -3.1653  -3.1625  -3.1522  -3.1280
    -3.1184  -3.1055  -3.0927  -3.0838  -3.0687  -3.0428  -3.0406  -3.0122
    -3.0062  -3.0028  -3.0008  -2.9835  -2.9824  -2.9820  -2.9817  -2.9489
    -2.9409  -2.9339  -2.9332  -2.9186  -2.9102  -2.9089  -2.9016  -2.8935
    -2.8859  -2.8809  -2.8695  -2.8624  -2.8557  -2.8537  -2.8446  -2.8279
    -2.8186  -2.8112  -2.8005  -2.7877  -2.7763  -2.7732  -2.7583  -2.7110
    -2.7030  -2.6810  -2.6747  -2.6435  -2.6252  -2.6204  -2.6167  -2.6110
    -2.6030  -2.5408  -2.5369  -2.5134  -2.4845  -2.4740  -2.4617  -2.4597
    -2.4482  -2.3839  -2.3445  -2.3314  -2.2711

          k =-0.5000-0.8660 0.0000 (321564 PWs)   bands (ev):

   -88.7317 -88.7271 -88.5687 -66.6578 -66.6578 -66.6473 -66.6473 -66.6323
   -66.6323 -66.6323 -66.6323 -66.6279 -66.6279 -66.6217 -66.6217 -66.6217
   -66.6217 -66.6173 -66.6173 -66.5918 -66.5916 -66.5812 -66.5811 -66.5663
   -66.5663 -66.5661 -66.5661 -66.5619 -66.5617 -66.5557 -66.5557 -66.5555
   -66.5554 -66.5512 -66.5511 -66.5174 -66.5128 -66.5016 -66.4986 -66.4939
   -66.4857 -66.4815 -66.4776 -66.4723 -66.4717 -66.4704 -66.4688 -66.4604
   -66.4591 -66.4564 -66.4480 -54.6158 -54.5904 -54.5048 -54.4978 -54.4738
   -54.4612 -54.4502 -54.3315 -54.3111 -40.9589 -40.9589 -40.9589 -40.9589
   -40.9323 -40.9323 -40.9204 -40.9204 -40.8918 -40.8917 -40.8916 -40.8915
   -40.8699 -40.8699 -40.8699 -40.8699 -40.8651 -40.8649 -40.8531 -40.8530
   -40.8151 -40.8121 -40.8121 -40.8094 -40.8028 -40.8028 -40.8027 -40.8027
   -40.8020 -40.8020 -40.7963 -40.7956 -40.7914 -40.7914 -40.7853 -40.7815
   -40.7626 -40.7620 -40.7620 -40.7620 -40.7620 -40.7533 -40.7533 -40.7493
   -40.7466 -40.7463 -40.7411 -40.7411 -40.7411 -40.7411 -40.7410 -40.7410
   -40.7350 -40.7349 -40.7324 -40.7324 -40.7258 -40.7257 -40.7141 -40.7112
   -40.7106 -40.7102 -40.7102 -40.7102 -40.7102 -40.7073 -40.6964 -40.6964
   -40.6964 -40.6963 -40.6901 -40.6878 -40.6876 -40.6791 -40.6757 -40.6757
   -40.6757 -40.6757 -40.6757 -40.6756 -40.6755 -40.6753 -40.6740 -40.6739
   -40.6669 -40.6669 -40.6645 -40.6637 -40.6637 -40.6608 -40.6493 -40.6471
   -40.6445 -40.6445 -40.6433 -40.6432 -40.6432 -40.6432 -40.6384 -40.6368
   -40.6298 -40.6276 -40.6276 -40.6190 -40.6153 -40.6134 -40.6093 -40.6088
   -40.6088 -40.6087 -40.6087 -40.6046 -40.6027 -40.5985 -40.5971 -40.5971
   -40.5968 -40.5966 -40.5938 -40.5900 -40.5887 -40.5793 -40.5775 -40.5775
   -40.5607 -40.5606 -40.5603 -40.5550 -40.5534 -40.5487 -40.5303 -40.5301
   -40.5196 -40.5181 -40.5161 -40.5138 -40.5108 -40.4974 -40.4898 -40.4826
   -40.4652 -40.4650 -40.4420 -40.4322 -20.1172 -19.8608 -19.8500 -19.7568
   -19.6959 -19.6359 -19.4825 -19.4320 -19.4135 -19.3631 -19.2713 -19.2367
   -19.0805 -18.7702 -18.7579 -18.7255 -18.7250 -18.7162 -18.7136 -18.6916
   -18.6860 -18.6655 -18.6159 -18.5891 -18.5868 -18.5783 -18.5706 -18.5492
   -18.5401 -18.5260 -18.4838 -18.4682 -18.4616 -18.4372 -18.4122 -18.3977
   -18.3939 -18.3744 -18.3560 -18.3163 -18.2916 -18.2490 -18.2397 -18.2330
   -18.2164 -18.2034 -18.1753 -18.1434 -18.1364 -18.1248 -18.1086 -18.1036
   -18.1036 -18.1035 -18.1035 -18.0813 -18.0682 -18.0574 -18.0344 -18.0321
   -18.0269 -18.0224 -18.0195 -18.0138 -18.0011 -17.9802 -17.9724 -17.9672
   -17.9533 -17.9437 -17.9241 -17.9216 -17.9199 -17.9130 -17.9004 -17.8912
   -17.8644 -17.8596 -17.8487 -17.8402 -17.8402 -17.8362 -17.8018 -17.7949
   -17.7811 -17.7803 -17.7785 -17.7654 -17.7640 -17.7575 -17.7522 -17.7446
   -17.7201 -17.7198 -17.6618 -17.6573 -12.0069 -11.9044 -11.8509 -11.6554
   -11.6075 -11.5255 -11.4580 -11.4519 -11.4487 -11.4470 -11.4279 -11.4263
   -11.4183 -11.3867 -11.3576 -11.3532 -11.3485 -11.3413 -11.3237 -11.2958
   -11.2869 -11.2821 -11.2636 -11.2525 -11.2332 -11.2332 -11.2289 -11.1957
   -11.1875 -11.1866 -11.1618 -11.1373 -11.1313 -11.1283 -11.1124 -11.0699
   -11.0267 -10.9943 -10.9692 -10.9457 -10.9433 -10.9263 -10.9124 -10.9004
   -10.8894 -10.8867 -10.8710 -10.8581 -10.8309 -10.8240 -10.8182 -10.8141
   -10.8093 -10.8064 -10.8058 -10.8045 -10.7927 -10.7820 -10.7792 -10.7489
   -10.7424 -10.7370 -10.7271 -10.7178 -10.6709 -10.5702 -10.5638 -10.5125
   -10.4698 -10.4549 -10.4008 -10.3645 -10.3158 -10.2646 -10.2346 -10.1956
   -10.1313 -10.1022 -10.0923 -10.0876 -10.0826 -10.0387 -10.0231  -9.9970
    -9.9799  -9.9563  -9.9241  -9.9173  -9.9130  -9.9092  -9.9039  -9.8916
    -9.8848  -9.8750  -9.8705  -9.8581  -9.8537  -9.8201  -9.7787  -9.7747
    -9.7530  -9.7296  -9.7280  -9.7089  -9.7048  -9.6889  -9.6869  -9.6793
    -9.6742  -9.6661  -9.6384  -9.6329  -9.6233  -9.5985  -9.5941  -9.5817
    -9.5674  -9.5306  -9.5262  -9.5100  -9.5044  -9.4982  -9.4662  -9.4492
    -9.4462  -9.4308  -9.3598  -9.3391  -9.3252  -9.3116  -9.2571  -9.2225
    -9.1851  -9.1756  -9.1546  -9.1424  -9.1388  -9.1194  -9.1148  -9.1044
    -9.0887  -9.0828  -9.0589  -9.0456  -9.0238  -9.0213  -9.0148  -9.0047
    -8.9964  -8.9863  -8.9733  -8.9596  -8.9452  -8.9416  -8.9326  -8.9236
    -8.9204  -8.9152  -8.9069  -8.9064  -8.9025  -8.8846  -8.8698  -8.8527
    -8.8371  -8.8344  -8.8297  -8.8269  -8.8220  -8.8158  -8.8151  -8.8136
    -8.8015  -8.7938  -8.7844  -8.7587  -8.7573  -8.7439  -8.7386  -8.7262
    -8.7094  -8.6885  -8.6195  -8.5489  -8.5228  -8.4881  -8.4877  -8.4368
    -8.4125  -8.4106  -8.4046  -8.3786  -8.3325  -8.2438  -8.2121  -8.1695
    -8.1694  -8.1497  -8.1167  -8.1012  -8.0969  -8.0922  -8.0703  -8.0087
    -7.9644  -7.9244  -7.9148  -7.9036  -7.8946  -7.8447  -7.8366  -7.8319
    -7.8281  -7.8269  -7.8228  -7.8228  -7.8217  -7.8210  -7.8088  -7.7868
    -7.7775  -7.7768  -7.7762  -7.7676  -7.7586  -7.7527  -7.7509  -7.7434
    -7.7416  -7.7225  -7.7213  -7.7162  -7.7144  -7.7031  -7.6961  -7.6955
    -7.6947  -7.6674  -7.6671  -7.6618  -7.6407  -7.6395  -7.6376  -7.6371
    -7.6299  -7.6251  -7.6028  -7.5994  -7.5864  -7.5687  -7.5638  -7.5588
    -7.5245  -7.5124  -7.5105  -7.4951  -7.4644  -7.4493  -7.4121  -7.3648
    -7.3224  -7.2953  -7.2535  -7.2280  -7.2154  -7.2056  -7.2041  -7.1698
    -7.1555  -7.0968  -7.0848  -7.0729  -7.0429  -7.0269  -7.0216  -6.9982
    -6.9853  -6.9780  -6.9636  -6.9504  -6.9411  -6.9312  -6.9076  -6.8899
    -6.8788  -6.8658  -6.8526  -6.8244  -6.8106  -6.7703  -6.7593  -6.7219
    -6.7076  -6.6839  -6.6544  -6.6493  -6.6353  -6.6347  -6.6345  -6.6344
    -6.6330  -6.6258  -6.5875  -6.5685  -6.5666  -6.5654  -6.5637  -6.5413
    -6.5400  -6.5015  -6.4868  -6.4670  -6.4454  -6.4242  -6.4211  -6.3488
    -6.3226  -6.3027  -6.3026  -6.3022  -6.3017  -6.2803  -6.2377  -6.2369
    -6.2232  -6.2192  -6.2184  -6.2170  -6.2031  -6.1948  -6.1825  -6.1441
    -6.0638  -6.0144  -5.9889  -5.9652  -5.9543  -5.9542  -5.9105  -5.8761
    -5.8741  -5.7821  -5.6891  -5.6612  -5.6144  -5.5643  -5.5310  -5.4754
    -5.3902  -5.3376  -5.1993  -4.0203  -4.0131  -3.9965  -3.9952  -3.9196
    -3.8700  -3.8699  -3.8685  -3.8218  -3.8061  -3.8049  -3.8014  -3.7713
    -3.7528  -3.7467  -3.7318  -3.6960  -3.6610  -3.5895  -3.5782  -3.5727
    -3.5703  -3.5689  -3.5554  -3.5552  -3.5520  -3.5389  -3.5221  -3.4873
    -3.4789  -3.4730  -3.4719  -3.4603  -3.4514  -3.4499  -3.4446  -3.4413
    -3.4355  -3.3967  -3.3750  -3.3594  -3.3490  -3.3454  -3.3354  -3.3279
    -3.3226  -3.3217  -3.2941  -3.2896  -3.2882  -3.2828  -3.2707  -3.2496
    -3.2466  -3.2459  -3.2455  -3.2441  -3.2207  -3.2174  -3.2067  -3.1987
    -3.1931  -3.1800  -3.1759  -3.1718  -3.1651  -3.1622  -3.1524  -3.1275
    -3.1189  -3.1052  -3.0930  -3.0837  -3.0686  -3.0427  -3.0410  -3.0121
    -3.0063  -3.0030  -3.0006  -2.9833  -2.9829  -2.9826  -2.9824  -2.9482
    -2.9407  -2.9344  -2.9331  -2.9186  -2.9094  -2.9090  -2.9013  -2.8932
    -2.8858  -2.8808  -2.8695  -2.8627  -2.8556  -2.8535  -2.8449  -2.8283
    -2.8188  -2.8115  -2.8006  -2.7887  -2.7777  -2.7746  -2.7588  -2.7115
    -2.7035  -2.6799  -2.6750  -2.6436  -2.6256  -2.6204  -2.6169  -2.6114
    -2.6028  -2.5409  -2.5369  -2.5141  -2.4853  -2.4741  -2.4620  -2.4597
    -2.4480  -2.3860  -2.3502  -2.3344  -2.2764

     the Fermi energy is    -4.5742 ev

!    total energy              =  -25381.08989578 Ry
     total all-electron energy =   -495641.020072 Ry
     estimated scf accuracy    <       0.00000086 Ry
     smearing contrib. (-TS)   =      -0.00000000 Ry
     internal energy E=F+TS    =  -25381.08989578 Ry

     The total energy is F=E-TS. E is the sum of the following terms:
     one-electron contribution =  497244.03059762 Ry
     hartree contribution      = -248730.09008368 Ry
     xc contribution           =   -1521.08564783 Ry
     ewald contribution        = -256261.66232413 Ry
     DFT-D3 Dispersion         =      -4.05752923 Ry
     one-center paw contrib.   =  -16108.22490854 Ry

     convergence has been achieved in  20 iterations

     negative rho (up, down):  1.017E-03 0.000E+00

     Forces acting on atoms (cartesian axes, Ry/au):

     atom    1 type  1   force =     0.00021687    0.00121355   -0.02760920
     atom    2 type  1   force =     0.00001222   -0.00000515    0.00187668
     atom    3 type  1   force =     0.00001726    0.00002021    0.00003862
     atom    4 type  2   force =    -0.00000959   -0.00001741   -0.00305864
     atom    5 type  2   force =     0.00000608   -0.00004138    0.00027113
     atom    6 type  2   force =    -0.00025736    0.00020832    0.00311819
     atom    7 type  2   force =    -0.00000782   -0.00001860    0.00132582
     atom    8 type  2   force =    -0.00003481   -0.00010459   -0.00024267
     atom    9 type  2   force =    -0.02510794   -0.01756953    0.00639126
     atom   10 type  1   force =    -0.00073639    0.00236899    0.00041469
     atom   11 type  1   force =    -0.00001516   -0.00001552    0.00186554
     atom   12 type  1   force =    -0.00002955   -0.00000484    0.00003790
     atom   13 type  2   force =    -0.00001253   -0.00001155   -0.00304564
     atom   14 type  2   force =    -0.00001462   -0.00001616    0.00025765
     atom   15 type  2   force =    -0.00105069    0.00022320   -0.00044410
     atom   16 type  2   force =    -0.00002464   -0.00001076    0.00131449
     atom   17 type  2   force =    -0.00004133   -0.00000715   -0.00029075
     atom   18 type  2   force =    -0.00013644    0.00095312   -0.00396225
     atom   19 type  1   force =     0.00036358   -0.00022532    0.00010791
     atom   20 type  1   force =    -0.00001143   -0.00001882    0.00187950
     atom   21 type  1   force =     0.00005324    0.00001311   -0.00000356
     atom   22 type  2   force =    -0.00001347    0.00000203   -0.00305308
     atom   23 type  2   force =    -0.00003143    0.00000739    0.00022842
     atom   24 type  2   force =     0.00027874   -0.00017294    0.00027299
     atom   25 type  2   force =    -0.00000882   -0.00000228    0.00131429
     atom   26 type  2   force =    -0.00005580    0.00001634   -0.00028268
     atom   27 type  2   force =     0.00031850    0.00002002   -0.00004004
     atom   28 type  1   force =     0.00124149   -0.00212586   -0.00340060
     atom   29 type  1   force =    -0.00002076    0.00000027    0.00187031
     atom   30 type  1   force =    -0.00000844   -0.00004253    0.00005471
     atom   31 type  2   force =     0.00000507    0.00000023   -0.00303572
     atom   32 type  2   force =     0.00000113    0.00000336    0.00021776
     atom   33 type  2   force =    -0.00014335   -0.00087014   -0.00056216
     atom   34 type  2   force =    -0.00000179   -0.00000833    0.00130548
     atom   35 type  2   force =    -0.00002202   -0.00001215   -0.00028169
     atom   36 type  2   force =    -0.00019592    0.00096883   -0.00060085
     atom   37 type  1   force =     0.00362331   -0.00047412   -0.00127749
     atom   38 type  1   force =     0.00001580   -0.00000881    0.00188422
     atom   39 type  1   force =    -0.00000994    0.00000029    0.00004988
     atom   40 type  2   force =     0.00000125   -0.00001869   -0.00304388
     atom   41 type  2   force =     0.00004070    0.00002011    0.00029019
     atom   42 type  2   force =     0.00019844   -0.00034476    0.00292311
     atom   43 type  2   force =    -0.00000209   -0.00000754    0.00131365
     atom   44 type  2   force =    -0.00005002   -0.00001330   -0.00010491
     atom   45 type  2   force =     0.02530306   -0.01750084    0.00625313
     atom   46 type  1   force =     0.00081724    0.00230320    0.00151893
     atom   47 type  1   force =     0.00000465   -0.00001781    0.00187289
     atom   48 type  1   force =    -0.00000963   -0.00007894    0.00002642
     atom   49 type  2   force =    -0.00001050   -0.00001137   -0.00304866
     atom   50 type  2   force =     0.00003834   -0.00004684    0.00025877
     atom   51 type  2   force =     0.00005624    0.00000070    0.00346910
     atom   52 type  2   force =     0.00000521   -0.00000550    0.00130254
     atom   53 type  2   force =     0.00006139   -0.00003781   -0.00030575
     atom   54 type  2   force =     0.00066338    0.04117507   -0.01862515
     atom   55 type  1   force =     0.00020813   -0.00043691    0.00055428
     atom   56 type  1   force =    -0.00000567    0.00001308    0.00186551
     atom   57 type  1   force =    -0.00005907    0.00003981    0.00001821
     atom   58 type  2   force =    -0.00000901    0.00000357   -0.00306023
     atom   59 type  2   force =    -0.00001180   -0.00001800    0.00020614
     atom   60 type  2   force =    -0.00051864   -0.00044649    0.00021587
     atom   61 type  2   force =    -0.00001122    0.00000370    0.00131753
     atom   62 type  2   force =    -0.00002214    0.00000574   -0.00024769
     atom   63 type  2   force =    -0.00070192    0.00124500   -0.00053552
     atom   64 type  1   force =    -0.00070649   -0.00002424   -0.00027749
     atom   65 type  1   force =     0.00000204    0.00003440    0.00187145
     atom   66 type  1   force =    -0.00000809   -0.00002666    0.00005292
     atom   67 type  2   force =    -0.00000940    0.00001456   -0.00306649
     atom   68 type  2   force =    -0.00003067    0.00002940    0.00022417
     atom   69 type  2   force =    -0.00023149    0.00001470    0.00027308
     atom   70 type  2   force =    -0.00000124    0.00000302    0.00133723
     atom   71 type  2   force =    -0.00000313    0.00002677   -0.00027587
     atom   72 type  2   force =     0.00003751    0.00019431    0.00047685
     atom   73 type  1   force =     0.00009086    0.00017365    0.00067185
     atom   74 type  1   force =    -0.00000036    0.00000312    0.00187511
     atom   75 type  1   force =     0.00003268    0.00004621    0.00013070
     atom   76 type  2   force =    -0.00000414   -0.00000171   -0.00305572
     atom   77 type  2   force =    -0.00005316    0.00006440    0.00024571
     atom   78 type  2   force =     0.00009738    0.00025769   -0.00002520
     atom   79 type  2   force =    -0.00000651   -0.00000061    0.00132758
     atom   80 type  2   force =     0.00004452    0.00000327   -0.00028316
     atom   81 type  2   force =    -0.00003592   -0.00008348   -0.00026037
     atom   82 type  1   force =    -0.00025221    0.00028968    0.00013630
     atom   83 type  1   force =     0.00001996   -0.00001146    0.00186602
     atom   84 type  1   force =     0.00005135   -0.00001396    0.00006775
     atom   85 type  2   force =     0.00002199   -0.00001342   -0.00305013
     atom   86 type  2   force =     0.00001562   -0.00006289    0.00026074
     atom   87 type  2   force =     0.00195747   -0.00007312   -0.00079258
     atom   88 type  2   force =     0.00001869   -0.00000893    0.00132303
     atom   89 type  2   force =     0.00004224    0.00003932   -0.00021473
     atom   90 type  2   force =    -0.00036548    0.00095591   -0.00361374
     atom   91 type  1   force =    -0.00054007   -0.00038860   -0.00001012
     atom   92 type  1   force =     0.00001475   -0.00000606    0.00186872
     atom   93 type  1   force =     0.00003856    0.00004209    0.00001128
     atom   94 type  2   force =     0.00001311    0.00000878   -0.00307717
     atom   95 type  2   force =     0.00004522    0.00000574    0.00021518
     atom   96 type  2   force =     0.00022537   -0.00005471    0.00017455
     atom   97 type  2   force =     0.00001333    0.00000663    0.00133336
     atom   98 type  2   force =     0.00007166    0.00005192   -0.00030232
     atom   99 type  2   force =     0.00068602    0.00072137   -0.00029972
     atom  100 type  1   force =     0.00067320    0.00009036    0.00004267
     atom  101 type  1   force =     0.00000028    0.00003381    0.00187350
     atom  102 type  1   force =     0.00000174   -0.00000799   -0.00001866
     atom  103 type  2   force =    -0.00000278    0.00001036   -0.00305874
     atom  104 type  2   force =     0.00001920   -0.00000710    0.00020596
     atom  105 type  2   force =     0.00005622    0.00028994    0.00012263
     atom  106 type  2   force =     0.00000145    0.00000055    0.00131927
     atom  107 type  2   force =     0.00001923    0.00000198   -0.00030397
     atom  108 type  2   force =    -0.00023174    0.00015191   -0.00029730
     atom  109 type  1   force =    -0.00372377   -0.00062443   -0.00093532
     atom  110 type  1   force =    -0.00003418   -0.00000931    0.00188152
     atom  111 type  1   force =    -0.00004182    0.00002534    0.00001528
     atom  112 type  2   force =     0.00001338   -0.00000200   -0.00303735
     atom  113 type  2   force =    -0.00001057   -0.00002044    0.00023145
     atom  114 type  2   force =     0.00004923    0.00033798    0.00030528
     atom  115 type  2   force =     0.00002067    0.00000117    0.00131337
     atom  116 type  2   force =     0.00001377   -0.00000975   -0.00018893
     atom  117 type  2   force =    -0.00016486    0.00003902    0.00015579
     atom  118 type  1   force =     0.00015253    0.00036881    0.00009167
     atom  119 type  1   force =    -0.00001913   -0.00001406    0.00188421
     atom  120 type  1   force =    -0.00001409   -0.00007281    0.00002170
     atom  121 type  2   force =    -0.00000374   -0.00000729   -0.00304969
     atom  122 type  2   force =    -0.00005910   -0.00001619    0.00022785
     atom  123 type  2   force =     0.00035248   -0.00058995    0.00025718
     atom  124 type  2   force =     0.00000640   -0.00000625    0.00134950
     atom  125 type  2   force =    -0.00005433   -0.00001630   -0.00026722
     atom  126 type  2   force =     0.00017915   -0.00038270   -0.00000165
     atom  127 type  1   force =    -0.00009685   -0.00069253    0.00069147
     atom  128 type  1   force =    -0.00000875    0.00000306    0.00187626
     atom  129 type  1   force =    -0.00005706    0.00002400    0.00001128
     atom  130 type  2   force =     0.00000534    0.00000166   -0.00304997
     atom  131 type  2   force =    -0.00000438    0.00000195    0.00021031
     atom  132 type  2   force =    -0.00000727   -0.00018265   -0.00002406
     atom  133 type  2   force =    -0.00000184    0.00001241    0.00131950
     atom  134 type  2   force =    -0.00001878    0.00002057   -0.00024383
     atom  135 type  2   force =    -0.00039194    0.00005075   -0.00022260
     atom  136 type  1   force =    -0.00137575   -0.00204551   -0.00346121
     atom  137 type  1   force =     0.00000838   -0.00001255    0.00187411
     atom  138 type  1   force =     0.00000216   -0.00004679    0.00001905
     atom  139 type  2   force =     0.00001458    0.00000948   -0.00305082
     atom  140 type  2   force =     0.00000530    0.00000021    0.00021235
     atom  141 type  2   force =     0.00009581    0.00038214    0.00014433
     atom  142 type  2   force =     0.00000193   -0.00000292    0.00133580
     atom  143 type  2   force =    -0.00000500   -0.00002085   -0.00027174
     atom  144 type  2   force =     0.00015917    0.00015570    0.00059395
     atom  145 type  3   force =    -0.00654052   -0.00864240    0.00397364
     atom  146 type  3   force =     0.00561308   -0.00911602    0.00465081
     atom  147 type  3   force =    -0.00002600    0.00825800    0.02617348
     The non-local contrib.  to forces
     atom    1 type  1   force =    -0.00016525   -0.00296123    0.00860088
     atom    2 type  1   force =    -0.00000127   -0.00000248   -0.00196396
     atom    3 type  1   force =    -0.00006503   -0.00016293   -0.00073722
     atom    4 type  2   force =     0.00000740    0.00000459    0.26308903
     atom    5 type  2   force =     0.00004334   -0.00012878    0.26637666
     atom    6 type  2   force =     0.00010338   -0.00193970    0.26618329
     atom    7 type  2   force =     0.00000211    0.00000525   -0.26454554
     atom    8 type  2   force =    -0.00006852    0.00026691   -0.26403072
     atom    9 type  2   force =     0.08234749    0.04027321   -0.15994891
     atom   10 type  1   force =     0.00718778   -0.00221933   -0.02255146
     atom   11 type  1   force =    -0.00000428   -0.00000763   -0.00196856
     atom   12 type  1   force =    -0.00015950    0.00025570   -0.00090772
     atom   13 type  2   force =     0.00000973    0.00000156    0.26308783
     atom   14 type  2   force =     0.00001728   -0.00003400    0.26624395
     atom   15 type  2   force =    -0.00169402   -0.00150288    0.26647850
     atom   16 type  2   force =     0.00000684    0.00000275   -0.26454697
     atom   17 type  2   force =    -0.00021473   -0.00032473   -0.26426831
     atom   18 type  2   force =     0.10465145    0.06724620   -0.19101268
     atom   19 type  1   force =     0.00112672   -0.00097907   -0.00144040
     atom   20 type  1   force =    -0.00000565   -0.00000573   -0.00195901
     atom   21 type  1   force =    -0.00005559    0.00000186   -0.00046650
[...]
     atom   66 type  1   force =     0.00000217    0.00000167   -0.00001440
     atom   67 type  2   force =    -0.00000005    0.00000004    0.00441052
     atom   68 type  2   force =    -0.00000046    0.00000076   -0.00004912
     atom   69 type  2   force =    -0.00000168   -0.00000044   -0.00012857
     atom   70 type  2   force =    -0.00000046    0.00000015    0.00023826
     atom   71 type  2   force =    -0.00000539    0.00001223    0.00010691
     atom   72 type  2   force =    -0.00005466   -0.00003462   -0.00423246
     atom   73 type  1   force =     0.00000004    0.00007591   -0.00241378
     atom   74 type  1   force =     0.00000000    0.00000003    0.00260689
     atom   75 type  1   force =     0.00000505   -0.00000304   -0.00001573
     atom   76 type  2   force =    -0.00000000    0.00000000    0.00441064
     atom   77 type  2   force =     0.00000002   -0.00000030   -0.00004735
     atom   78 type  2   force =     0.00000313   -0.00000096   -0.00012156
     atom   79 type  2   force =    -0.00000020   -0.00000004    0.00023857
     atom   80 type  2   force =    -0.00000006    0.00000045    0.00011589
     atom   81 type  2   force =    -0.00044985    0.00025980   -0.00423067
     atom   82 type  1   force =    -0.00045986   -0.00006463   -0.00210086
     atom   83 type  1   force =     0.00000018   -0.00000018    0.00260667
     atom   84 type  1   force =     0.00001254   -0.00000182   -0.00003574
     atom   85 type  2   force =     0.00000004   -0.00000002    0.00441041
     atom   86 type  2   force =     0.00000066    0.00000042   -0.00004907
     atom   87 type  2   force =    -0.00015520    0.00001696    0.00024725
     atom   88 type  2   force =     0.00000023   -0.00000023    0.00023845
     atom   89 type  2   force =     0.00001279   -0.00000200    0.00010695
     atom   90 type  2   force =    -0.00088173   -0.00013205   -0.00404093
     atom   91 type  1   force =    -0.00028731   -0.00036572   -0.00210093
     atom   92 type  1   force =     0.00000022    0.00000015    0.00260640
     atom   93 type  1   force =     0.00000495    0.00001164   -0.00003590
     atom   94 type  2   force =     0.00000002    0.00000001    0.00441012
     atom   95 type  2   force =     0.00000159    0.00000075   -0.00005095
     atom   96 type  2   force =    -0.00006130   -0.00014444    0.00024858
     atom   97 type  2   force =     0.00000027    0.00000015    0.00023847
     atom   98 type  2   force =     0.00002087    0.00001216    0.00009981
     atom   99 type  2   force =    -0.00055786   -0.00069813   -0.00404147
     atom  100 type  1   force =     0.00006509   -0.00003794   -0.00241301
     atom  101 type  1   force =     0.00000001    0.00000026    0.00260664
     atom  102 type  1   force =     0.00000001    0.00000635   -0.00001650
     atom  103 type  2   force =     0.00000000    0.00000005    0.00441040
     atom  104 type  2   force =     0.00000047    0.00000077   -0.00004913
     atom  105 type  2   force =    -0.00000004    0.00000286   -0.00011980
     atom  106 type  2   force =    -0.00000001    0.00000028    0.00023844
     atom  107 type  2   force =     0.00000527    0.00001219    0.00010688
     atom  108 type  2   force =     0.00000004   -0.00052441   -0.00423260
     atom  109 type  1   force =     0.00062418    0.00036043   -0.00177513
     atom  110 type  1   force =    -0.00000019   -0.00000008    0.00260673
     atom  111 type  1   force =    -0.00000509   -0.00000305   -0.00001581
     atom  112 type  2   force =     0.00000000    0.00000000    0.00441064
     atom  113 type  2   force =    -0.00000009   -0.00000081   -0.00004904
     atom  114 type  2   force =    -0.00000302   -0.00000085   -0.00012155
     atom  115 type  2   force =     0.00000017   -0.00000003    0.00023856
     atom  116 type  2   force =    -0.00000762   -0.00001043    0.00010715
     atom  117 type  2   force =     0.00045004    0.00025985   -0.00423089
     atom  118 type  1   force =     0.00046002   -0.00006457   -0.00210088
     atom  119 type  1   force =    -0.00000018   -0.00000018    0.00260667
     atom  120 type  1   force =     0.00000000   -0.00000269   -0.00001438
     atom  121 type  2   force =     0.00000000    0.00000000    0.00441064
     atom  122 type  2   force =    -0.00000063    0.00000040   -0.00004907
     atom  123 type  2   force =     0.00000008    0.00000184   -0.00012794
     atom  124 type  2   force =    -0.00000000    0.00000010    0.00023847
     atom  125 type  2   force =    -0.00001288   -0.00000202    0.00010698
     atom  126 type  2   force =     0.00000011    0.00006765   -0.00423348
     atom  127 type  1   force =     0.00000007   -0.00000239   -0.00241434
     atom  128 type  1   force =     0.00000000    0.00000005    0.00260675
     atom  129 type  1   force =     0.00000303    0.00000175   -0.00001543
     atom  130 type  2   force =     0.00000005    0.00000002    0.00441051
     atom  131 type  2   force =     0.00000002    0.00000053   -0.00004837
     atom  132 type  2   force =    -0.00001909   -0.00000999   -0.00012186
     atom  133 type  2   force =     0.00000029    0.00000023    0.00023835
     atom  134 type  2   force =    -0.00000006    0.00000229    0.00011140
     atom  135 type  2   force =    -0.00048638   -0.00028057   -0.00416243
     atom  136 type  1   force =     0.00017350    0.00043220   -0.00210014
     atom  137 type  1   force =     0.00000003    0.00000004    0.00260684
     atom  138 type  1   force =    -0.00000218    0.00000164   -0.00001444
     atom  139 type  2   force =     0.00000005    0.00000004    0.00441052
     atom  140 type  2   force =     0.00000056   -0.00000006   -0.00004829
     atom  141 type  2   force =     0.00000199   -0.00000055   -0.00012866
     atom  142 type  2   force =     0.00000045    0.00000017    0.00023825
     atom  143 type  2   force =     0.00000224   -0.00000124    0.00011098
     atom  144 type  2   force =     0.00005443   -0.00003437   -0.00423236
     atom  145 type  3   force =    -0.00022444   -0.00012961   -0.00627614
     atom  146 type  3   force =     0.00022434   -0.00012961   -0.00627613
     atom  147 type  3   force =    -0.00000010    0.00025845   -0.00627792

     Total force =     0.002566     Total SCF correction =     0.000306
     SCF correction compared to forces is large: reduce conv_thr to get better values
     Energy error            =      1.3E-05 Ry
     Gradient error          =      7.3E-04 Ry/Bohr

     bfgs converged in  29 scf cycles and  28 bfgs steps
     (criteria: energy <  1.0E-04 Ry, force <  1.0E-03 Ry/Bohr)

     End of BFGS Geometry Optimization

     Final energy             =  -25381.1054353582 Ry

     File ./outdir/pwscf.bfgs deleted, as requested
Begin final coordinates

ATOMIC_POSITIONS (angstrom)
Mo            1.5762305487        2.6922651455        6.0800106114
Mo            1.5769197498        0.9104407117       -6.0872367793    0   0   0
Mo            0.0000415555        1.8208076853       -0.0015782049
S             0.0000044503        0.0000077495       -7.6506323570    0   0   0
S             1.5768070918        0.9106432628       -1.5672602219
S            -0.0060023577        1.8124911470        4.5215951948
S             0.0000053241        0.0000068460       -4.5222282367    0   0   0
S             1.5767821143        0.9098022763        1.5655523093
S            -0.0482186313        1.7816796831        7.6817283874
Mo           -0.0320647746        5.4794207894        6.0814350616
Mo            0.0000011799        3.6417399547       -6.0872367793    0   0   0
Mo           -1.5768386196        4.5518910206       -0.0015479749
S            -1.5769141197        2.7313069925       -7.6506323570    0   0   0
S             0.0003184628        3.6417542339       -1.5666571368
S            -1.5871890403        4.5504248129        4.5218293937
S            -1.5769132459        2.7313060890       -4.5222282367    0   0   0
S            -0.0002326389        3.6414592376        1.5665594755
S            -1.6364435247        4.5278524782        7.6805738226
Mo           -1.5828843280        8.2042144521        6.0777946062
Mo           -1.5769173901        6.3730391977       -6.0872367793    0   0   0
Mo           -3.1538355422        7.2830975278       -0.0024008053
S            -3.1538326896        5.4626062355       -7.6506323570    0   0   0
S            -1.5765348702        6.3725417058       -1.5671209388
S            -3.1573149290        7.2830679350        4.5095986535
S            -3.1538318159        5.4626053320       -4.5222282367    0   0   0
S            -1.5772389240        6.3728627949        1.5657034554
S            -3.1567461820        7.2827295565        7.6441118948
Mo            3.1606573215       -0.0102472827        6.0776574473
Mo           -3.1538359601        9.1043384407       -6.0872367793    0   0   0
Mo           -4.7308579750       10.0145389691       -0.0025002894
S            -4.7307512596        8.1939054785       -7.6506323570    0   0   0
S            -3.1539721638        9.1039835630       -1.5680125794
S            -4.7314577950       10.0098308677        4.5091349006
S            -4.7307503859        8.1939045750       -4.5222282367    0   0   0
S            -3.1540023044        9.1040074005        1.5643375322
S            -4.7315270013       10.0113877123        7.6428587570
Mo            4.7421019740        2.7227766909        6.0858567365
Mo            4.7307503218        0.9104407117       -6.0872367793    0   0   0
Mo            3.1535428225        1.8208133342       -0.0015612328
S             3.1538350223        0.0000077495       -7.6506323570    0   0   0
S             4.7300276783        0.9105121234       -1.5677367642
S             3.1583857227        1.8122930288        4.5215613417
S             3.1538358961        0.0000068460       -4.5222282367    0   0   0
S             4.7307154287        0.9100598579        1.5645649927
S             3.2007498208        1.7816717959        7.6816764727
Mo            3.1844846625        5.4794037342        6.0815285885
Mo            3.1538317519        3.6417399547       -6.0872367793    0   0   0
Mo            1.5767895565        4.5519398067       -0.0006820534
S             1.5769164523        2.7313069925       -7.6506323570    0   0   0
S             3.1532648543        3.6417555553       -1.5666641826
S             1.5762529474        4.5507477022        4.5504314987
S             1.5769173261        2.7313060890       -4.5222282367    0   0   0
S             3.1537995931        3.6414714039        1.5665700541
S             1.5761410397        4.5479630895        7.5860787512
Mo            1.5761850166        8.2089216360        6.0866842580
Mo            1.5769131819        6.3730391977       -6.0872367793    0   0   0
Mo            0.0000060707        7.2830106382       -0.0014141870
S            -0.0000021176        5.4626062355       -7.6506323570    0   0   0
S             1.5767867072        6.3723276149       -1.5665111713
S            -0.0042029800        7.2916996824        4.5226075540
S            -0.0000012439        5.4626053320       -4.5222282367    0   0   0
S             1.5767858912        6.3728070180        1.5667986156
S            -0.0107659323        7.3465973165        7.6807774959
Mo            6.3070096258       -0.0013750623        6.0754934399
Mo           -0.0000053881        9.1043384407       -6.0872367793    0   0   0
Mo           -1.5771229276       10.0145204846       -0.0026698783
S            -1.5769206876        8.1939054785       -7.6506323570    0   0   0
S            -0.0002785895        9.1034240549       -1.5677137425
S            -1.5770951116       10.0138546438        4.5052545883
S            -1.5769198139        8.1939045750       -4.5222282367    0   0   0
S            -0.0000532945        9.1044563679        1.5645122281
S            -1.5751585358       10.0160654039        7.6515493774
Mo            7.8838659941        2.7286577954        6.0750139593
Mo            7.8845808939        0.9104407117       -6.0872367793    0   0   0
Mo            6.3074850069        1.8205344336       -0.0027124405
S             6.3076655943        0.0000077495       -7.6506323570    0   0   0
S             7.8844418462        0.9103077912       -1.5683740984
S             6.3072924689        1.8184575449        4.5086751092
S             6.3076664681        0.0000068460       -4.5222282367    0   0   0
S             7.8844594077        0.9100347825        1.5641940897
S             6.3185376321        1.8122827553        7.6485389147
Mo            6.3195664841        5.4587495492        6.0779326794
Mo            6.3076623239        3.6417399547       -6.0872367793    0   0   0
Mo            4.7304149164        4.5518913035       -0.0015517908
S             4.7307470244        2.7313069925       -7.6506323570    0   0   0
S             6.3070420540        3.6416377360       -1.5676889462
S             4.7397316697        4.5504861484        4.5218230377
S             4.7307478981        2.7313060890       -4.5222282367    0   0   0
S             6.3076756383        3.6412113610        1.5645958733
S             4.7888737461        4.5277863511        7.6805495604
Mo            4.7352442642        8.2042341415        6.0776273756
Mo            4.7307437539        6.3730391977       -6.0872367793    0   0   0
Mo            3.1535678083        7.2830153775       -0.0014325422
S             3.1538284544        5.4626062355       -7.6506323570    0   0   0
S             4.7301325129        6.3725447230       -1.5671257576
S             3.1565121483        7.2916713872        4.5225807833
S             3.1538293281        5.4626053320       -4.5222282367    0   0   0
S             4.7307973623        6.3728712117        1.5656832938
S             3.1632094857        7.3466319651        7.6807269924
Mo            9.4607041128       -0.0013593857        6.0755970016
Mo            3.1538251839        9.1043384407       -6.0872367793    0   0   0
Mo            1.5767837605       10.0145277035       -0.0029452983
S             1.5769098844        8.1939054785       -7.6506323570    0   0   0
S             3.1538606821        9.1034377259       -1.5677220835
S             1.5762363156       10.0150696741        4.5087283708
S             1.5769107581        8.1939045750       -4.5222282367    0   0   0
S             3.1536211114        9.1044575664        1.5644949614
S             1.5761434025       10.0293886410        7.6506946966
Mo           -1.5896873696        2.7228019823        6.0860264492
Mo           11.0384114659        0.9104407117       -6.0872367793    0   0   0
Mo            9.4614129276        1.8205364998       -0.0027521852
S             9.4614961663        0.0000077495       -7.6506323570    0   0   0
S            11.0388926372        0.9105121511       -1.5677585281
S             9.4604836980        1.8184479052        4.5088379842
S             9.4614970401        0.0000068460       -4.5222282367    0   0   0
S            11.0381659437        0.9100760240        1.5645397467
S             9.4490929715        1.8122922470        7.6486921411
Mo           -3.1670680619        5.4587765167        6.0779437186
Mo            9.4614928959        3.6417399547       -6.0872367793    0   0   0
Mo            7.8844501598        4.5518036163       -0.0026188484
S             7.8845775964        2.7313069925       -7.6506323570    0   0   0
S             9.4618682212        3.6416559354       -1.5676981344
S             7.8839602172        4.5484465022        4.5052174692
S             7.8845784701        2.7313060890       -4.5222282367    0   0   0
S             9.4612091087        3.6411936392        1.5645840832
S             7.8839323951        4.5445745786        7.6519701849
Mo           -4.7315075795        8.1920171781        6.0772889588
Mo            7.8845743259        6.3730391977       -6.0872367793    0   0   0
Mo            6.3074261518        7.2831070371       -0.0024024272
S             6.3076590264        5.4626062355       -7.6506323570    0   0   0
S             7.8844598918        6.3727547529       -1.5679289385
S             6.3097249867        7.2830151705        4.5095167540
S             6.3076599001        5.4626053320       -4.5222282367    0   0   0
S             7.8844509965        6.3726936498        1.5643586124
S             6.3089772812        7.2827326068        7.6440097326
Mo           -0.0082319953       -0.0101549197        6.0775952975
Mo            6.3076557559        9.1043384407       -6.0872367793    0   0   0
Mo            4.7307036496       10.0145297739       -0.0026846953
S             4.7307404564        8.1939054785       -7.6506323570    0   0   0
S             6.3075895379        9.1039989026       -1.5680104170
S             4.7294414102       10.0140103855        4.5052202153
S             4.7307413301        8.1939045750       -4.5222282367    0   0   0
S             6.3075890267        9.1040295111        1.5643288643
S             4.7276300194       10.0160294063        7.6514591067
Pd            3.0312895083        5.3971097577        9.1140574610
Pd            0.1206129205        5.3971410650        9.1139626417
Pd            1.5762871552        2.8796048654        9.1266984726
End final coordinates



     Writing all to output data dir ./outdir/pwscf.save/
 
     init_run     :    104.64s CPU    106.93s WALL (       1 calls)
     electrons    : 128320.02s CPU 129854.06s WALL (      29 calls)
     update_pot   :    118.24s CPU    118.63s WALL (      28 calls)
     forces       :   1974.78s CPU   2031.91s WALL (      29 calls)
     force_dftd3  :     13.61s CPU     13.63s WALL (      29 calls)

     Called by init_run:
     wfcinit      :     85.74s CPU     87.02s WALL (       1 calls)
     potinit      :      1.85s CPU      1.91s WALL (       1 calls)
     hinit0       :     11.60s CPU     11.62s WALL (       1 calls)

     Called by electrons:
     c_bands      : 114522.74s CPU 115243.25s WALL (     349 calls)
     sum_band     :  12663.96s CPU  13136.86s WALL (     349 calls)
     v_of_rho     :    144.56s CPU    146.78s WALL (     353 calls)
     newd         :    737.84s CPU   1093.58s WALL (     353 calls)
     PAW_pot      :    208.52s CPU    208.57s WALL (     381 calls)
     mix_rho      :     33.34s CPU     33.45s WALL (     349 calls)
     energy_dftd3 :      6.16s CPU      6.16s WALL (      29 calls)

     Called by c_bands:
     init_us_2    :    581.09s CPU    581.23s WALL (    3024 calls)
     init_us_2:cp :    581.08s CPU    581.22s WALL (    3024 calls)
     cegterg      : 112680.40s CPU 113390.90s WALL (    1416 calls)

     Called by *egterg:
     cdiaghg      :   7341.90s CPU   7366.05s WALL (   17903 calls)
     h_psi        :  59797.98s CPU  60000.23s WALL (   18119 calls)
     s_psi        :  12146.34s CPU  12147.55s WALL (   18119 calls)
     g_psi        :    137.13s CPU    137.27s WALL (   16699 calls)

     Called by h_psi:
     h_psi:calbec :  12147.27s CPU  12150.04s WALL (   18119 calls)
     vloc_psi     :  35218.55s CPU  35294.75s WALL (   18119 calls)
     add_vuspsi   :  12270.77s CPU  12274.73s WALL (   18119 calls)

     General routines
     calbec       :  17245.94s CPU  17249.77s WALL (   20091 calls)
     fft          :    132.45s CPU    135.63s WALL (    4903 calls)
     ffts         :      6.29s CPU      6.31s WALL (     702 calls)
     fftw         :  27810.35s CPU  27866.53s WALL ( 7860608 calls)
     interpolate  :     14.28s CPU     14.50s WALL (     353 calls)
 
     Parallel routines
 
     PWSCF        :   1d12h26m CPU   1d12h53m WALL

 
   This run was terminated on:   7:11:15   5Nov2023            

=------------------------------------------------------------------------------=
   JOB DONE.
=------------------------------------------------------------------------------=
Application 11372245 resources: utime ~4722197s, stime ~59430s, Rss ~2406160, inblocks ~0, outblocks ~41555312
