
     Program PWSCF v.7.3 starts on 30Mar2024 at  9:24:16 

     This program is part of the open-source Quantum ESPRESSO suite
     for quantum simulation of materials; please cite
         "P. Giannozzi et al., J. Phys.:Condens. Matter 21 395502 (2009);
         "P. Giannozzi et al., J. Phys.:Condens. Matter 29 465901 (2017);
         "P. Giannozzi et al., J. Chem. Phys. 152 154105 (2020);
          URL http://www.quantum-espresso.org", 
     in publications or presentations arising from this work. More details at
     http://www.quantum-espresso.org/quote

     Parallel version (MPI & OpenMP), running on      36 processor cores
     Number of MPI processes:                36
     Threads/MPI process:                     1

     MPI processes distributed on     1 nodes
     557074 MiB available memory on the printing compute node when the environment starts
 
     Waiting for input...
     Reading input from standard input
Warning: card &CELL ignored
Warning: card / ignored

     Current dimensions of program PWSCF are:
     Max number of different atomic species (ntypx) = 10
     Max number of k-points (npk) =  40000
     Max angular momentum in pseudopotentials (lmaxx) =  4
     file Mo.pbe-spn-kjpaw_psl.1.0.0.UPF: wavefunction(s)  4S 4D renormalized
     file S.pbe-n-kjpaw_psl.1.0.0.UPF: wavefunction(s)  3S 3P renormalized
     file Pt.pbe-spfn-kjpaw_psl.1.0.0.UPF: wavefunction(s)  5P 4F renormalized
     file Pd.pbe-spn-kjpaw_psl.1.0.0.UPF: wavefunction(s)  4S 5S 4D renormalized
 
     R & G space division:  proc/nbgrp/npool/nimage =      36
     Subspace diagonalization in iterative solution of the eigenvalue problem:
     one sub-group per band group will be used
     scalapack distributed-memory algorithm (size of sub-group:  6*  6 procs)

 
     Parallelization info
     --------------------
     sticks:   dense  smooth     PW     G-vecs:    dense   smooth      PW
     Min         586     335     89               165416    71459    9765
     Max         587     337     90               165425    71461    9778
     Sum       21109   12085   3205              5955087  2572543  351657
 
     Using Slab Decomposition
 


     bravais-lattice index     =            0
     lattice parameter (alat)  =      23.8395  a.u.
     unit-cell volume          =   28182.8498 (a.u.)^3
     number of atoms/cell      =          147
     number of atomic types    =            4
     number of electrons       =      1330.00
     number of Kohn-Sham states=          798
     kinetic-energy cutoff     =      77.0000  Ry
     charge density cutoff     =     539.0000  Ry
     scf convergence threshold =      1.0E-06
     mixing beta               =       0.2000
     number of iterations used =            8  plain     mixing
     energy convergence thresh.=      1.0E-04
     force convergence thresh. =      1.0E-03
     Exchange-correlation= SLA  PW   PBX  PBC
                           (   1   4   3   4   0   0   0)
     nstep                     =         1000


     Effective Screening Medium Method
     =================================
     Boundary Conditions: Vacuum-Slab-Vacuum
     total charge in unit cell        =   0.0000
     grid points for fit at edges     =        4 
 

     celldm(1)=  23.839504  celldm(2)=   0.000000  celldm(3)=   0.000000
     celldm(4)=   0.000000  celldm(5)=   0.000000  celldm(6)=   0.000000

     crystal axes: (cart. coord. in units of alat)
               a(1) = (   1.000000   0.000000   0.000000 )  
               a(2) = (  -0.500001   0.866026   0.000000 )  
               a(3) = (   0.000000   0.000000   2.401941 )  

     reciprocal axes: (cart. coord. in units 2 pi/alat)
               b(1) = (  1.000000  0.577351  0.000000 )  
               b(2) = (  0.000000  1.154700  0.000000 )  
               b(3) = (  0.000000  0.000000  0.416330 )  


     PseudoPot. # 1 for Mo read from file:
     ./pseudo/Mo.pbe-spn-kjpaw_psl.1.0.0.UPF
     MD5 check sum: 317bf72632116215fd98f72de1686f13
     Pseudo is Projector augmented-wave + core cor, Zval = 14.0
     Generated using 'atomic' code by A. Dal Corso  v.7.2
     Shape of augmentation charge: PSQ
     Using radial grid of 1229 points,  6 beta functions with: 
                l(1) =   0
                l(2) =   0
                l(3) =   1
                l(4) =   1
                l(5) =   2
                l(6) =   2
     Q(r) pseudized with 0 coefficients 


     PseudoPot. # 2 for S  read from file:
     ./pseudo/S.pbe-n-kjpaw_psl.1.0.0.UPF
     MD5 check sum: 8b7b5302570d38d5e87fed6a1065abda
     Pseudo is Projector augmented-wave + core cor, Zval =  6.0
     Generated using 'atomic' code by A. Dal Corso  v.7.2
     Shape of augmentation charge: PSQ
     Using radial grid of 1151 points,  6 beta functions with: 
                l(1) =   0
                l(2) =   0
                l(3) =   1
                l(4) =   1
                l(5) =   2
                l(6) =   2
     Q(r) pseudized with 0 coefficients 


     PseudoPot. # 3 for Pt read from file:
     ./pseudo/Pt.pbe-spfn-kjpaw_psl.1.0.0.UPF
     MD5 check sum: 620096ebf4e6ebacc94de60fd67efcb5
     Pseudo is Projector augmented-wave + core cor, Zval = 32.0
     Generated using 'atomic' code by A. Dal Corso  v.7.2
     Shape of augmentation charge: PSQ
     Using radial grid of 1277 points,  8 beta functions with: 
                l(1) =   0
                l(2) =   0
                l(3) =   1
                l(4) =   1
                l(5) =   2
                l(6) =   2
                l(7) =   3
                l(8) =   3
     Q(r) pseudized with 0 coefficients 


     PseudoPot. # 4 for Pd read from file:
     ./pseudo/Pd.pbe-spn-kjpaw_psl.1.0.0.UPF
     MD5 check sum: a60571a671f2502b8a6a4569d20a6edb
     Pseudo is Projector augmented-wave + core cor, Zval = 18.0
     Generated using 'atomic' code by A. Dal Corso  v.7.2
     Shape of augmentation charge: PSQ
     Using radial grid of 1235 points,  6 beta functions with: 
                l(1) =   0
                l(2) =   0
                l(3) =   1
                l(4) =   1
                l(5) =   2
                l(6) =   2
     Q(r) pseudized with 0 coefficients 


     atomic species   valence    mass     pseudopotential
     Mo               14.00    95.95000     Mo( 1.00)
     S                 6.00    32.06000     S ( 1.00)
     Pt               32.00   195.08400     Pt( 1.00)
     Pd               18.00   106.42000     Pd( 1.00)

     No symmetry found



   Cartesian axes

     site n.     atom                  positions (alat units)
         1        Mo     tau(   1) = (   0.1246074   0.2157200   0.4826345  )
         2        Mo     tau(   2) = (   0.1250004   0.0721694  -0.4825273  )
         3        Mo     tau(   3) = (   0.0000068   0.1443549  -0.0000406  )
         4        S      tau(   4) = (   0.0000004   0.0000006  -0.6064556  )
         5        S      tau(   5) = (   0.1249873   0.0722031  -0.1241756  )
         6        S      tau(   6) = (   0.0000973   0.1450650   0.3573519  )
         7        S      tau(   7) = (   0.0000004   0.0000005  -0.3584711  )
         8        S      tau(   8) = (   0.1249847   0.0720950   0.1240801  )
         9        S      tau(   9) = (  -0.0005301   0.1434694   0.6062599  )
        10        Mo     tau(  10) = (  -0.0009156   0.4330317   0.4832560  )
        11        Mo     tau(  11) = (   0.0000001   0.2886759  -0.4825273  )
        12        Mo     tau(  12) = (  -0.1249829   0.3608507   0.0000027  )
        13        S      tau(  13) = (  -0.1249999   0.2165071  -0.6064556  )
        14        S      tau(  14) = (   0.0000128   0.2886930  -0.1241006  )
        15        S      tau(  15) = (  -0.1248837   0.3612581   0.3580377  )
        16        S      tau(  16) = (  -0.1249998   0.2165070  -0.3584711  )
        17        S      tau(  17) = (   0.0000764   0.2887257   0.1242499  )
        18        S      tau(  18) = (  -0.1253220   0.3603286   0.6073134  )
        19        Mo     tau(  19) = (  -0.1249684   0.6493789   0.4818062  )
        20        Mo     tau(  20) = (  -0.1250002   0.5051824  -0.4825273  )
        21        Mo     tau(  21) = (  -0.2500040   0.5773207  -0.0001409  )
        22        S      tau(  22) = (  -0.2500002   0.4330136  -0.6064556  )
        23        S      tau(  23) = (  -0.1249903   0.5051158  -0.1241917  )
        24        S      tau(  24) = (  -0.2499555   0.5769406   0.3578597  )
        25        S      tau(  25) = (  -0.2500001   0.4330135  -0.3584711  )
        26        S      tau(  26) = (  -0.1249930   0.5052458   0.1241101  )
        27        S      tau(  27) = (  -0.2497899   0.5778453   0.6063597  )
        28        Mo     tau(  28) = (   0.2497834  -0.0005160   0.4806710  )
        29        Mo     tau(  29) = (  -0.2500004   0.7216889  -0.4825273  )
        30        Mo     tau(  30) = (  -0.3750188   0.7938286  -0.0001549  )
        31        S      tau(  31) = (  -0.3750004   0.6495201  -0.6064556  )
        32        S      tau(  32) = (  -0.2500074   0.7216649  -0.1242513  )
        33        S      tau(  33) = (  -0.3752234   0.7935039   0.3566636  )
        34        S      tau(  34) = (  -0.3750004   0.6495200  -0.3584711  )
        35        S      tau(  35) = (  -0.2499996   0.7216607   0.1240200  )
        36        S      tau(  36) = (  -0.3746819   0.7948899   0.6057341  )
        37        Mo     tau(  37) = (   0.3750034   0.2123618   0.4807886  )
        38        Mo     tau(  38) = (   0.3750004   0.0721694  -0.4825273  )
        39        Mo     tau(  39) = (   0.2499981   0.1443415  -0.0000413  )
        40        S      tau(  40) = (   0.2500004   0.0000006  -0.6064556  )
        41        S      tau(  41) = (   0.3750280   0.0722231  -0.1241519  )
        42        S      tau(  42) = (   0.2489233   0.1437373   0.3564531  )
        43        S      tau(  43) = (   0.2500004   0.0000005  -0.3584711  )
        44        S      tau(  44) = (   0.3749877   0.0720947   0.1241383  )
        45        S      tau(  45) = (   0.2497122   0.1423104   0.6055821  )
        46        Mo     tau(  46) = (   0.2490774   0.4329018   0.4862977  )
        47        Mo     tau(  47) = (   0.2500001   0.2886759  -0.4825273  )
        48        Mo     tau(  48) = (   0.1250319   0.3608540  -0.0000126  )
        49        S      tau(  49) = (   0.1250001   0.2165071  -0.6064556  )
        50        S      tau(  50) = (   0.2500259   0.2886851  -0.1240979  )
        51        S      tau(  51) = (   0.1263042   0.3620125   0.3614359  )
        52        S      tau(  52) = (   0.1250002   0.2165070  -0.3584711  )
        53        S      tau(  53) = (   0.2500168   0.2886898   0.1242904  )
        54        S      tau(  54) = (   0.1173694   0.3566575   0.6132890  )
        55        Mo     tau(  55) = (   0.1240062   0.6506471   0.4823696  )
        56        Mo     tau(  56) = (   0.1249998   0.5051824  -0.4825273  )
        57        Mo     tau(  57) = (   0.0000191   0.5773226  -0.0001255  )
        58        S      tau(  58) = (  -0.0000002   0.4330136  -0.6064556  )
        59        S      tau(  59) = (   0.1250359   0.5051398  -0.1241676  )
        60        S      tau(  60) = (   0.0000697   0.5768181   0.3580317  )
        61        S      tau(  61) = (  -0.0000001   0.4330135  -0.3584711  )
        62        S      tau(  62) = (   0.1250059   0.5052001   0.1242069  )
        63        S      tau(  63) = (  -0.0003304   0.5778980   0.6066479  )
        64        Mo     tau(  64) = (   0.5003257  -0.0004925   0.4803774  )
        65        Mo     tau(  65) = (  -0.0000004   0.7216889  -0.4825273  )
        66        Mo     tau(  66) = (  -0.1249927   0.7938427  -0.0001655  )
        67        S      tau(  67) = (  -0.1250004   0.6495201  -0.6064556  )
        68        S      tau(  68) = (   0.0000418   0.7216760  -0.1242215  )
        69        S      tau(  69) = (  -0.1250504   0.7929751   0.3566577  )
        70        S      tau(  70) = (  -0.1250004   0.6495200  -0.3584711  )
        71        S      tau(  71) = (  -0.0000163   0.7216479   0.1240623  )
        72        S      tau(  72) = (  -0.1248984   0.7939509   0.6051552  )
        73        Mo     tau(  73) = (   0.6254010   0.2160480   0.4824065  )
        74        Mo     tau(  74) = (   0.6250004   0.0721694  -0.4825273  )
        75        Mo     tau(  75) = (   0.5000167   0.1443371   0.0000092  )
        76        S      tau(  76) = (   0.5000004   0.0000006  -0.6064556  )
        77        S      tau(  77) = (   0.6250207   0.0721868  -0.1241145  )
        78        S      tau(  78) = (   0.5010641   0.1438734   0.3562763  )
        79        S      tau(  79) = (   0.5000004   0.0000005  -0.3584711  )
        80        S      tau(  80) = (   0.6250414   0.0720927   0.1241409  )
        81        S      tau(  81) = (   0.5005473   0.1420509   0.6053992  )
        82        Mo     tau(  82) = (   0.5016373   0.4329758   0.4857863  )
        83        Mo     tau(  83) = (   0.5000001   0.2886759  -0.4825273  )
        84        Mo     tau(  84) = (   0.3750027   0.3608467   0.0000234  )
        85        S      tau(  85) = (   0.3750001   0.2165071  -0.6064556  )
        86        S      tau(  86) = (   0.5000046   0.2886693  -0.1240592  )
        87        S      tau(  87) = (   0.3745963   0.3620572   0.3631324  )
        88        S      tau(  88) = (   0.3750002   0.2165070  -0.3584711  )
        89        S      tau(  89) = (   0.4999634   0.2887051   0.1243131  )
        90        S      tau(  90) = (   0.3781068   0.3490112   0.6089630  )
        91        Mo     tau(  91) = (   0.3753335   0.6518408   0.4830502  )
        92        Mo     tau(  92) = (   0.3749998   0.5051824  -0.4825273  )
        93        Mo     tau(  93) = (   0.2500203   0.5772987  -0.0000555  )
        94        S      tau(  94) = (   0.2499998   0.4330136  -0.6064556  )
        95        S      tau(  95) = (   0.3750008   0.5051221  -0.1241383  )
        96        S      tau(  96) = (   0.2501878   0.5758780   0.3616377  )
        97        S      tau(  97) = (   0.2499999   0.4330135  -0.3584711  )
        98        S      tau(  98) = (   0.3750015   0.5051839   0.1242620  )
        99        S      tau(  99) = (   0.2495016   0.5878580   0.6113208  )
       100        Mo     tau( 100) = (   0.7500199   0.0003818   0.4811571  )
       101        Mo     tau( 101) = (   0.2499996   0.7216889  -0.4825273  )
       102        Mo     tau( 102) = (   0.1250316   0.7938162  -0.0000875  )
       103        S      tau( 103) = (   0.1249996   0.6495201  -0.6064556  )
       104        S      tau( 104) = (   0.2500359   0.7216507  -0.1241461  )
       105        S      tau( 105) = (   0.1254554   0.7934228   0.3566219  )
       106        S      tau( 106) = (   0.1249996   0.6495200  -0.3584711  )
       107        S      tau( 107) = (   0.2500086   0.7215741   0.1241838  )
       108        S      tau( 108) = (   0.1244907   0.7952297   0.6057917  )
       109        Mo     tau( 109) = (  -0.1249741   0.2166510   0.4819241  )
       110        Mo     tau( 110) = (   0.8750004   0.0721694  -0.4825273  )
       111        Mo     tau( 111) = (   0.7500133   0.1443436  -0.0000073  )
       112        S      tau( 112) = (   0.7500004   0.0000006  -0.6064556  )
       113        S      tau( 113) = (   0.8749956   0.0721731  -0.1241058  )
       114        S      tau( 114) = (   0.7500203   0.1449522   0.3574598  )
       115        S      tau( 115) = (   0.7500004   0.0000005  -0.3584711  )
       116        S      tau( 116) = (   0.8750238   0.0721604   0.1241841  )
       117        S      tau( 117) = (   0.7504201   0.1437382   0.6062629  )
       118        Mo     tau( 118) = (  -0.2493495   0.4328575   0.4828262  )
       119        Mo     tau( 119) = (   0.7500001   0.2886759  -0.4825273  )
       120        Mo     tau( 120) = (   0.6249856   0.3608477   0.0000279  )
       121        S      tau( 121) = (   0.6250001   0.2165071  -0.6064556  )
       122        S      tau( 122) = (   0.7499958   0.2886820  -0.1240679  )
       123        S      tau( 123) = (   0.6241512   0.3616755   0.3603414  )
       124        S      tau( 124) = (   0.6250002   0.2165070  -0.3584711  )
       125        S      tau( 125) = (   0.7499862   0.2887159   0.1242658  )
       126        S      tau( 126) = (   0.6305969   0.3581080   0.6112211  )
       127        Mo     tau( 127) = (  -0.3742668   0.6505223   0.4820597  )
       128        Mo     tau( 128) = (   0.6249998   0.5051824  -0.4825273  )
       129        Mo     tau( 129) = (   0.4999851   0.5773046  -0.0000631  )
       130        S      tau( 130) = (   0.4999998   0.4330136  -0.6064556  )
       131        S      tau( 131) = (   0.6249723   0.5051139  -0.1241565  )
       132        S      tau( 132) = (   0.4998783   0.5762956   0.3606843  )
       133        S      tau( 133) = (   0.4999999   0.4330135  -0.3584711  )
       134        S      tau( 134) = (   0.6250095   0.5052263   0.1241915  )
       135        S      tau( 135) = (   0.5006407   0.5846211   0.6091832  )
       136        Mo     tau( 136) = (   0.0000410   0.0004185   0.4809769  )
       137        Mo     tau( 137) = (   0.4999996   0.7216889  -0.4825273  )
       138        Mo     tau( 138) = (   0.3750036   0.7938273  -0.0000272  )
       139        S      tau( 139) = (   0.3749996   0.6495201  -0.6064556  )
       140        S      tau( 140) = (   0.4999499   0.7216482  -0.1241729  )
       141        S      tau( 141) = (   0.3750006   0.7941054   0.3569117  )
       142        S      tau( 142) = (   0.3749996   0.6495200  -0.3584711  )
       143        S      tau( 143) = (   0.5000314   0.7216102   0.1241515  )
       144        S      tau( 144) = (   0.3752329   0.7966920   0.6062052  )
       145        Pt     tau( 145) = (   0.2580795   0.4348292   0.7095693  )
       146        Pd     tau( 146) = (   0.4899479   0.4358638   0.7204770  )
       147        Pt     tau( 147) = (   0.3740293   0.4353833   0.8759982  )

     --------------------------------------------
     DFT-D3 Dispersion Correction (3-body terms):
     --------------------------------------------
       Reference C6 values for interpolation: 

         atom   Coordination number   C6
         S          0.000           268.01
         S          0.995           261.99
         S          1.990           251.62
         Mo         0.000          1691.79
         Mo         1.942          1004.01
         Mo        11.056           674.22
         Pd         0.000          1217.01
         Pd         1.863           573.90
         Pd         5.710           531.75
         Pt         0.000           782.29
         Pt         1.919           692.72
         Pt         6.667           673.75

       Values used:

         atom   Coordination number  R0_AB[au]  C6      C8
         Mo        10.200            3.547    674.22  77634.20
         Mo        10.189            3.547    674.22  77634.20
         Mo        10.200            3.547    674.22  77634.20
         S          3.753            3.128    251.62  12327.25
         S          3.858            3.128    251.62  12327.25
         S          3.854            3.128    251.62  12327.25
         S          3.858            3.128    251.62  12327.25
         S          3.864            3.128    251.62  12327.25
         S          3.814            3.128    251.62  12327.25
         Mo        10.207            3.547    674.22  77634.20
         Mo        10.189            3.547    674.22  77634.20
         Mo        10.201            3.547    674.22  77634.20
         S          3.753            3.128    251.62  12327.25
         S          3.859            3.128    251.62  12327.25
         S          3.853            3.128    251.62  12327.25
         S          3.858            3.128    251.62  12327.25
         S          3.855            3.128    251.62  12327.25
         S          3.817            3.128    251.62  12327.25
         Mo        10.231            3.547    674.22  77634.20
         Mo        10.189            3.547    674.22  77634.20
         Mo        10.201            3.547    674.22  77634.20
         S          3.753            3.128    251.62  12327.25
         S          3.858            3.128    251.62  12327.25
         S          3.865            3.128    251.62  12327.25
         S          3.859            3.128    251.62  12327.25
         S          3.860            3.128    251.62  12327.25
         S          3.761            3.128    251.62  12327.25
         Mo        10.258            3.547    674.22  77634.20
         Mo        10.189            3.547    674.22  77634.20
         Mo        10.200            3.547    674.22  77634.20
         S          3.753            3.128    251.62  12327.25
         S          3.857            3.128    251.62  12327.25
         S          3.856            3.128    251.62  12327.25
         S          3.859            3.128    251.62  12327.25
         S          3.864            3.128    251.62  12327.25
         S          3.803            3.128    251.62  12327.25
         Mo        10.158            3.547    674.22  77634.20
         Mo        10.189            3.547    674.22  77634.20
         Mo        10.200            3.547    674.22  77634.20
         S          3.753            3.128    251.62  12327.25
         S          3.858            3.128    251.62  12327.25
         S          3.842            3.128    251.62  12327.25
         S          3.859            3.128    251.62  12327.25
         S          3.863            3.128    251.62  12327.25
         S          3.812            3.128    251.62  12327.25
         Mo        10.849            3.547    674.22  77634.20
         Mo        10.189            3.547    674.22  77634.20
         Mo        10.202            3.547    674.22  77634.20
         S          3.753            3.128    251.62  12327.25
         S          3.859            3.128    251.62  12327.25
         S          3.851            3.128    251.62  12327.25
         S          3.858            3.128    251.62  12327.25
         S          3.851            3.128    251.62  12327.25
         S          4.636            3.128    251.62  12327.25
         Mo        10.195            3.547    674.22  77634.20
         Mo        10.189            3.547    674.22  77634.20
         Mo        10.201            3.547    674.22  77634.20
         S          3.753            3.128    251.62  12327.25
         S          3.859            3.128    251.62  12327.25
         S          3.864            3.128    251.62  12327.25
         S          3.859            3.128    251.62  12327.25
         S          3.853            3.128    251.62  12327.25
         S          3.758            3.128    251.62  12327.25
         Mo        10.259            3.547    674.22  77634.20
         Mo        10.189            3.547    674.22  77634.20
         Mo        10.200            3.547    674.22  77634.20
         S          3.753            3.128    251.62  12327.25
         S          3.858            3.128    251.62  12327.25
         S          3.858            3.128    251.62  12327.25
         S          3.859            3.128    251.62  12327.25
         S          3.863            3.128    251.62  12327.25
         S          3.783            3.128    251.62  12327.25
         Mo        10.209            3.547    674.22  77634.20
         Mo        10.189            3.547    674.22  77634.20
         Mo        10.200            3.547    674.22  77634.20
         S          3.753            3.128    251.62  12327.25
         S          3.859            3.128    251.62  12327.25
         S          3.839            3.128    251.62  12327.25
         S          3.859            3.128    251.62  12327.25
         S          3.863            3.128    251.62  12327.25
         S          3.836            3.128    251.62  12327.25
         Mo        10.710            3.547    674.22  77634.20
         Mo        10.189            3.547    674.22  77634.20
         Mo        10.202            3.547    674.22  77634.20
         S          3.753            3.128    251.62  12327.25
         S          3.859            3.128    251.62  12327.25
         S          3.873            3.128    251.62  12327.25
         S          3.858            3.128    251.62  12327.25
         S          3.851            3.128    251.62  12327.25
         S          5.679            3.128    251.62  12327.25
         Mo        10.152            3.547    674.22  77634.20
         Mo        10.189            3.547    674.22  77634.20
         Mo        10.203            3.547    674.22  77634.20
         S          3.753            3.128    251.62  12327.25
         S          3.859            3.128    251.62  12327.25
         S          3.861            3.128    251.62  12327.25
         S          3.859            3.128    251.62  12327.25
         S          3.849            3.128    251.62  12327.25
         S          4.673            3.128    251.62  12327.25
         Mo        10.241            3.547    674.22  77634.20
         Mo        10.189            3.547    674.22  77634.20
         Mo        10.200            3.547    674.22  77634.20
         S          3.753            3.128    251.62  12327.25
         S          3.858            3.128    251.62  12327.25
         S          3.852            3.128    251.62  12327.25
         S          3.859            3.128    251.62  12327.25
         S          3.858            3.128    251.62  12327.25
         S          3.820            3.128    251.62  12327.25
         Mo        10.231            3.547    674.22  77634.20
         Mo        10.189            3.547    674.22  77634.20
         Mo        10.200            3.547    674.22  77634.20
         S          3.753            3.128    251.62  12327.25
         S          3.858            3.128    251.62  12327.25
         S          3.857            3.128    251.62  12327.25
         S          3.858            3.128    251.62  12327.25
         S          3.861            3.128    251.62  12327.25
         S          3.803            3.128    251.62  12327.25
         Mo        10.222            3.547    674.22  77634.20
         Mo        10.189            3.547    674.22  77634.20
         Mo        10.201            3.547    674.22  77634.20
         S          3.753            3.128    251.62  12327.25
         S          3.859            3.128    251.62  12327.25
         S          3.849            3.128    251.62  12327.25
         S          3.858            3.128    251.62  12327.25
         S          3.855            3.128    251.62  12327.25
         S          4.618            3.128    251.62  12327.25
         Mo        10.207            3.547    674.22  77634.20
         Mo        10.189            3.547    674.22  77634.20
         Mo        10.202            3.547    674.22  77634.20
         S          3.753            3.128    251.62  12327.25
         S          3.858            3.128    251.62  12327.25
         S          3.862            3.128    251.62  12327.25
         S          3.858            3.128    251.62  12327.25
         S          3.855            3.128    251.62  12327.25
         S          4.668            3.128    251.62  12327.25
         Mo        10.248            3.547    674.22  77634.20
         Mo        10.189            3.547    674.22  77634.20
         Mo        10.201            3.547    674.22  77634.20
         S          3.753            3.128    251.62  12327.25
         S          3.858            3.128    251.62  12327.25
         S          3.844            3.128    251.62  12327.25
         S          3.859            3.128    251.62  12327.25
         S          3.859            3.128    251.62  12327.25
         S          3.836            3.128    251.62  12327.25
         Pt         5.390            3.168    673.75  70061.90
         Pd         5.077            3.168    531.75  48720.73
         Pt         1.969            3.168    692.72  72035.25

         Molecular C6 ( Ry / a.u.^6 ) =   8079625.01


     number of k points=     4  Gaussian smearing, width (Ry)=  0.0100
                       cart. coord. in units 2pi/alat
        k(    1) = (   0.0000000   0.0000000   0.0000000), wk =   0.5000000
        k(    2) = (   0.0000000  -0.5773499   0.0000000), wk =   0.5000000
        k(    3) = (  -0.5000000  -0.2886755   0.0000000), wk =   0.5000000
        k(    4) = (  -0.5000000  -0.8660254   0.0000000), wk =   0.5000000

     Dense  grid:  5955087 G-vectors     FFT dimensions: ( 180, 180, 432)

     Smooth grid:  2572543 G-vectors     FFT dimensions: ( 135, 135, 320)

     Estimated max dynamical RAM per process >       3.09 GB

     Estimated total dynamical RAM >     111.14 GB

     Initial potential from superposition of free atoms

     starting charge    1329.9539, renormalised to    1330.0000

     negative rho (up, down):  7.945E-04 0.000E+00
     Starting wfcs are  908 randomized atomic wfcs
     Checking if some PAW data can be deallocated... 

     total cpu time spent up to now is      101.0 secs

     Self-consistent Calculation

     iteration #  1     ecut=    77.00 Ry     beta= 0.20
     Davidson diagonalization with overlap
     ethr =  1.00E-02,  avg # of iterations =  2.0

     Threshold (ethr) on eigenvalues was too large:
     Diagonalizing with lowered threshold

     Davidson diagonalization with overlap
     ethr =  2.06E-04,  avg # of iterations = 15.8

     negative rho (up, down):  2.258E-04 0.000E+00

     total cpu time spent up to now is     1114.1 secs

     total energy              =  -27706.28686291 Ry
     estimated scf accuracy    <       5.01169048 Ry

     iteration #  2     ecut=    77.00 Ry     beta= 0.20
     Davidson diagonalization with overlap
     ethr =  3.77E-04,  avg # of iterations =  5.0

     negative rho (up, down):  1.060E-04 0.000E+00

     total cpu time spent up to now is     1348.2 secs

     total energy              =  -27705.85516567 Ry
     estimated scf accuracy    <       3.15786151 Ry

     iteration #  3     ecut=    77.00 Ry     beta= 0.20
     Davidson diagonalization with overlap
     c_bands:  1 eigenvalues not converged
     c_bands:  1 eigenvalues not converged
     c_bands:  1 eigenvalues not converged
     ethr =  2.37E-04,  avg # of iterations = 15.5

     negative rho (up, down):  3.872E-05 0.000E+00

     total cpu time spent up to now is     1604.7 secs

     total energy              =  -27705.28286095 Ry
     estimated scf accuracy    <       3.78006937 Ry

     iteration #  4     ecut=    77.00 Ry     beta= 0.20
     Davidson diagonalization with overlap
     ethr =  2.37E-04,  avg # of iterations =  9.0

     negative rho (up, down):  2.753E-05 0.000E+00

     total cpu time spent up to now is     1852.1 secs

     total energy              =  -27702.62430345 Ry
     estimated scf accuracy    <      88.82400927 Ry

     iteration #  5     ecut=    77.00 Ry     beta= 0.20
     Davidson diagonalization with overlap
     ethr =  2.37E-04,  avg # of iterations =  9.0

     negative rho (up, down):  1.667E-05 0.000E+00

     total cpu time spent up to now is     2099.4 secs

     total energy              =  -27705.65432899 Ry
     estimated scf accuracy    <       0.91353813 Ry

     iteration #  6     ecut=    77.00 Ry     beta= 0.20
     Davidson diagonalization with overlap
     c_bands:  1 eigenvalues not converged
     c_bands:  4 eigenvalues not converged
     ethr =  6.87E-05,  avg # of iterations = 18.5

     negative rho (up, down):  3.925E-05 0.000E+00

     total cpu time spent up to now is     2614.1 secs

     total energy              =  -27706.26030112 Ry
     estimated scf accuracy    <       0.52698472 Ry

     iteration #  7     ecut=    77.00 Ry     beta= 0.20
     Davidson diagonalization with overlap
     c_bands:  4 eigenvalues not converged
     ethr =  3.96E-05,  avg # of iterations = 12.8

     negative rho (up, down):  5.739E-05 0.000E+00

     total cpu time spent up to now is     2890.2 secs

     total energy              =  -27706.29545663 Ry
     estimated scf accuracy    <       0.18083598 Ry

     iteration #  8     ecut=    77.00 Ry     beta= 0.20
     Davidson diagonalization with overlap
     c_bands:  4 eigenvalues not converged
     c_bands:  5 eigenvalues not converged
     c_bands:  5 eigenvalues not converged
     ethr =  1.36E-05,  avg # of iterations = 19.8

     negative rho (up, down):  1.037E-04 0.000E+00

     total cpu time spent up to now is     3433.4 secs

     total energy              =  -27706.40657122 Ry
     estimated scf accuracy    <       0.11337503 Ry

     iteration #  9     ecut=    77.00 Ry     beta= 0.20
     Davidson diagonalization with overlap
     c_bands:  5 eigenvalues not converged
     c_bands:  5 eigenvalues not converged
     ethr =  8.52E-06,  avg # of iterations = 22.5

     negative rho (up, down):  2.766E-04 0.000E+00

     total cpu time spent up to now is     3792.2 secs

     total energy              =  -27706.39893670 Ry
     estimated scf accuracy    <       0.09759867 Ry

     iteration # 10     ecut=    77.00 Ry     beta= 0.20
     Davidson diagonalization with overlap
     c_bands:  1 eigenvalues not converged
     ethr =  7.34E-06,  avg # of iterations = 12.5

     negative rho (up, down):  4.053E-04 0.000E+00

     total cpu time spent up to now is     4107.3 secs

     total energy              =  -27706.42713668 Ry
     estimated scf accuracy    <       0.01825151 Ry

     iteration # 11     ecut=    77.00 Ry     beta= 0.20
     Davidson diagonalization with overlap
     c_bands:  1 eigenvalues not converged
     c_bands:  3 eigenvalues not converged
     c_bands:  3 eigenvalues not converged
     c_bands:  5 eigenvalues not converged
     ethr =  1.37E-06,  avg # of iterations = 30.0

     negative rho (up, down):  4.008E-04 0.000E+00

     total cpu time spent up to now is     4931.6 secs

     total energy              =  -27706.44912873 Ry
     estimated scf accuracy    <       0.02111952 Ry

     iteration # 12     ecut=    77.00 Ry     beta= 0.20
     Davidson diagonalization with overlap
     c_bands:  2 eigenvalues not converged
     c_bands:  2 eigenvalues not converged
     c_bands:  2 eigenvalues not converged
     c_bands:  2 eigenvalues not converged
     ethr =  1.37E-06,  avg # of iterations = 20.0

     negative rho (up, down):  4.370E-04 0.000E+00

     total cpu time spent up to now is     5206.7 secs

     total energy              =  -27706.44724082 Ry
     estimated scf accuracy    <       0.01287111 Ry

     iteration # 13     ecut=    77.00 Ry     beta= 0.20
     Davidson diagonalization with overlap
     c_bands:  2 eigenvalues not converged
     c_bands:  2 eigenvalues not converged
     c_bands:  2 eigenvalues not converged
     ethr =  9.68E-07,  avg # of iterations = 17.2

     negative rho (up, down):  5.625E-04 0.000E+00

     total cpu time spent up to now is     5479.5 secs

     total energy              =  -27706.44568607 Ry
     estimated scf accuracy    <       0.00627062 Ry

     iteration # 14     ecut=    77.00 Ry     beta= 0.20
     Davidson diagonalization with overlap
     c_bands:  2 eigenvalues not converged
     c_bands:  2 eigenvalues not converged
     c_bands:  4 eigenvalues not converged
     c_bands:  5 eigenvalues not converged
     ethr =  4.71E-07,  avg # of iterations = 25.0

     negative rho (up, down):  5.918E-04 0.000E+00

     total cpu time spent up to now is     6111.7 secs

     total energy              =  -27706.44833936 Ry
     estimated scf accuracy    <       0.01229779 Ry

     iteration # 15     ecut=    77.00 Ry     beta= 0.20
     Davidson diagonalization with overlap
     c_bands:  1 eigenvalues not converged
     c_bands:  4 eigenvalues not converged
     c_bands:  3 eigenvalues not converged
     ethr =  4.71E-07,  avg # of iterations = 17.5

     negative rho (up, down):  6.898E-04 0.000E+00

     total cpu time spent up to now is     6471.4 secs

     total energy              =  -27706.45022582 Ry
     estimated scf accuracy    <       0.00089807 Ry

     iteration # 16     ecut=    77.00 Ry     beta= 0.20
     Davidson diagonalization with overlap
     c_bands:  1 eigenvalues not converged
     ethr =  6.75E-08,  avg # of iterations = 17.5

     negative rho (up, down):  7.110E-04 0.000E+00

     total cpu time spent up to now is     7152.5 secs

     total energy              =  -27706.45145198 Ry
     estimated scf accuracy    <       0.00117750 Ry

     iteration # 17     ecut=    77.00 Ry     beta= 0.20
     Davidson diagonalization with overlap
     c_bands:  1 eigenvalues not converged
     ethr =  6.75E-08,  avg # of iterations = 10.8

     negative rho (up, down):  7.564E-04 0.000E+00

     total cpu time spent up to now is     7396.8 secs

     total energy              =  -27706.45140979 Ry
     estimated scf accuracy    <       0.00027572 Ry

     iteration # 18     ecut=    77.00 Ry     beta= 0.20
     Davidson diagonalization with overlap
     ethr =  2.07E-08,  avg # of iterations = 16.5

     negative rho (up, down):  7.859E-04 0.000E+00

     total cpu time spent up to now is     7987.9 secs

     total energy              =  -27706.45166924 Ry
     estimated scf accuracy    <       0.00023112 Ry

     iteration # 19     ecut=    77.00 Ry     beta= 0.20
     Davidson diagonalization with overlap
     ethr =  1.74E-08,  avg # of iterations =  2.0

     negative rho (up, down):  8.224E-04 0.000E+00

     total cpu time spent up to now is     8212.5 secs

     total energy              =  -27706.45161750 Ry
     estimated scf accuracy    <       0.00009087 Ry

     iteration # 20     ecut=    77.00 Ry     beta= 0.20
     Davidson diagonalization with overlap
     ethr =  6.83E-09,  avg # of iterations = 16.0

     negative rho (up, down):  8.402E-04 0.000E+00

     total cpu time spent up to now is     8751.5 secs

     total energy              =  -27706.45169042 Ry
     estimated scf accuracy    <       0.00005864 Ry

     iteration # 21     ecut=    77.00 Ry     beta= 0.20
     Davidson diagonalization with overlap
     ethr =  4.41E-09,  avg # of iterations =  7.8

     negative rho (up, down):  8.470E-04 0.000E+00

     total cpu time spent up to now is     9012.2 secs

     total energy              =  -27706.45169237 Ry
     estimated scf accuracy    <       0.00001222 Ry

     iteration # 22     ecut=    77.00 Ry     beta= 0.20
     Davidson diagonalization with overlap
     c_bands:  1 eigenvalues not converged
     c_bands:  3 eigenvalues not converged
     c_bands:  1 eigenvalues not converged
     ethr =  9.19E-10,  avg # of iterations = 19.8

     negative rho (up, down):  8.508E-04 0.000E+00

     total cpu time spent up to now is     9781.8 secs

     total energy              =  -27706.45171360 Ry
     estimated scf accuracy    <       0.00001005 Ry

     iteration # 23     ecut=    77.00 Ry     beta= 0.20
     Davidson diagonalization with overlap
     c_bands:  3 eigenvalues not converged
     ethr =  7.56E-10,  avg # of iterations =  6.2

     negative rho (up, down):  8.534E-04 0.000E+00

     total cpu time spent up to now is    10011.7 secs

     total energy              =  -27706.45171181 Ry
     estimated scf accuracy    <       0.00000464 Ry

     iteration # 24     ecut=    77.00 Ry     beta= 0.20
     Davidson diagonalization with overlap
     c_bands:  1 eigenvalues not converged
     ethr =  3.49E-10,  avg # of iterations = 13.8

     negative rho (up, down):  8.579E-04 0.000E+00

     total cpu time spent up to now is    10298.7 secs

     total energy              =  -27706.45170987 Ry
     estimated scf accuracy    <       0.00000234 Ry

     iteration # 25     ecut=    77.00 Ry     beta= 0.20
     Davidson diagonalization with overlap
     ethr =  1.76E-10,  avg # of iterations = 17.2

     negative rho (up, down):  8.603E-04 0.000E+00

     total cpu time spent up to now is    10857.1 secs

     total energy              =  -27706.45171064 Ry
     estimated scf accuracy    <       0.00000335 Ry

     iteration # 26     ecut=    77.00 Ry     beta= 0.20
     Davidson diagonalization with overlap
     ethr =  1.76E-10,  avg # of iterations =  7.8

     negative rho (up, down):  8.622E-04 0.000E+00

     total cpu time spent up to now is    11098.6 secs

     End of self-consistent calculation

          k = 0.0000 0.0000 0.0000 (321495 PWs)   bands (ev):

  -103.5258-101.4223 -89.4484 -71.9307 -71.9213 -71.8751 -71.8205 -71.7953
   -71.7894 -71.7764 -69.8860 -69.8788 -69.7994 -69.7741 -69.7473 -69.7230
   -69.7191 -66.8485 -66.8274 -66.8274 -66.8274 -66.8274 -66.8274 -66.8274
   -66.8062 -66.8062 -66.8062 -66.8062 -66.8062 -66.8062 -66.8062 -66.8062
   -66.8062 -66.7830 -66.7625 -66.7623 -66.7621 -66.7616 -66.7614 -66.7613
   -66.7414 -66.7412 -66.7412 -66.7411 -66.7408 -66.7407 -66.7401 -66.7400
   -66.7394 -66.7304 -66.7129 -66.7020 -66.6981 -66.6972 -66.6921 -66.6878
   -66.6810 -66.6797 -66.6680 -66.6653 -66.6628 -66.6559 -66.6450 -66.6381
   -66.6314 -57.8308 -57.7584 -57.5275 -55.9619 -55.6506 -55.3037 -55.2770
   -55.2451 -54.9890 -41.1749 -41.1749 -41.1749 -41.1084 -41.1082 -41.1079
   -41.1001 -41.1001 -41.1001 -41.1001 -41.1001 -41.1001 -41.0418 -41.0358
   -41.0340 -41.0338 -41.0337 -41.0335 -41.0332 -41.0332 -41.0331 -41.0086
   -40.9746 -40.9746 -40.9746 -40.9745 -40.9745 -40.9745 -40.9695 -40.9687
   -40.9672 -40.9672 -40.9672 -40.9672 -40.9671 -40.9671 -40.9595 -40.9546
   -40.9459 -40.9436 -40.9397 -40.9397 -40.9397 -40.9397 -40.9397 -40.9397
   -40.9389 -40.9255 -40.9255 -40.9255 -40.9255 -40.9255 -40.9255 -40.9254
   -40.9254 -40.9254 -40.9097 -40.9083 -40.9082 -40.9082 -40.9078 -40.9077
   -40.9077 -40.9028 -40.9025 -40.9024 -40.9019 -40.9018 -40.9017 -40.8811
   -40.8735 -40.8735 -40.8734 -40.8730 -40.8730 -40.8729 -40.8697 -40.8656
   -40.8619 -40.8619 -40.8619 -40.8612 -40.8611 -40.8610 -40.8609 -40.8607
   -40.8605 -40.8601 -40.8599 -40.8593 -40.8508 -40.8474 -40.8408 -40.8383
   -40.8359 -40.8324 -40.8300 -40.8240 -40.8213 -40.8186 -40.8151 -40.8151
   -40.8151 -40.8151 -40.8151 -40.8151 -40.8107 -40.8083 -40.8056 -40.8015
   -40.7999 -40.7961 -40.7956 -40.7955 -40.7954 -40.7945 -40.7926 -40.7906
   -40.7864 -40.7814 -40.7782 -40.7750 -40.7696 -40.7678 -40.7678 -40.7492
   -40.7490 -40.7489 -40.7484 -40.7484 -40.7483 -40.7249 -40.7177 -40.7145
   -40.7014 -40.7014 -40.6788 -40.6761 -40.6698 -40.6653 -40.6573 -40.6529
   -40.6163 -40.6080 -20.3224 -20.2537 -20.0983 -19.7780 -19.4422 -19.4278
   -19.4158 -19.4156 -19.4138 -19.4072 -19.3886 -19.3744 -19.3189 -19.3155
   -19.3007 -19.2637 -19.2455 -19.2404 -19.2078 -19.2015 -19.1740 -19.0398
   -18.9200 -18.8534 -18.7078 -18.6872 -18.6712 -18.6436 -18.6243 -18.6168
   -18.5948 -18.5655 -18.5455 -18.5283 -18.5019 -18.4643 -18.4365 -18.4272
   -18.3792 -18.3762 -18.3637 -18.3260 -18.3175 -18.3128 -18.3087 -18.3084
   -18.3079 -18.3078 -18.3073 -18.3067 -18.2679 -18.2678 -18.2678 -18.2391
   -18.2369 -18.2310 -18.2277 -18.2244 -18.2225 -18.2134 -18.1968 -18.1962
   -18.1917 -18.1714 -18.1481 -18.1413 -18.1329 -18.1319 -18.1245 -18.1146
   -18.1099 -18.1089 -18.0998 -18.0867 -18.0844 -18.0805 -18.0798 -18.0771
   -18.0596 -18.0510 -18.0469 -18.0357 -18.0261 -18.0149 -18.0148 -18.0087
   -18.0079 -17.9893 -17.9838 -17.9793 -17.9627 -17.9462 -17.9417 -17.9307
   -17.9274 -17.9243 -12.3818 -12.1821 -12.0798 -11.9949 -11.9238 -11.9220
   -11.9186 -11.8693 -11.8386 -11.8329 -11.8275 -11.6292 -11.5567 -11.4876
   -11.4092 -11.3879 -11.3758 -11.3723 -11.3720 -11.3643 -11.3442 -11.3169
   -11.3001 -11.2975 -11.2965 -11.2925 -11.2892 -11.2838 -11.2717 -11.2322
   -11.1898 -11.1697 -11.1622 -11.1539 -11.1480 -11.1445 -11.1213 -11.1021
   -11.0947 -11.0864 -11.0832 -11.0800 -11.0563 -11.0536 -11.0434 -11.0225
   -11.0090 -11.0039 -11.0002 -10.9993 -10.9989 -10.9971 -10.9940 -10.9871
   -10.9800 -10.9708 -10.9698 -10.9687 -10.9541 -10.9529 -10.9507 -10.9477
   -10.9454 -10.9406 -10.8989 -10.8982 -10.8841 -10.8710 -10.8573 -10.8252
   -10.7978 -10.7932 -10.7800 -10.7680 -10.7634 -10.6883 -10.5746 -10.3777
   -10.2967 -10.2172 -10.2162 -10.2139 -10.1172 -10.0765 -10.0711 -10.0522
    -9.9790  -9.9590  -9.9533  -9.9460  -9.9416  -9.9354  -9.9188  -9.9107
    -9.8826  -9.8734  -9.8702  -9.8572  -9.8499  -9.8402  -9.8257  -9.8025
    -9.7944  -9.7902  -9.7878  -9.7861  -9.7809  -9.7635  -9.7608  -9.7480
    -9.7437  -9.7428  -9.7414  -9.7396  -9.7385  -9.7318  -9.7075  -9.7026
    -9.6980  -9.6842  -9.6373  -9.6262  -9.6161  -9.6067  -9.6035  -9.5993
    -9.5960  -9.5455  -9.5381  -9.5162  -9.5120  -9.5053  -9.4919  -9.4792
    -9.4685  -9.4326  -9.4218  -9.4029  -9.3965  -9.3804  -9.3706  -9.3659
    -9.3613  -9.3505  -9.3301  -9.3130  -9.2800  -9.2619  -9.2179  -9.1915
    -9.1890  -9.1875  -9.1866  -9.1863  -9.1851  -9.1813  -9.1683  -9.1288
    -9.1104  -9.1099  -9.1047  -9.0756  -9.0484  -9.0380  -9.0313  -9.0216
    -8.9959  -8.9858  -8.9712  -8.9675  -8.9645  -8.9629  -8.9608  -8.9560
    -8.9382  -8.9326  -8.9214  -8.9195  -8.9038  -8.8915  -8.8843  -8.8746
    -8.8720  -8.8713  -8.7225  -8.6861  -8.6380  -8.5977  -8.5977  -8.5752
    -8.5433  -8.5256  -8.5255  -8.4862  -8.4857  -8.4855  -8.4855  -8.4855
    -8.4854  -8.4718  -8.4600  -8.4356  -8.4187  -8.4142  -8.4139  -8.4094
    -8.4090  -8.4047  -8.3890  -8.3728  -8.3482  -8.2640  -8.1934  -8.1376
    -8.1132  -8.0995  -8.0875  -8.0302  -7.9125  -7.8984  -7.8733  -7.8491
    -7.7935  -7.7729  -7.7502  -7.7501  -7.7500  -7.7498  -7.7494  -7.7492
    -7.7053  -7.7047  -7.7042  -7.7036  -7.7035  -7.7034  -7.7017  -7.6865
    -7.6818  -7.6779  -7.6739  -7.6719  -7.6706  -7.6684  -7.6609  -7.6439
    -7.6412  -7.6353  -7.6317  -7.6303  -7.6298  -7.6257  -7.6184  -7.6153
    -7.5913  -7.5886  -7.5852  -7.5848  -7.5832  -7.5708  -7.5591  -7.5488
    -7.5201  -7.4845  -7.4738  -7.4689  -7.4687  -7.4646  -7.4155  -7.4007
    -7.3990  -7.3899  -7.3764  -7.3611  -7.3314  -7.3070  -7.2474  -7.2264
    -7.2037  -7.1007  -7.0868  -7.0635  -7.0419  -7.0140  -7.0055  -6.9810
    -6.9734  -6.9670  -6.9528  -6.9121  -6.8786  -6.8749  -6.8365  -6.8125
    -6.8075  -6.7930  -6.7909  -6.7844  -6.7790  -6.7733  -6.7655  -6.7082
    -6.7022  -6.6922  -6.6870  -6.6842  -6.6777  -6.6714  -6.6676  -6.6592
    -6.6344  -6.6281  -6.6136  -6.6040  -6.5967  -6.5909  -6.5903  -6.5868
    -6.5700  -6.5376  -6.5185  -6.5168  -6.5168  -6.5168  -6.5167  -6.5167
    -6.5164  -6.4992  -6.4586  -6.4451  -6.4409  -6.4400  -6.4396  -6.4393
    -6.4332  -6.4262  -6.3925  -6.3748  -6.3666  -6.3506  -6.3047  -6.1733
    -6.1041  -5.7910  -5.7591  -5.5578  -5.4476  -5.2964  -5.2139  -5.1767
    -5.0714  -4.8407  -4.0096  -4.0022  -4.0011  -3.9999  -3.9969  -3.9864
    -3.9714  -3.9699  -3.9679  -3.9667  -3.9647  -3.9577  -3.8145  -3.7758
    -3.7703  -3.7660  -3.7529  -3.7520  -3.7471  -3.7378  -3.7345  -3.7313
    -3.7297  -3.6741  -3.6574  -3.6573  -3.6572  -3.6447  -3.6406  -3.6390
    -3.6385  -3.6375  -3.6369  -3.5921  -3.5907  -3.5901  -3.5825  -3.5625
    -3.5565  -3.5492  -3.5460  -3.5432  -3.5379  -3.5352  -3.5296  -3.5261
    -3.5202  -3.5167  -3.5103  -3.5046  -3.4895  -3.4758  -3.4652  -3.4422
    -3.4325  -3.4263  -3.4175  -3.4080  -3.3966  -3.3921  -3.3794  -3.3612
    -3.3240  -3.1918  -3.1913  -3.1910  -3.1861  -3.1860  -3.1404  -3.1236
    -3.1205  -3.1195  -3.1189  -3.1187  -3.1186  -3.1184  -3.1183  -3.1076
    -3.1025  -3.0996  -3.0955  -3.0915  -3.0813  -3.0668  -3.0631  -3.0607
    -3.0569  -3.0524  -3.0484  -3.0467  -3.0457  -3.0382  -3.0354  -3.0286
    -3.0245  -3.0132  -2.9879  -2.9790  -2.9735  -2.9636  -2.9503  -2.9428
    -2.9300  -2.9296  -2.9071  -2.9062  -2.9051  -2.9040  -2.9013  -2.8951
    -2.8604  -2.8600  -2.8457  -2.8291  -2.8206  -2.7999  -2.7933  -2.7797
    -2.7750  -2.7648  -2.7204  -2.7040  -2.7002  -2.6911  -2.6873  -2.6834
    -2.6574  -2.6426  -2.6358  -2.6191  -2.6112  -2.6005

          k = 0.0000-0.5773 0.0000 (321564 PWs)   bands (ev):

  -103.5258-101.4223 -89.4484 -71.9307 -71.9213 -71.8751 -71.8205 -71.7953
   -71.7894 -71.7764 -69.8860 -69.8788 -69.7994 -69.7741 -69.7473 -69.7229
   -69.7191 -66.8424 -66.8423 -66.8318 -66.8318 -66.8168 -66.8168 -66.8168
   -66.8168 -66.8124 -66.8124 -66.8062 -66.8062 -66.8062 -66.8062 -66.8018
   -66.8018 -66.7772 -66.7764 -66.7663 -66.7662 -66.7517 -66.7515 -66.7510
   -66.7509 -66.7473 -66.7464 -66.7412 -66.7411 -66.7409 -66.7395 -66.7363
   -66.7362 -66.7300 -66.7123 -66.7058 -66.6988 -66.6943 -66.6910 -66.6875
   -66.6819 -66.6798 -66.6669 -66.6660 -66.6631 -66.6558 -66.6451 -66.6381
   -66.6313 -57.8308 -57.7584 -57.5275 -55.9619 -55.6506 -55.3037 -55.2770
   -55.2451 -54.9890 -41.1435 -41.1435 -41.1435 -41.1435 -41.1169 -41.1168
   -41.1049 -41.1049 -41.0773 -41.0772 -41.0769 -41.0759 -41.0545 -41.0545
   -41.0545 -41.0545 -41.0505 -41.0498 -41.0383 -41.0382 -41.0238 -41.0198
   -40.9965 -40.9965 -40.9921 -40.9897 -40.9880 -40.9879 -40.9878 -40.9878
   -40.9866 -40.9866 -40.9779 -40.9758 -40.9758 -40.9716 -40.9650 -40.9526
   -40.9463 -40.9463 -40.9463 -40.9463 -40.9377 -40.9377 -40.9318 -40.9311
   -40.9256 -40.9256 -40.9255 -40.9255 -40.9254 -40.9254 -40.9201 -40.9200
   -40.9183 -40.9168 -40.9168 -40.9153 -40.9108 -40.9107 -40.9073 -40.9062
   -40.8952 -40.8948 -40.8948 -40.8948 -40.8948 -40.8822 -40.8818 -40.8816
   -40.8811 -40.8810 -40.8731 -40.8723 -40.8716 -40.8617 -40.8610 -40.8610
   -40.8607 -40.8603 -40.8603 -40.8603 -40.8603 -40.8594 -40.8591 -40.8590
   -40.8519 -40.8518 -40.8497 -40.8483 -40.8482 -40.8447 -40.8401 -40.8314
   -40.8291 -40.8290 -40.8290 -40.8288 -40.8282 -40.8275 -40.8274 -40.8218
   -40.8142 -40.8122 -40.8122 -40.8048 -40.8032 -40.8001 -40.7965 -40.7940
   -40.7939 -40.7939 -40.7938 -40.7893 -40.7878 -40.7822 -40.7817 -40.7817
   -40.7814 -40.7813 -40.7761 -40.7690 -40.7647 -40.7632 -40.7621 -40.7606
   -40.7458 -40.7457 -40.7410 -40.7394 -40.7236 -40.7199 -40.7160 -40.7158
   -40.7148 -40.7080 -40.7032 -40.6899 -40.6854 -40.6774 -40.6639 -40.6533
   -40.6381 -40.6140 -20.2102 -20.0463 -20.0322 -19.9413 -19.8753 -19.8194
   -19.6481 -19.6156 -19.5933 -19.5418 -19.4507 -19.4189 -19.2500 -18.9812
   -18.9312 -18.9101 -18.9058 -18.9010 -18.8979 -18.8836 -18.8667 -18.8400
   -18.8005 -18.7791 -18.7717 -18.7611 -18.7530 -18.7117 -18.7045 -18.7034
   -18.6558 -18.6528 -18.6322 -18.6169 -18.5942 -18.5809 -18.5648 -18.5566
   -18.5310 -18.4951 -18.4617 -18.4491 -18.4414 -18.3953 -18.3830 -18.3802
   -18.3531 -18.3387 -18.3049 -18.2890 -18.2888 -18.2884 -18.2881 -18.2880
   -18.2746 -18.2620 -18.2455 -18.2257 -18.2159 -18.2150 -18.2121 -18.2076
   -18.2046 -18.1771 -18.1746 -18.1543 -18.1486 -18.1445 -18.1366 -18.1309
   -18.1124 -18.1016 -18.0998 -18.0895 -18.0850 -18.0736 -18.0548 -18.0377
   -18.0265 -18.0249 -18.0249 -18.0213 -17.9870 -17.9748 -17.9657 -17.9655
   -17.9563 -17.9495 -17.9495 -17.9457 -17.9215 -17.9166 -17.9059 -17.9025
   -17.8553 -17.8457 -12.3257 -12.0996 -11.8622 -11.8487 -11.8013 -11.6838
   -11.6370 -11.6368 -11.6343 -11.6326 -11.6127 -11.6063 -11.5898 -11.5645
   -11.5535 -11.5386 -11.5366 -11.5175 -11.4893 -11.4761 -11.4657 -11.4631
   -11.4451 -11.4385 -11.4206 -11.4177 -11.4177 -11.3896 -11.3729 -11.3726
   -11.3586 -11.3187 -11.3142 -11.3132 -11.2946 -11.2689 -11.1967 -11.1690
   -11.1628 -11.1496 -11.1279 -11.1142 -11.0946 -11.0782 -11.0761 -11.0737
   -11.0651 -11.0428 -11.0308 -11.0254 -11.0052 -10.9954 -10.9918 -10.9910
   -10.9900 -10.9893 -10.9708 -10.9602 -10.9462 -10.9313 -10.9273 -10.9231
   -10.9140 -10.8926 -10.8608 -10.7809 -10.7490 -10.7351 -10.6576 -10.6517
   -10.5937 -10.5470 -10.5122 -10.4279 -10.3674 -10.3343 -10.3082 -10.2926
   -10.2828 -10.2670 -10.2530 -10.2245 -10.1978 -10.1624 -10.1457 -10.1324
   -10.1093 -10.0994 -10.0931 -10.0915 -10.0868 -10.0753 -10.0640 -10.0542
   -10.0470 -10.0397  -9.9935  -9.9739  -9.9593  -9.9499  -9.9238  -9.9088
    -9.9005  -9.8863  -9.8790  -9.8763  -9.8652  -9.8603  -9.8390  -9.8290
    -9.8227  -9.8142  -9.8053  -9.7775  -9.7753  -9.7619  -9.7558  -9.7109
    -9.6996  -9.6919  -9.6869  -9.6687  -9.6357  -9.6307  -9.6235  -9.5986
    -9.5297  -9.4979  -9.4859  -9.4519  -9.4398  -9.4046  -9.3909  -9.3663
    -9.3661  -9.3486  -9.3109  -9.3045  -9.2981  -9.2948  -9.2838  -9.2768
    -9.2715  -9.2604  -9.2174  -9.2091  -9.1981  -9.1918  -9.1879  -9.1687
    -9.1545  -9.1449  -9.1328  -9.1299  -9.1091  -9.1076  -9.1006  -9.0962
    -9.0925  -9.0861  -9.0755  -9.0630  -9.0470  -9.0453  -9.0316  -9.0207
    -9.0195  -9.0153  -9.0025  -9.0018  -9.0002  -8.9988  -8.9833  -8.9765
    -8.9539  -8.9510  -8.9358  -8.9238  -8.9174  -8.9035  -8.8986  -8.8957
    -8.8835  -8.7988  -8.7618  -8.7179  -8.6730  -8.6728  -8.6369  -8.5956
    -8.5847  -8.5765  -8.5474  -8.4970  -8.4369  -8.4209  -8.3541  -8.3541
    -8.3332  -8.2834  -8.2816  -8.2543  -8.2324  -8.2135  -8.1995  -8.1342
    -8.0943  -8.0935  -8.0486  -8.0283  -8.0224  -8.0160  -8.0113  -8.0091
    -8.0074  -8.0074  -8.0060  -8.0049  -7.9946  -7.9644  -7.9622  -7.9611
    -7.9608  -7.9562  -7.9382  -7.9375  -7.9207  -7.9203  -7.9162  -7.9028
    -7.8983  -7.8926  -7.8869  -7.8822  -7.8762  -7.8683  -7.8635  -7.8517
    -7.8483  -7.8340  -7.8295  -7.8221  -7.8220  -7.8132  -7.8044  -7.7930
    -7.7850  -7.7838  -7.7569  -7.7520  -7.7508  -7.7398  -7.7338  -7.7228
    -7.6995  -7.6969  -7.6448  -7.6293  -7.6086  -7.5945  -7.5533  -7.5169
    -7.4675  -7.4297  -7.4081  -7.3913  -7.3893  -7.3839  -7.3585  -7.3036
    -7.2787  -7.2688  -7.2508  -7.2275  -7.2191  -7.2004  -7.1773  -7.1726
    -7.1712  -7.1370  -7.1230  -7.1043  -7.1014  -7.0940  -7.0854  -7.0717
    -7.0505  -7.0084  -7.0015  -6.9907  -6.9877  -6.9593  -6.9309  -6.8983
    -6.8633  -6.8303  -6.8210  -6.8191  -6.8191  -6.8190  -6.8178  -6.7828
    -6.7655  -6.7608  -6.7552  -6.7511  -6.7497  -6.7483  -6.7428  -6.6901
    -6.6755  -6.6529  -6.6383  -6.6124  -6.5743  -6.5535  -6.4878  -6.4877
    -6.4876  -6.4871  -6.4338  -6.4229  -6.4203  -6.4123  -6.4083  -6.4059
    -6.4046  -6.3706  -6.3608  -6.3583  -6.3527  -6.3226  -6.3100  -6.1963
    -6.1390  -6.1389  -6.1219  -6.0654  -6.0635  -6.0330  -6.0022  -5.9478
    -5.8986  -5.7719  -5.7524  -5.7173  -5.5157  -5.3737  -5.2125  -5.1820
    -5.0698  -4.8152  -4.1814  -4.1755  -4.1732  -4.1621  -4.0544  -4.0544
    -4.0380  -4.0291  -3.9902  -3.9899  -3.9565  -3.9383  -3.9327  -3.9215
    -3.9194  -3.8869  -3.8430  -3.8173  -3.7626  -3.7604  -3.7547  -3.7540
    -3.7404  -3.7397  -3.7291  -3.7167  -3.7027  -3.6748  -3.6704  -3.6621
    -3.6509  -3.6493  -3.6416  -3.6405  -3.6308  -3.6241  -3.6188  -3.6137
    -3.5936  -3.5720  -3.5388  -3.5257  -3.5186  -3.5079  -3.5071  -3.4982
    -3.4802  -3.4777  -3.4718  -3.4678  -3.4487  -3.4322  -3.4315  -3.4305
    -3.4304  -3.4241  -3.4150  -3.4064  -3.4004  -3.3927  -3.3794  -3.3778
    -3.3655  -3.3594  -3.3518  -3.3488  -3.3444  -3.3371  -3.3082  -3.2906
    -3.2760  -3.2712  -3.2648  -3.2545  -3.2282  -3.2253  -3.1932  -3.1892
    -3.1869  -3.1784  -3.1681  -3.1673  -3.1668  -3.1650  -3.1390  -3.1300
    -3.1193  -3.1181  -3.1073  -3.0947  -3.0918  -3.0845  -3.0790  -3.0750
    -3.0718  -3.0584  -3.0420  -3.0377  -3.0297  -3.0262  -3.0203  -3.0029
    -2.9895  -2.9736  -2.9601  -2.9589  -2.9567  -2.9341  -2.8974  -2.8916
    -2.8666  -2.8630  -2.8102  -2.8045  -2.8042  -2.7954  -2.7929  -2.7874
    -2.7301  -2.7202  -2.6739  -2.6661  -2.6549  -2.6528  -2.6455  -2.6150
    -2.5242  -2.5160  -2.4718  -2.4559  -2.4382  -2.4292

          k =-0.5000-0.2887 0.0000 (321564 PWs)   bands (ev):

  -103.5258-101.4223 -89.4484 -71.9307 -71.9213 -71.8751 -71.8205 -71.7953
   -71.7894 -71.7764 -69.8860 -69.8788 -69.7994 -69.7741 -69.7473 -69.7229
   -69.7191 -66.8423 -66.8423 -66.8318 -66.8318 -66.8168 -66.8168 -66.8168
   -66.8168 -66.8124 -66.8124 -66.8062 -66.8062 -66.8062 -66.8062 -66.8018
   -66.8018 -66.7769 -66.7767 -66.7663 -66.7662 -66.7514 -66.7513 -66.7513
   -66.7511 -66.7470 -66.7467 -66.7408 -66.7408 -66.7407 -66.7403 -66.7362
   -66.7362 -66.7298 -66.7140 -66.7031 -66.6992 -66.6945 -66.6917 -66.6861
   -66.6827 -66.6802 -66.6677 -66.6661 -66.6621 -66.6557 -66.6452 -66.6383
   -66.6312 -57.8308 -57.7584 -57.5275 -55.9619 -55.6506 -55.3037 -55.2770
   -55.2451 -54.9890 -41.1435 -41.1435 -41.1435 -41.1435 -41.1169 -41.1169
   -41.1049 -41.1049 -41.0769 -41.0769 -41.0768 -41.0766 -41.0545 -41.0545
   -41.0545 -41.0545 -41.0503 -41.0501 -41.0383 -41.0382 -41.0113 -41.0069
   -41.0042 -41.0013 -40.9965 -40.9965 -40.9937 -40.9879 -40.9879 -40.9879
   -40.9878 -40.9866 -40.9866 -40.9802 -40.9758 -40.9758 -40.9615 -40.9463
   -40.9463 -40.9463 -40.9463 -40.9393 -40.9377 -40.9377 -40.9316 -40.9313
   -40.9256 -40.9256 -40.9255 -40.9255 -40.9254 -40.9254 -40.9201 -40.9200
   -40.9168 -40.9168 -40.9168 -40.9123 -40.9108 -40.9107 -40.9061 -40.9010
   -40.8948 -40.8948 -40.8948 -40.8948 -40.8933 -40.8822 -40.8815 -40.8814
   -40.8813 -40.8813 -40.8729 -40.8726 -40.8710 -40.8618 -40.8607 -40.8606
   -40.8606 -40.8603 -40.8603 -40.8603 -40.8603 -40.8602 -40.8591 -40.8590
   -40.8519 -40.8519 -40.8518 -40.8483 -40.8482 -40.8414 -40.8385 -40.8365
   -40.8291 -40.8290 -40.8286 -40.8284 -40.8283 -40.8281 -40.8263 -40.8211
   -40.8159 -40.8122 -40.8122 -40.8094 -40.8018 -40.7971 -40.7955 -40.7939
   -40.7939 -40.7939 -40.7938 -40.7901 -40.7852 -40.7819 -40.7817 -40.7817
   -40.7817 -40.7816 -40.7802 -40.7690 -40.7637 -40.7628 -40.7625 -40.7600
   -40.7520 -40.7458 -40.7457 -40.7431 -40.7255 -40.7216 -40.7155 -40.7152
   -40.7134 -40.7047 -40.7007 -40.6905 -40.6888 -40.6736 -40.6625 -40.6409
   -40.6345 -40.6263 -20.2097 -20.0458 -20.0324 -19.9408 -19.8760 -19.8192
   -19.6590 -19.6138 -19.5951 -19.5352 -19.4512 -19.4161 -19.2373 -18.9764
   -18.9630 -18.9069 -18.9026 -18.9011 -18.8980 -18.8829 -18.8712 -18.8252
   -18.7996 -18.7777 -18.7732 -18.7679 -18.7465 -18.7148 -18.7125 -18.6992
   -18.6563 -18.6529 -18.6367 -18.6204 -18.5948 -18.5790 -18.5620 -18.5548
   -18.5386 -18.4871 -18.4744 -18.4365 -18.4177 -18.4016 -18.3889 -18.3785
   -18.3494 -18.3314 -18.3226 -18.2887 -18.2885 -18.2884 -18.2883 -18.2840
   -18.2683 -18.2653 -18.2346 -18.2315 -18.2183 -18.2132 -18.2127 -18.2069
   -18.1999 -18.1911 -18.1653 -18.1579 -18.1528 -18.1452 -18.1371 -18.1286
   -18.1095 -18.1043 -18.1024 -18.0929 -18.0836 -18.0773 -18.0474 -18.0451
   -18.0298 -18.0249 -18.0249 -18.0198 -17.9833 -17.9800 -17.9657 -17.9655
   -17.9631 -17.9498 -17.9489 -17.9428 -17.9214 -17.9099 -17.9046 -17.9000
   -17.8531 -17.8479 -12.3233 -12.0574 -11.8693 -11.8405 -11.8382 -11.7184
   -11.6588 -11.6366 -11.6344 -11.6320 -11.6251 -11.6113 -11.6060 -11.5600
   -11.5466 -11.5368 -11.5310 -11.5220 -11.4914 -11.4765 -11.4730 -11.4496
   -11.4470 -11.4310 -11.4271 -11.4177 -11.4177 -11.3732 -11.3723 -11.3666
   -11.3489 -11.3186 -11.3165 -11.3128 -11.3066 -11.2393 -11.2018 -11.1708
   -11.1571 -11.1396 -11.1328 -11.1194 -11.0988 -11.0793 -11.0767 -11.0683
   -11.0556 -11.0405 -11.0387 -11.0063 -11.0020 -10.9940 -10.9910 -10.9905
   -10.9892 -10.9840 -10.9751 -10.9698 -10.9530 -10.9403 -10.9277 -10.9221
   -10.9171 -10.9128 -10.8172 -10.7840 -10.7421 -10.7172 -10.6566 -10.6498
   -10.5645 -10.5346 -10.5133 -10.4600 -10.4356 -10.3981 -10.2938 -10.2893
   -10.2771 -10.2758 -10.2187 -10.2076 -10.1787 -10.1725 -10.1227 -10.1169
   -10.1071 -10.1007 -10.0974 -10.0899 -10.0798 -10.0651 -10.0598 -10.0557
   -10.0444 -10.0261  -9.9907  -9.9710  -9.9582  -9.9412  -9.9216  -9.9148
    -9.9019  -9.8962  -9.8764  -9.8726  -9.8629  -9.8614  -9.8531  -9.8214
    -9.8180  -9.8098  -9.7884  -9.7796  -9.7723  -9.7657  -9.7336  -9.7220
    -9.7029  -9.6931  -9.6866  -9.6774  -9.6426  -9.6348  -9.6306  -9.6012
    -9.5760  -9.5324  -9.5083  -9.4783  -9.4351  -9.4202  -9.3778  -9.3652
    -9.3580  -9.3355  -9.3254  -9.3049  -9.2946  -9.2861  -9.2767  -9.2716
    -9.2629  -9.2479  -9.2288  -9.2069  -9.1985  -9.1921  -9.1801  -9.1703
    -9.1512  -9.1507  -9.1362  -9.1269  -9.1203  -9.1076  -9.0960  -9.0937
    -9.0919  -9.0890  -9.0717  -9.0607  -9.0384  -9.0339  -9.0299  -9.0205
    -9.0185  -9.0120  -9.0067  -9.0005  -9.0002  -8.9964  -8.9871  -8.9795
    -8.9732  -8.9553  -8.9355  -8.9275  -8.9234  -8.9098  -8.8915  -8.8850
    -8.8696  -8.7949  -8.7659  -8.7261  -8.6730  -8.6726  -8.6176  -8.6037
    -8.5923  -8.5808  -8.5527  -8.5218  -8.4425  -8.3848  -8.3541  -8.3541
    -8.3371  -8.2830  -8.2821  -8.2811  -8.2398  -8.2086  -8.1689  -8.1007
    -8.0925  -8.0823  -8.0389  -8.0256  -8.0237  -8.0155  -8.0111  -8.0086
    -8.0074  -8.0074  -8.0066  -8.0043  -7.9756  -7.9624  -7.9617  -7.9608
    -7.9601  -7.9444  -7.9375  -7.9359  -7.9261  -7.9220  -7.9182  -7.9101
    -7.9003  -7.8914  -7.8872  -7.8824  -7.8755  -7.8715  -7.8594  -7.8502
    -7.8455  -7.8348  -7.8271  -7.8222  -7.8221  -7.8149  -7.8108  -7.7944
    -7.7872  -7.7742  -7.7667  -7.7562  -7.7523  -7.7430  -7.7363  -7.7305
    -7.7051  -7.6762  -7.6651  -7.6561  -7.6272  -7.5923  -7.5449  -7.4930
    -7.4735  -7.4325  -7.4060  -7.4018  -7.3967  -7.3874  -7.3636  -7.3159
    -7.3032  -7.2848  -7.2709  -7.2458  -7.2247  -7.2006  -7.1772  -7.1738
    -7.1704  -7.1451  -7.1119  -7.1099  -7.0956  -7.0873  -7.0678  -7.0615
    -7.0525  -7.0391  -7.0058  -6.9881  -6.9865  -6.9375  -6.8948  -6.8723
    -6.8655  -6.8293  -6.8191  -6.8191  -6.8190  -6.8189  -6.8035  -6.7805
    -6.7653  -6.7526  -6.7511  -6.7508  -6.7442  -6.7348  -6.7161  -6.6911
    -6.6732  -6.6650  -6.6230  -6.5966  -6.5725  -6.5082  -6.4881  -6.4876
    -6.4875  -6.4857  -6.4333  -6.4266  -6.4211  -6.4096  -6.4089  -6.4031
    -6.3960  -6.3911  -6.3730  -6.3605  -6.3545  -6.3287  -6.3183  -6.2337
    -6.1771  -6.1389  -6.1389  -6.0653  -6.0640  -6.0094  -6.0041  -5.9396
    -5.9258  -5.7923  -5.7465  -5.6997  -5.5009  -5.3805  -5.2023  -5.1838
    -5.0818  -4.8261  -4.1819  -4.1816  -4.1700  -4.1634  -4.0543  -4.0543
    -4.0365  -4.0251  -3.9902  -3.9900  -3.9517  -3.9425  -3.9394  -3.9295
    -3.9161  -3.8943  -3.8418  -3.8071  -3.7593  -3.7587  -3.7563  -3.7544
    -3.7402  -3.7399  -3.7339  -3.7145  -3.7100  -3.6867  -3.6678  -3.6590
    -3.6538  -3.6412  -3.6393  -3.6336  -3.6295  -3.6232  -3.6197  -3.5942
    -3.5905  -3.5446  -3.5312  -3.5233  -3.5160  -3.5121  -3.5075  -3.5074
    -3.4829  -3.4777  -3.4711  -3.4680  -3.4547  -3.4370  -3.4319  -3.4311
    -3.4302  -3.4298  -3.4136  -3.4051  -3.3983  -3.3929  -3.3832  -3.3747
    -3.3705  -3.3615  -3.3550  -3.3523  -3.3501  -3.3325  -3.3051  -3.2869
    -3.2793  -3.2761  -3.2544  -3.2480  -3.2280  -3.2262  -3.1919  -3.1889
    -3.1871  -3.1855  -3.1682  -3.1676  -3.1673  -3.1669  -3.1356  -3.1254
    -3.1196  -3.1183  -3.1069  -3.1001  -3.0873  -3.0820  -3.0793  -3.0735
    -3.0615  -3.0538  -3.0448  -3.0379  -3.0328  -3.0208  -3.0128  -2.9968
    -2.9862  -2.9784  -2.9735  -2.9616  -2.9599  -2.9463  -2.9002  -2.8916
    -2.8682  -2.8608  -2.8277  -2.8056  -2.8046  -2.7969  -2.7911  -2.7836
    -2.7295  -2.7202  -2.6821  -2.6698  -2.6585  -2.6501  -2.6416  -2.6267
    -2.5295  -2.5140  -2.4678  -2.4494  -2.4267  -2.3982

          k =-0.5000-0.8660 0.0000 (321564 PWs)   bands (ev):

  -103.5258-101.4223 -89.4484 -71.9307 -71.9213 -71.8751 -71.8205 -71.7953
   -71.7894 -71.7764 -69.8860 -69.8788 -69.7994 -69.7741 -69.7473 -69.7229
   -69.7191 -66.8423 -66.8423 -66.8318 -66.8318 -66.8168 -66.8168 -66.8168
   -66.8168 -66.8124 -66.8124 -66.8062 -66.8062 -66.8062 -66.8062 -66.8018
   -66.8018 -66.7769 -66.7766 -66.7663 -66.7661 -66.7515 -66.7514 -66.7513
   -66.7510 -66.7470 -66.7467 -66.7410 -66.7407 -66.7406 -66.7403 -66.7362
   -66.7361 -66.7299 -66.7135 -66.7028 -66.7003 -66.6948 -66.6914 -66.6865
   -66.6815 -66.6806 -66.6669 -66.6654 -66.6639 -66.6556 -66.6450 -66.6382
   -66.6313 -57.8308 -57.7584 -57.5275 -55.9619 -55.6506 -55.3037 -55.2770
   -55.2451 -54.9890 -41.1435 -41.1435 -41.1435 -41.1435 -41.1169 -41.1169
   -41.1049 -41.1049 -41.0771 -41.0769 -41.0767 -41.0765 -41.0545 -41.0545
   -41.0545 -41.0545 -41.0503 -41.0501 -41.0383 -41.0381 -41.0199 -41.0145
   -40.9997 -40.9965 -40.9965 -40.9917 -40.9880 -40.9879 -40.9878 -40.9878
   -40.9866 -40.9866 -40.9840 -40.9816 -40.9758 -40.9758 -40.9580 -40.9463
   -40.9463 -40.9463 -40.9463 -40.9441 -40.9377 -40.9377 -40.9316 -40.9313
   -40.9256 -40.9256 -40.9255 -40.9255 -40.9254 -40.9254 -40.9201 -40.9200
   -40.9168 -40.9168 -40.9165 -40.9118 -40.9108 -40.9107 -40.9075 -40.9055
   -40.8989 -40.8948 -40.8948 -40.8948 -40.8948 -40.8816 -40.8815 -40.8813
   -40.8812 -40.8775 -40.8760 -40.8729 -40.8726 -40.8609 -40.8606 -40.8604
   -40.8603 -40.8603 -40.8603 -40.8603 -40.8603 -40.8602 -40.8591 -40.8590
   -40.8519 -40.8518 -40.8517 -40.8482 -40.8482 -40.8422 -40.8368 -40.8338
   -40.8319 -40.8291 -40.8290 -40.8287 -40.8285 -40.8282 -40.8281 -40.8184
   -40.8130 -40.8122 -40.8122 -40.8102 -40.8046 -40.7980 -40.7940 -40.7939
   -40.7939 -40.7938 -40.7938 -40.7906 -40.7888 -40.7820 -40.7817 -40.7817
   -40.7817 -40.7807 -40.7776 -40.7693 -40.7629 -40.7624 -40.7614 -40.7540
   -40.7509 -40.7462 -40.7458 -40.7457 -40.7227 -40.7155 -40.7152 -40.7147
   -40.7120 -40.7116 -40.7062 -40.6861 -40.6849 -40.6804 -40.6600 -40.6504
   -40.6403 -40.6159 -20.2079 -20.0462 -20.0325 -19.9447 -19.8764 -19.8238
   -19.6492 -19.6137 -19.5934 -19.5336 -19.4508 -19.4150 -19.2471 -18.9982
   -18.9333 -18.9128 -18.9025 -18.9011 -18.8981 -18.8875 -18.8553 -18.8397
   -18.7982 -18.7814 -18.7690 -18.7653 -18.7480 -18.7135 -18.7130 -18.7004
   -18.6554 -18.6531 -18.6341 -18.6201 -18.5971 -18.5750 -18.5613 -18.5561
   -18.5388 -18.4758 -18.4724 -18.4563 -18.4156 -18.4031 -18.3862 -18.3802
   -18.3497 -18.3349 -18.3149 -18.2895 -18.2886 -18.2883 -18.2882 -18.2875
   -18.2670 -18.2662 -18.2334 -18.2308 -18.2186 -18.2141 -18.2123 -18.2061
   -18.2017 -18.1904 -18.1659 -18.1578 -18.1529 -18.1441 -18.1393 -18.1272
   -18.1093 -18.1039 -18.1028 -18.0934 -18.0829 -18.0772 -18.0469 -18.0446
   -18.0305 -18.0249 -18.0249 -18.0193 -17.9821 -17.9801 -17.9659 -17.9657
   -17.9634 -17.9502 -17.9489 -17.9416 -17.9224 -17.9099 -17.9045 -17.9005
   -17.8531 -17.8479 -12.3092 -12.0738 -11.8926 -11.8511 -11.8298 -11.7083
   -11.6503 -11.6362 -11.6333 -11.6315 -11.6269 -11.6114 -11.6056 -11.5665
   -11.5441 -11.5370 -11.5351 -11.5108 -11.5099 -11.4771 -11.4739 -11.4472
   -11.4451 -11.4235 -11.4177 -11.4177 -11.4137 -11.3752 -11.3724 -11.3706
   -11.3426 -11.3195 -11.3167 -11.3128 -11.3060 -11.2220 -11.2057 -11.1796
   -11.1671 -11.1377 -11.1301 -11.1167 -11.0940 -11.0849 -11.0691 -11.0670
   -11.0620 -11.0354 -11.0253 -11.0164 -10.9971 -10.9943 -10.9910 -10.9909
   -10.9878 -10.9853 -10.9790 -10.9744 -10.9535 -10.9323 -10.9274 -10.9245
   -10.9166 -10.8923 -10.8201 -10.7730 -10.7395 -10.7188 -10.6655 -10.6528
   -10.6131 -10.5523 -10.5099 -10.4635 -10.4119 -10.3615 -10.2944 -10.2826
   -10.2789 -10.2769 -10.2296 -10.2049 -10.1822 -10.1797 -10.1300 -10.1195
   -10.1038 -10.0990 -10.0981 -10.0897 -10.0779 -10.0655 -10.0640 -10.0569
   -10.0425 -10.0416  -9.9882  -9.9642  -9.9548  -9.9360  -9.9222  -9.9178
    -9.8989  -9.8920  -9.8783  -9.8714  -9.8632  -9.8597  -9.8545  -9.8335
    -9.8164  -9.8065  -9.7941  -9.7789  -9.7723  -9.7658  -9.7304  -9.7193
    -9.7086  -9.6958  -9.6869  -9.6801  -9.6657  -9.6348  -9.6305  -9.6122
    -9.5737  -9.5442  -9.5015  -9.4773  -9.4357  -9.3918  -9.3746  -9.3689
    -9.3437  -9.3387  -9.3248  -9.3068  -9.3006  -9.2879  -9.2774  -9.2720
    -9.2606  -9.2446  -9.2345  -9.2051  -9.1938  -9.1880  -9.1778  -9.1666
    -9.1503  -9.1460  -9.1308  -9.1291  -9.1193  -9.1046  -9.0959  -9.0946
    -9.0920  -9.0903  -9.0707  -9.0597  -9.0386  -9.0326  -9.0290  -9.0200
    -9.0177  -9.0132  -9.0030  -9.0004  -9.0003  -8.9972  -8.9844  -8.9823
    -8.9713  -8.9645  -8.9428  -8.9266  -8.9231  -8.9100  -8.8902  -8.8784
    -8.8720  -8.7823  -8.7554  -8.7015  -8.6731  -8.6724  -8.6491  -8.6118
    -8.5901  -8.5869  -8.5684  -8.5270  -8.4293  -8.3773  -8.3586  -8.3541
    -8.3541  -8.2831  -8.2821  -8.2744  -8.2441  -8.2298  -8.1489  -8.0955
    -8.0929  -8.0733  -8.0356  -8.0271  -8.0233  -8.0127  -8.0092  -8.0085
    -8.0074  -8.0073  -8.0052  -7.9999  -7.9885  -7.9629  -7.9619  -7.9609
    -7.9604  -7.9444  -7.9377  -7.9358  -7.9274  -7.9226  -7.9188  -7.9118
    -7.9010  -7.8902  -7.8870  -7.8823  -7.8773  -7.8704  -7.8585  -7.8532
    -7.8471  -7.8339  -7.8271  -7.8222  -7.8220  -7.8148  -7.8106  -7.7906
    -7.7892  -7.7736  -7.7656  -7.7543  -7.7526  -7.7411  -7.7333  -7.7270
    -7.7026  -7.6794  -7.6713  -7.6582  -7.6247  -7.5757  -7.5516  -7.4961
    -7.4926  -7.4381  -7.4042  -7.4021  -7.3940  -7.3871  -7.3628  -7.3123
    -7.2959  -7.2899  -7.2714  -7.2474  -7.2333  -7.1973  -7.1760  -7.1724
    -7.1693  -7.1459  -7.1110  -7.1045  -7.0954  -7.0843  -7.0693  -7.0614
    -7.0443  -7.0289  -6.9975  -6.9917  -6.9837  -6.9472  -6.8937  -6.8879
    -6.8623  -6.8353  -6.8192  -6.8191  -6.8190  -6.8189  -6.8019  -6.7864
    -6.7655  -6.7534  -6.7513  -6.7505  -6.7460  -6.7388  -6.7134  -6.6918
    -6.6726  -6.6590  -6.6458  -6.5980  -6.5737  -6.4960  -6.4879  -6.4877
    -6.4875  -6.4827  -6.4277  -6.4251  -6.4178  -6.4120  -6.4086  -6.4027
    -6.4002  -6.3844  -6.3651  -6.3579  -6.3527  -6.3307  -6.3242  -6.2547
    -6.1504  -6.1389  -6.1389  -6.0656  -6.0637  -6.0191  -5.9958  -5.9418
    -5.9267  -5.7967  -5.7420  -5.7054  -5.5005  -5.3777  -5.2017  -5.1822
    -5.0814  -4.8297  -4.1821  -4.1795  -4.1757  -4.1605  -4.0543  -4.0543
    -4.0371  -4.0277  -3.9901  -3.9899  -3.9470  -3.9450  -3.9378  -3.9350
    -3.9246  -3.8809  -3.8370  -3.8133  -3.7606  -3.7586  -3.7550  -3.7547
    -3.7401  -3.7399  -3.7311  -3.7127  -3.7098  -3.6755  -3.6651  -3.6614
    -3.6561  -3.6407  -3.6374  -3.6333  -3.6305  -3.6242  -3.6204  -3.6077
    -3.5857  -3.5526  -3.5364  -3.5242  -3.5166  -3.5129  -3.5079  -3.5073
    -3.4813  -3.4778  -3.4730  -3.4682  -3.4489  -3.4376  -3.4318  -3.4313
    -3.4303  -3.4294  -3.4168  -3.4038  -3.3986  -3.3938  -3.3833  -3.3743
    -3.3663  -3.3625  -3.3571  -3.3501  -3.3457  -3.3218  -3.3147  -3.2877
    -3.2822  -3.2741  -3.2538  -3.2517  -3.2280  -3.2262  -3.1986  -3.1880
    -3.1848  -3.1773  -3.1677  -3.1676  -3.1671  -3.1666  -3.1380  -3.1254
    -3.1193  -3.1184  -3.1020  -3.0948  -3.0849  -3.0827  -3.0806  -3.0722
    -3.0632  -3.0568  -3.0459  -3.0330  -3.0270  -3.0249  -3.0094  -2.9975
    -2.9895  -2.9827  -2.9713  -2.9598  -2.9590  -2.9477  -2.8956  -2.8917
    -2.8657  -2.8618  -2.8167  -2.8054  -2.8029  -2.8007  -2.7921  -2.7851
    -2.7246  -2.7237  -2.6786  -2.6708  -2.6574  -2.6474  -2.6426  -2.6391
    -2.5271  -2.5169  -2.4867  -2.4607  -2.4362  -2.3686

     the Fermi energy is    -4.9490 ev

!    total energy              =  -27706.45170964 Ry
     total all-electron energy =   -549111.714148 Ry
     estimated scf accuracy    <       0.00000063 Ry
     smearing contrib. (-TS)   =      -0.00538629 Ry
     internal energy E=F+TS    =  -27706.44632336 Ry

     The total energy is F=E-TS. E is the sum of the following terms:
     one-electron contribution =  532346.31479419 Ry
     hartree contribution      = -266361.00424097 Ry
     xc contribution           =   -1609.98091841 Ry
     ewald contribution        = -275297.96940938 Ry
     DFT-D3 Dispersion         =      -4.04317070 Ry
     one-center paw contrib.   =  -16779.76337808 Ry

     convergence has been achieved in  26 iterations

     negative rho (up, down):  8.622E-04 0.000E+00

     Forces acting on atoms (cartesian axes, Ry/au):

     atom    1 type  1   force =     0.00535311    0.00167108   -0.00316125
     atom    2 type  1   force =     0.00000811   -0.00000102    0.00188983
     atom    3 type  1   force =     0.00000365   -0.00001207    0.00008921
     atom    4 type  2   force =     0.00000745    0.00000141   -0.00311957
     atom    5 type  2   force =     0.00002052   -0.00000242    0.00016285
     atom    6 type  2   force =    -0.00009647    0.00016114   -0.00017894
     atom    7 type  2   force =     0.00000602    0.00000013    0.00137427
     atom    8 type  2   force =    -0.00001191   -0.00000764   -0.00011011
     atom    9 type  2   force =    -0.00039342    0.00003049    0.00087073
     atom   10 type  1   force =     0.00233963    0.00300792   -0.00268371
     atom   11 type  1   force =     0.00000177    0.00000307    0.00188606
     atom   12 type  1   force =    -0.00000380    0.00004659    0.00007024
     atom   13 type  2   force =     0.00000581    0.00000162   -0.00311870
     atom   14 type  2   force =     0.00001326    0.00000732    0.00014496
     atom   15 type  2   force =     0.00002399   -0.00006063   -0.00050709
     atom   16 type  2   force =     0.00000612    0.00000520    0.00138257
     atom   17 type  2   force =     0.00002633    0.00003300   -0.00009959
     atom   18 type  2   force =     0.00020516   -0.00017268    0.00102532
     atom   19 type  1   force =    -0.00020529    0.00055703   -0.00108740
     atom   20 type  1   force =     0.00000964   -0.00000718    0.00188600
     atom   21 type  1   force =     0.00002051   -0.00001796   -0.00003486
     atom   22 type  2   force =     0.00000899    0.00000088   -0.00311570
     atom   23 type  2   force =     0.00001686   -0.00000382    0.00014290
     atom   24 type  2   force =    -0.00003509   -0.00029938   -0.00001556
     atom   25 type  2   force =     0.00000597   -0.00000437    0.00136241
     atom   26 type  2   force =     0.00000976   -0.00000070   -0.00007849
     atom   27 type  2   force =     0.00077913    0.00036623    0.00104432
     atom   28 type  1   force =     0.00040985   -0.00105793   -0.00066121
     atom   29 type  1   force =     0.00000255    0.00000182    0.00189296
     atom   30 type  1   force =    -0.00000333   -0.00001282    0.00005973
     atom   31 type  2   force =     0.00000702    0.00000147   -0.00311753
     atom   32 type  2   force =     0.00000901    0.00001397    0.00015420
     atom   33 type  2   force =     0.00003669    0.00003546    0.00024129
     atom   34 type  2   force =     0.00000078   -0.00000597    0.00137024
     atom   35 type  2   force =    -0.00000664   -0.00004852   -0.00008404
     atom   36 type  2   force =     0.00000996    0.00049091    0.00043481
     atom   37 type  1   force =    -0.00162345   -0.00612158   -0.00417541
     atom   38 type  1   force =     0.00000691   -0.00000219    0.00188629
     atom   39 type  1   force =     0.00000354    0.00003889   -0.00000432
     atom   40 type  2   force =     0.00000316   -0.00000089   -0.00311933
     atom   41 type  2   force =    -0.00000864   -0.00000042    0.00017098
     atom   42 type  2   force =     0.00018756    0.00156762    0.00110463
     atom   43 type  2   force =     0.00000743    0.00000594    0.00136837
     atom   44 type  2   force =     0.00001250    0.00012035    0.00006824
     atom   45 type  2   force =    -0.00138043   -0.00150907    0.00209899
     atom   46 type  1   force =     0.00195660    0.00122759    0.00823632
     atom   47 type  1   force =     0.00001064    0.00000616    0.00188157
     atom   48 type  1   force =     0.00005257    0.00005170    0.00007781
     atom   49 type  2   force =     0.00000488   -0.00000246   -0.00311972
     atom   50 type  2   force =    -0.00000209   -0.00001394    0.00015361
     atom   51 type  2   force =     0.00042496   -0.00021535   -0.00075496
     atom   52 type  2   force =     0.00000725    0.00001153    0.00137289
     atom   53 type  2   force =     0.00005341   -0.00000396   -0.00010066
     atom   54 type  2   force =    -0.00173894   -0.00016113    0.00375851
     atom   55 type  1   force =    -0.00124978   -0.00158899   -0.00321019
     atom   56 type  1   force =     0.00001024    0.00000487    0.00188830
     atom   57 type  1   force =     0.00002022   -0.00002005   -0.00003430
     atom   58 type  2   force =     0.00000342    0.00000128   -0.00311645
     atom   59 type  2   force =     0.00000481   -0.00001716    0.00014357
     atom   60 type  2   force =     0.00030998   -0.00051946    0.00047738
     atom   61 type  2   force =     0.00001159   -0.00000042    0.00135890
     atom   62 type  2   force =    -0.00001456    0.00003166   -0.00015351
     atom   63 type  2   force =    -0.00081141    0.00052319    0.00199956
     atom   64 type  1   force =    -0.00018437   -0.00046910   -0.00051157
     atom   65 type  1   force =     0.00001309    0.00000154    0.00188520
     atom   66 type  1   force =     0.00000917   -0.00004927    0.00019399
     atom   67 type  2   force =     0.00000887   -0.00000260   -0.00311857
     atom   68 type  2   force =    -0.00000133   -0.00000951    0.00015415
     atom   69 type  2   force =     0.00016014    0.00040701   -0.00001558
     atom   70 type  2   force =     0.00001137   -0.00000796    0.00136428
     atom   71 type  2   force =     0.00005490   -0.00005311   -0.00007010
     atom   72 type  2   force =    -0.00021499   -0.00025587    0.00037315
     atom   73 type  1   force =    -0.00376805    0.00179361   -0.00066593
     atom   74 type  1   force =     0.00001221   -0.00000009    0.00188459
     atom   75 type  1   force =     0.00002493    0.00002840   -0.00005661
     atom   76 type  2   force =     0.00000863   -0.00000067   -0.00311977
     atom   77 type  2   force =     0.00000913   -0.00000047    0.00013587
     atom   78 type  2   force =    -0.00027341    0.00060361    0.00061983
     atom   79 type  2   force =     0.00001082    0.00000341    0.00136657
     atom   80 type  2   force =     0.00001167   -0.00000633   -0.00013074
     atom   81 type  2   force =     0.00161591   -0.00112673    0.00154154
     atom   82 type  1   force =    -0.00240638   -0.00004704    0.01012644
     atom   83 type  1   force =     0.00000851    0.00000559    0.00188248
     atom   84 type  1   force =    -0.00001614    0.00007251   -0.00000587
     atom   85 type  2   force =     0.00000468    0.00000007   -0.00311729
     atom   86 type  2   force =     0.00000171    0.00000420    0.00012569
     atom   87 type  2   force =     0.00058044   -0.00034668   -0.00338766
     atom   88 type  2   force =     0.00000812    0.00001171    0.00136867
     atom   89 type  2   force =    -0.00002025   -0.00000263   -0.00012585
     atom   90 type  2   force =    -0.00358602    0.00849790   -0.02300045
     atom   91 type  1   force =    -0.00054056   -0.00072774    0.00029823
     atom   92 type  1   force =     0.00000643    0.00000071    0.00188554
     atom   93 type  1   force =     0.00002628   -0.00006252   -0.00006754
     atom   94 type  2   force =     0.00000739    0.00000215   -0.00311663
     atom   95 type  2   force =     0.00001778    0.00000132    0.00011502
     atom   96 type  2   force =     0.00054104    0.00005454   -0.00241026
     atom   97 type  2   force =     0.00000928   -0.00000155    0.00135600
     atom   98 type  2   force =     0.00001645    0.00003185   -0.00025692
     atom   99 type  2   force =    -0.00530736    0.00370528   -0.00786524
     atom  100 type  1   force =    -0.00028749   -0.00034228    0.00018148
     atom  101 type  1   force =     0.00000880    0.00000129    0.00189017
     atom  102 type  1   force =     0.00003019    0.00000630    0.00001752
     atom  103 type  2   force =     0.00000656    0.00000230   -0.00311474
     atom  104 type  2   force =     0.00001284    0.00000645    0.00014038
     atom  105 type  2   force =    -0.00010198   -0.00011878    0.00055217
     atom  106 type  2   force =     0.00001368   -0.00000445    0.00136314
     atom  107 type  2   force =     0.00000248   -0.00001014   -0.00006432
     atom  108 type  2   force =     0.00061929    0.00033875    0.00069240
     atom  109 type  1   force =     0.00007184    0.00066947    0.00015491
     atom  110 type  1   force =     0.00000795   -0.00000075    0.00188791
     atom  111 type  1   force =    -0.00000509   -0.00000380    0.00001013
[...]
     atom   72 type  2   force =     0.00004352   -0.00016117    0.00012421
     atom   73 type  1   force =    -0.00021299    0.00010548    0.00008227
     atom   74 type  1   force =     0.00000167    0.00000205    0.00189390
     atom   75 type  1   force =     0.00000668    0.00000439   -0.00002593
     atom   76 type  2   force =     0.00000041    0.00000042   -0.00328308
     atom   77 type  2   force =     0.00001025   -0.00000763   -0.00003793
     atom   78 type  2   force =    -0.00068526   -0.00010833    0.00009166
     atom   79 type  2   force =     0.00000240    0.00000936    0.00149496
     atom   80 type  2   force =     0.00001106    0.00001253   -0.00003159
     atom   81 type  2   force =    -0.00018046   -0.00022622   -0.00017037
     atom   82 type  1   force =     0.00032454    0.00018425    0.00003317
     atom   83 type  1   force =     0.00000152    0.00000250    0.00188975
     atom   84 type  1   force =     0.00000013    0.00000615    0.00000160
     atom   85 type  2   force =     0.00000057    0.00000037   -0.00328242
     atom   86 type  2   force =     0.00000585    0.00002614   -0.00001795
     atom   87 type  2   force =     0.00052453    0.00075175    0.00017384
     atom   88 type  2   force =     0.00000239    0.00000594    0.00149566
     atom   89 type  2   force =    -0.00000928   -0.00000347   -0.00000379
     atom   90 type  2   force =    -0.00027914   -0.00043626   -0.00015014
     atom   91 type  1   force =    -0.00005795    0.00010315   -0.00007189
     atom   92 type  1   force =    -0.00000096   -0.00000345    0.00189294
     atom   93 type  1   force =     0.00001108   -0.00000892    0.00000430
     atom   94 type  2   force =     0.00000090    0.00000093   -0.00328413
     atom   95 type  2   force =     0.00000908    0.00001669    0.00000058
     atom   96 type  2   force =     0.00006484   -0.00001898   -0.00034542
     atom   97 type  2   force =    -0.00000063   -0.00000800    0.00147508
     atom   98 type  2   force =     0.00001059   -0.00002163    0.00001670
     atom   99 type  2   force =    -0.00019554    0.00076240   -0.00047437
     atom  100 type  1   force =    -0.00002018   -0.00012287   -0.00007197
     atom  101 type  1   force =     0.00000147    0.00000298    0.00189643
     atom  102 type  1   force =     0.00000073   -0.00000363   -0.00002200
     atom  103 type  2   force =     0.00000059    0.00000075   -0.00328162
     atom  104 type  2   force =     0.00001171   -0.00001116   -0.00001785
     atom  105 type  2   force =     0.00009719   -0.00040360    0.00000383
     atom  106 type  2   force =     0.00000565   -0.00000110    0.00149603
     atom  107 type  2   force =     0.00001250    0.00000125   -0.00004519
     atom  108 type  2   force =     0.00019721   -0.00037291    0.00003488
     atom  109 type  1   force =     0.00008939    0.00006568   -0.00011461
     atom  110 type  1   force =    -0.00000011    0.00000142    0.00189193
     atom  111 type  1   force =     0.00000985    0.00001436   -0.00002579
     atom  112 type  2   force =     0.00000053    0.00000021   -0.00328337
     atom  113 type  2   force =     0.00001782   -0.00001247   -0.00001600
     atom  114 type  2   force =    -0.00001155   -0.00005429   -0.00021531
     atom  115 type  2   force =     0.00000259    0.00000903    0.00149663
     atom  116 type  2   force =     0.00000400    0.00002809   -0.00000214
     atom  117 type  2   force =    -0.00007485   -0.00014764   -0.00023912
     atom  118 type  1   force =    -0.00003479   -0.00023199    0.00013377
     atom  119 type  1   force =    -0.00000018    0.00000094    0.00188946
     atom  120 type  1   force =     0.00000672    0.00001065    0.00000221
     atom  121 type  2   force =     0.00000044    0.00000064   -0.00328294
     atom  122 type  2   force =     0.00001345    0.00003267   -0.00000928
     atom  123 type  2   force =     0.00024639   -0.00003478    0.00009373
     atom  124 type  2   force =     0.00000473    0.00000620    0.00149869
     atom  125 type  2   force =    -0.00001460   -0.00001023    0.00001229
     atom  126 type  2   force =    -0.00069724    0.00042408    0.00043370
     atom  127 type  1   force =     0.00001317   -0.00002265   -0.00020966
     atom  128 type  1   force =     0.00000012   -0.00000378    0.00189316
     atom  129 type  1   force =     0.00000357   -0.00000880    0.00000074
     atom  130 type  2   force =     0.00000045    0.00000112   -0.00328347
     atom  131 type  2   force =     0.00001493    0.00001339   -0.00001161
     atom  132 type  2   force =    -0.00024447   -0.00002038    0.00022027
     atom  133 type  2   force =     0.00000143   -0.00000890    0.00147980
     atom  134 type  2   force =     0.00000947    0.00001162   -0.00000145
     atom  135 type  2   force =     0.00013077    0.00025293   -0.00005857
     atom  136 type  1   force =     0.00009113    0.00003538    0.00010713
     atom  137 type  1   force =    -0.00000038    0.00000283    0.00189608
     atom  138 type  1   force =     0.00000792    0.00000858   -0.00001061
     atom  139 type  2   force =     0.00000073    0.00000034   -0.00328241
     atom  140 type  2   force =    -0.00000849   -0.00000945   -0.00001243
     atom  141 type  2   force =     0.00011506    0.00000316    0.00026392
     atom  142 type  2   force =    -0.00000054   -0.00000100    0.00148538
     atom  143 type  2   force =    -0.00001114   -0.00001413   -0.00002195
     atom  144 type  2   force =     0.00004598   -0.00014592   -0.00003378
     atom  145 type  3   force =    -0.00025818    0.00015032   -0.00024715
     atom  146 type  4   force =     0.00052855    0.00051981   -0.00053060
     atom  147 type  3   force =     0.00008882    0.00096567    0.00028448

     Total force =     0.002942     Total SCF correction =     0.000633
     SCF correction compared to forces is large: reduce conv_thr to get better values
     Energy error            =      1.8E-05 Ry
     Gradient error          =      9.7E-04 Ry/Bohr

     bfgs converged in  19 scf cycles and  18 bfgs steps
     (criteria: energy <  1.0E-04 Ry, force <  1.0E-03 Ry/Bohr)

     End of BFGS Geometry Optimization

     Final energy             =  -27706.4631414666 Ry

     File ./outdir/pwscf.bfgs deleted, as requested
Begin final coordinates

ATOMIC_POSITIONS (angstrom)
Mo               1.5794811123        2.7256841317        6.0866193359
Mo               1.5769197498        0.9104407117       -6.0872367793    0   0   0
Mo               0.0001907581        1.8211951801       -0.0001298754
S                0.0000044503        0.0000077495       -7.6506323570    0   0   0
S                1.5768517746        0.9110598464       -1.5662194892
S                0.0018854977        1.8307785133        4.5094818142
S                0.0000053241        0.0000068460       -4.5222282367    0   0   0
S                1.5769703503        0.9097464430        1.5654926702
S               -0.0050737184        1.8097057199        7.6460545562
Mo              -0.0054820377        5.4702098973        6.0927402113
Mo               0.0000011799        3.6417399547       -6.0872367793    0   0   0
Mo              -1.5766086825        4.5524506399       -0.0002824114
S               -1.5769141197        2.7313069925       -7.6506323570    0   0   0
S                0.0002034749        3.6417136126       -1.5656903914
S               -1.5718740300        4.5610956073        4.5153355478
S               -1.5769132459        2.7313060890       -4.5222282367    0   0   0
S                0.0012890239        3.6429499980        1.5672685058
S               -1.5764082548        4.5533479639        7.6583150434
Mo              -1.5770509606        8.1974514481        6.0701525841
Mo              -1.5769173901        6.3730391977       -6.0872367793    0   0   0
Mo              -3.1537959023        7.2831864864       -0.0024020242
S               -3.1538326896        5.4626062355       -7.6506323570    0   0   0
S               -1.5767476914        6.3722591701       -1.5673202396
S               -3.1531948639        7.2818722754        4.5073753736
S               -3.1538318159        5.4626053320       -4.5222282367    0   0   0
S               -1.5767822515        6.3740217262        1.5650989695
S               -3.1464547484        7.2965843655        7.6479023713
Mo               3.1508481182       -0.0023357868        6.0613913848
Mo              -3.1538359601        9.1043384407       -6.0872367793    0   0   0
Mo              -4.7308378740       10.0145930832       -0.0017918211
S               -4.7307512596        8.1939054785       -7.6506323570    0   0   0
S               -3.1536961452        9.1045659409       -1.5673133238
S               -4.7336702378       10.0129551841        4.4983278448
S               -4.7307503859        8.1939045750       -4.5222282367    0   0   0
S               -3.1538295507        9.1036976963        1.5646480466
S               -4.7260319383       10.0283031920        7.6400464749
Mo               4.7294183732        2.6804811067        6.0579035890
Mo               4.7307503218        0.9104407117       -6.0872367793    0   0   0
Mo               3.1539619178        1.8212460085       -0.0005921443
S                3.1538350223        0.0000077495       -7.6506323570    0   0   0
S                4.7310425351        0.9110460608       -1.5660250472
S                3.1401087270        1.8186228927        4.4930067048
S                3.1538358961        0.0000068460       -4.5222282367    0   0   0
S                4.7308701336        0.9103807447        1.5662262510
S                3.1526274853        1.7973881158        7.6414667673
Mo               3.1319989640        5.4687495639        6.1397373819
Mo               3.1538317519        3.6417399547       -6.0872367793    0   0   0
Mo               1.5775312944        4.5524957662       -0.0008485845
S                1.5769164523        2.7313069925       -7.6506323570    0   0   0
S                3.1540989293        3.6416181211       -1.5663138393
S                1.5946765378        4.5690194443        4.5565976761
S                1.5769173261        2.7313060890       -4.5222282367    0   0   0
S                3.1545610041        3.6427544973        1.5670603569
S                1.4675666049        4.4900421743        7.7536674071
Mo               1.5623670681        8.2107307448        6.0761882529
Mo               1.5769131819        6.3730391977       -6.0872367793    0   0   0
Mo               0.0002847897        7.2831869479       -0.0022852493
S               -0.0000021176        5.4626062355       -7.6506323570    0   0   0
S                1.5771359390        6.3724628796       -1.5674780797
S                0.0000917360        7.2798123587        4.5093629570
S               -0.0000012439        5.4626053320       -4.5222282367    0   0   0
S                1.5773517749        6.3735990560        1.5657149715
S               -0.0074578785        7.2993976565        7.6498844860
Mo               6.3127148715       -0.0001335819        6.0599684643
Mo              -0.0000053881        9.1043384407       -6.0872367793    0   0   0
Mo              -1.5767204575       10.0147846206       -0.0015129790
S               -1.5769206876        8.1939054785       -7.6506323570    0   0   0
S                0.0003329429        9.1046153283       -1.5671312660
S               -1.5765579459       10.0135557687        4.4959983179
S               -1.5769198139        8.1939045750       -4.5222282367    0   0   0
S                0.0001799210        9.1035837800        1.5649602484
S               -1.5759887030       10.0191233380        7.6303279720
Mo               7.8875626181        2.7266958632        6.0836121432
Mo               7.8845808939        0.9104407117       -6.0872367793    0   0   0
Mo               6.3079175993        1.8212600161       -0.0002985379
S                6.3076655943        0.0000077495       -7.6506323570    0   0   0
S                7.8849643955        0.9109692938       -1.5658830514
S                6.3224923367        1.8202337253        4.4917781911
S                6.3076664681        0.0000068460       -4.5222282367    0   0   0
S                7.8850351486        0.9098861731        1.5657611865
S                6.3134403175        1.8000294698        7.6391860457
Mo               6.3378368017        5.4672226891        6.1304326079
Mo               6.3076623239        3.6417399547       -6.0872367793    0   0   0
Mo               4.7308667398        4.5526236607       -0.0011482468
S                4.7307470244        2.7313069925       -7.6506323570    0   0   0
S                6.3078625929        3.6415638157       -1.5660589419
S                4.7258973237        4.5751418770        4.5742277764
S                4.7307478981        2.7313060890       -4.5222282367    0   0   0
S                6.3071002483        3.6429492422        1.5672175611
S                4.7531085682        4.4512999073        7.6279004425
Mo               4.7317447140        8.2165784283        6.0955820678
Mo               4.7307437539        6.3730391977       -6.0872367793    0   0   0
Mo               3.1540722015        7.2831011996       -0.0022847070
S                3.1538284544        5.4626062355       -7.6506323570    0   0   0
S                4.7307961356        6.3725729275       -1.5678402513
S                3.1555903774        7.2670003548        4.5547387014
S                3.1538293281        5.4626053320       -4.5222282367    0   0   0
S                4.7308959351        6.3737527187        1.5653143369
S                3.1324156864        7.3889693047        7.7029351784
Mo               9.4633888376        0.0027250109        6.0689958232
Mo               3.1538251839        9.1043384407       -6.0872367793    0   0   0
Mo               1.5773213786       10.0145418232       -0.0013179321
S                1.5769098844        8.1939054785       -7.6506323570    0   0   0
S                3.1542205926        9.1046713716       -1.5668107766
S                1.5815341580       10.0153303467        4.4966131842
S                1.5769107581        8.1939045750       -4.5222282367    0   0   0
S                3.1538595277        9.1026493150        1.5661015245
S                1.5720858999       10.0324971724        7.6408782426
Mo              -1.5742250438        2.7372128910        6.0799307075
Mo              11.0384114659        0.9104407117       -6.0872367793    0   0   0
Mo               9.4617602497        1.8211367806       -0.0000805707
S                9.4614961663        0.0000077495       -7.6506323570    0   0   0
S               11.0385383166        0.9107846607       -1.5655085527
S                9.4652316974        1.8296115577        4.5100058440
S                9.4614970401        0.0000068460       -4.5222282367    0   0   0
S               11.0386831307        0.9100556653        1.5667955844
S                9.4692987599        1.8117000333        7.6454740974
Mo              -3.1431469278        5.4683756947        6.0872059192
Mo               9.4614928959        3.6417399547       -6.0872367793    0   0   0
Mo               7.8844474348        4.5524242608       -0.0006796723
S                7.8845775964        2.7313069925       -7.6506323570    0   0   0
S                9.4617331353        3.6416592494       -1.5655777584
S                7.8779351997        4.5641337655        4.5435327183
S                7.8845784701        2.7313060890       -4.5222282367    0   0   0
S                9.4611292300        3.6428209496        1.5672352129
S                7.9846868742        4.5002905063        7.7170474331
Mo              -4.7200795670        8.2065302461        6.0764738231
Mo               7.8845743259        6.3730391977       -6.0872367793    0   0   0
Mo               6.3076200112        7.2831668686       -0.0024848990
S                6.3076590264        5.4626062355       -7.6506323570    0   0   0
S                7.8846351911        6.3723014538       -1.5674585933
S                6.3051799111        7.2707676158        4.5453455452
S                6.3076599001        5.4626053320       -4.5222282367    0   0   0
S                7.8843884410        6.3737562325        1.5654697340
S                6.3254503466        7.3601093762        7.6825527428
Mo              -0.0002901901        0.0024815622        6.0679221999
Mo               6.3076557559        9.1043384407       -6.0872367793    0   0   0
Mo               4.7308614007       10.0144711459       -0.0006125028
S                4.7307404564        8.1939054785       -7.6506323570    0   0   0
S                6.3073628037        9.1046934482       -1.5670690083
S                4.7309751969       10.0094028013        4.5037774403
S                4.7307413301        8.1939045750       -4.5222282367    0   0   0
S                6.3080710177        9.1028921024        1.5657140626
S                4.7323485889       10.0441413725        7.6505437017
Pt               3.2393474957        5.4023750655        9.0097286102
Pd               6.2448933176        5.3534466424        9.0999492748
Pt               4.6335811136        5.6084204440       11.0585719886
End final coordinates



     Writing all to output data dir ./outdir/pwscf.save/ :
     XML data file, charge density, pseudopotentials, collected wavefunctions
 
     init_run     :     98.47s CPU    100.57s WALL (       1 calls)
     electrons    :  93857.68s CPU  95268.59s WALL (      19 calls)
     update_pot   :     28.87s CPU     29.62s WALL (      18 calls)
     forces       :   1389.63s CPU   1419.54s WALL (      19 calls)
     force_dftd3  :      7.38s CPU      7.78s WALL (      19 calls)

     Called by init_run:
     wfcinit      :     79.78s CPU     80.71s WALL (       1 calls)
     potinit      :      1.47s CPU      1.56s WALL (       1 calls)
     hinit0       :      9.36s CPU      9.43s WALL (       1 calls)

     Called by electrons:
     c_bands      :  81239.47s CPU  82062.40s WALL (     287 calls)
     sum_band     :  10760.40s CPU  11063.78s WALL (     287 calls)
     v_of_rho     :     84.51s CPU     94.78s WALL (     293 calls)
     newd         :   1493.41s CPU   1771.39s WALL (     293 calls)
     PAW_pot      :    327.05s CPU    329.20s WALL (     311 calls)
     mix_rho      :     23.91s CPU     26.87s WALL (     287 calls)
     energy_dftd3 :      4.10s CPU      4.12s WALL (      19 calls)

     Called by c_bands:
     init_us_2    :    404.51s CPU    406.23s WALL (    2448 calls)
     init_us_2:cp :    404.49s CPU    406.21s WALL (    2448 calls)
     cegterg      :  79502.07s CPU  80317.98s WALL (    1154 calls)

     Called by *egterg:
     cdiaghg      :   4412.54s CPU   4596.65s WALL (   14218 calls)
     h_psi        :  41224.11s CPU  41477.69s WALL (   14348 calls)
     s_psi        :   8898.86s CPU   8933.93s WALL (   14348 calls)
     g_psi        :     88.03s CPU     88.39s WALL (   13190 calls)

     Called by h_psi:
     h_psi:calbec :   8630.88s CPU   8660.18s WALL (   14348 calls)
     vloc_psi     :  23457.76s CPU  23575.10s WALL (   14348 calls)
     add_vuspsi   :   8939.83s CPU   8977.72s WALL (   14348 calls)

     General routines
     calbec       :  12324.52s CPU  12365.44s WALL (   15872 calls)
     fft          :     69.61s CPU     78.93s WALL (    4011 calls)
     ffts         :      3.75s CPU      3.85s WALL (     580 calls)
     fftw         :  17762.84s CPU  17852.75s WALL ( 6193500 calls)
     interpolate  :      6.92s CPU      7.62s WALL (     293 calls)
 
     Parallel routines
 
     PWSCF        :   1d 2h37m CPU   1d 3h 2m WALL

 
   This run was terminated on:  12:26:52  31Mar2024            

=------------------------------------------------------------------------------=
   JOB DONE.
=------------------------------------------------------------------------------=
