
     Program PWSCF v.7.2 starts on 15Dec2023 at 14:30:46 

     This program is part of the open-source Quantum ESPRESSO suite
     for quantum simulation of materials; please cite
         "P. Giannozzi et al., J. Phys.:Condens. Matter 21 395502 (2009);
         "P. Giannozzi et al., J. Phys.:Condens. Matter 29 465901 (2017);
         "P. Giannozzi et al., J. Chem. Phys. 152 154105 (2020);
          URL http://www.quantum-espresso.org", 
     in publications or presentations arising from this work. More details at
     http://www.quantum-espresso.org/quote

     Parallel version (MPI), running on    48 processors

     MPI processes distributed on     1 nodes
     1414257 MiB available memory on the printing compute node when the environment starts
 
     Waiting for input...
     Reading input from standard input

     Current dimensions of program PWSCF are:
     Max number of different atomic species (ntypx) = 10
     Max number of k-points (npk) =  40000
     Max angular momentum in pseudopotentials (lmaxx) =  4
     file Mo.pbe-spn-kjpaw_psl.1.0.0.UPF: wavefunction(s)  4S 4D renormalized
     file C.pbe-n-kjpaw_psl.1.0.0.UPF: wavefunction(s)  2S 2P renormalized
 
     K-points division:     npool     =       2
     R & G space division:  proc/nbgrp/npool/nimage =      24
     Subspace diagonalization in iterative solution of the eigenvalue problem:
     a serial algorithm will be used

 
     Parallelization info
     --------------------
     sticks:   dense  smooth     PW     G-vecs:    dense   smooth      PW
     Min          46      26      8                 2350     1014     182
     Max          47      27      9                 2356     1021     191
     Sum        1111     637    199                56483    24393    4443
 
     Using Slab Decomposition
 


     bravais-lattice index     =            0
     lattice parameter (alat)  =       5.4517  a.u.
     unit-cell volume          =     266.7953 (a.u.)^3
     number of atoms/cell      =            3
     number of atomic types    =            2
     number of electrons       =        32.00
     number of Kohn-Sham states=           20
     kinetic-energy cutoff     =      77.0000  Ry
     charge density cutoff     =     539.0000  Ry
     scf convergence threshold =      1.0E-06
     mixing beta               =       0.2000
     number of iterations used =            8  plain     mixing
     energy convergence thresh.=      1.0E-04
     force convergence thresh. =      1.0E-03
     press convergence thresh. =      5.0E-01
     Exchange-correlation= SLA  PW   PBX  PBC
                           (   1   4   3   4   0   0   0)
     nstep                     =         1000


     celldm(1)=   5.451711  celldm(2)=   0.000000  celldm(3)=   0.000000
     celldm(4)=   0.000000  celldm(5)=   0.000000  celldm(6)=   0.000000

     crystal axes: (cart. coord. in units of alat)
               a(1) = (   1.000000   0.000000   0.000000 )  
               a(2) = (  -0.500000   0.866025   0.000000 )  
               a(3) = (   0.000000   0.000000   1.901293 )  

     reciprocal axes: (cart. coord. in units 2 pi/alat)
               b(1) = (  1.000000  0.577350  0.000000 )  
               b(2) = (  0.000000  1.154701  0.000000 )  
               b(3) = (  0.000000  0.000000  0.525958 )  


     PseudoPot. # 1 for Mo read from file:
     ./pseudo/Mo.pbe-spn-kjpaw_psl.1.0.0.UPF
     MD5 check sum: 317bf72632116215fd98f72de1686f13
     Pseudo is Projector augmented-wave + core cor, Zval = 14.0
     Generated using 'atomic' code by A. Dal Corso  v.7.2
     Shape of augmentation charge: PSQ
     Using radial grid of 1229 points,  6 beta functions with: 
                l(1) =   0
                l(2) =   0
                l(3) =   1
                l(4) =   1
                l(5) =   2
                l(6) =   2
     Q(r) pseudized with 0 coefficients 


     PseudoPot. # 2 for C  read from file:
     ./pseudo/C.pbe-n-kjpaw_psl.1.0.0.UPF
     MD5 check sum: 6b0792899573946bb42fe395835041da
     Pseudo is Projector augmented-wave + core cor, Zval =  4.0
     Generated using 'atomic' code by A. Dal Corso  v.7.2
     Shape of augmentation charge: PSQ
     Using radial grid of 1073 points,  4 beta functions with: 
                l(1) =   0
                l(2) =   0
                l(3) =   1
                l(4) =   1
     Q(r) pseudized with 0 coefficients 


     atomic species   valence    mass     pseudopotential
        Mo            14.00    95.95000     Mo( 1.00)
        C              4.00    12.01100     C ( 1.00)

     No symmetry found



   Cartesian axes

     site n.     atom                  positions (alat units)
         1           Mo  tau(   1) = (  -0.0000000   0.5773503   0.4819816  )
         2           Mo  tau(   2) = (   0.0000000   0.5773503   1.4193115  )
         3           C   tau(   3) = (   0.0000000   0.0000000   0.0000000  )

     --------------------------------------------
     DFT-D3 Dispersion Correction (3-body terms):
     --------------------------------------------
       Reference C6 values for interpolation: 

         atom   Coordination number   C6
         C          0.000            98.23
         C          0.987            86.49
         C          1.998            58.72
         C          2.999            51.56
         C          3.984            36.41
         Mo         0.000          1691.79
         Mo         1.942          1004.01
         Mo        11.056           674.22

       Values used:

         atom   Coordination number  R0_AB[au]  C6      C8
         Mo        11.207            3.547    674.22  77634.20
         Mo        11.207            3.547    674.22  77634.20
         C          6.001            2.750     36.41   1053.14

         Molecular C6 ( Ry / a.u.^6 ) =      3344.37


     number of k points=    36  Gaussian smearing, width (Ry)=  0.0100
                       cart. coord. in units 2pi/alat
        k(    1) = (   0.0000000   0.0000000   0.0000000), wk =   0.0312500
        k(    2) = (   0.0000000   0.0000000   0.1314895), wk =   0.0625000
        k(    3) = (   0.0000000   0.0000000  -0.2629789), wk =   0.0312500
        k(    4) = (   0.0000000   0.2886751   0.0000000), wk =   0.0625000
        k(    5) = (   0.0000000   0.2886751   0.1314895), wk =   0.0625000
        k(    6) = (   0.0000000   0.2886751  -0.2629789), wk =   0.0625000
        k(    7) = (   0.0000000   0.2886751  -0.1314895), wk =   0.0625000
        k(    8) = (   0.0000000  -0.5773503   0.0000000), wk =   0.0312500
        k(    9) = (   0.0000000  -0.5773503   0.1314895), wk =   0.0625000
        k(   10) = (   0.0000000  -0.5773503  -0.2629789), wk =   0.0312500
        k(   11) = (   0.2500000   0.1443376   0.0000000), wk =   0.0625000
        k(   12) = (   0.2500000   0.1443376   0.1314895), wk =   0.0625000
        k(   13) = (   0.2500000   0.1443376  -0.2629789), wk =   0.0625000
        k(   14) = (   0.2500000   0.1443376  -0.1314895), wk =   0.0625000
        k(   15) = (   0.2500000   0.4330127   0.0000000), wk =   0.0625000
        k(   16) = (   0.2500000   0.4330127   0.1314895), wk =   0.0625000
        k(   17) = (   0.2500000   0.4330127  -0.2629789), wk =   0.0625000
        k(   18) = (   0.2500000   0.4330127  -0.1314895), wk =   0.0625000
        k(   19) = (   0.2500000  -0.4330127   0.0000000), wk =   0.0625000
        k(   20) = (   0.2500000  -0.4330127   0.1314895), wk =   0.0625000
        k(   21) = (   0.2500000  -0.4330127  -0.2629789), wk =   0.0625000
        k(   22) = (   0.2500000  -0.4330127  -0.1314895), wk =   0.0625000
        k(   23) = (   0.2500000  -0.1443376   0.0000000), wk =   0.0625000
        k(   24) = (   0.2500000  -0.1443376   0.1314895), wk =   0.0625000
        k(   25) = (   0.2500000  -0.1443376  -0.2629789), wk =   0.0625000
        k(   26) = (   0.2500000  -0.1443376  -0.1314895), wk =   0.0625000
        k(   27) = (  -0.5000000  -0.2886751   0.0000000), wk =   0.0312500
        k(   28) = (  -0.5000000  -0.2886751   0.1314895), wk =   0.0625000
        k(   29) = (  -0.5000000  -0.2886751  -0.2629789), wk =   0.0312500
        k(   30) = (  -0.5000000   0.0000000   0.0000000), wk =   0.0625000
        k(   31) = (  -0.5000000   0.0000000   0.1314895), wk =   0.0625000
        k(   32) = (  -0.5000000   0.0000000  -0.2629789), wk =   0.0625000
        k(   33) = (  -0.5000000   0.0000000  -0.1314895), wk =   0.0625000
        k(   34) = (  -0.5000000  -0.8660254   0.0000000), wk =   0.0312500
        k(   35) = (  -0.5000000  -0.8660254   0.1314895), wk =   0.0625000
        k(   36) = (  -0.5000000  -0.8660254  -0.2629789), wk =   0.0312500

     Dense  grid:    56483 G-vectors     FFT dimensions: (  45,  45,  80)

     Smooth grid:    24393 G-vectors     FFT dimensions: (  32,  32,  60)

     Estimated max dynamical RAM per process >      13.49 MB

     Estimated total dynamical RAM >     633.54 MB

     Check: negative core charge=   -0.000001

     Initial potential from superposition of free atoms

     starting charge      31.9982, renormalised to      32.0000
     Starting wfcs are   24 randomized atomic wfcs
     Checking if some PAW data can be deallocated... 

     total cpu time spent up to now is        0.4 secs

     Self-consistent Calculation

     iteration #  1     ecut=    77.00 Ry     beta= 0.20
     Davidson diagonalization with overlap
     ethr =  1.00E-02,  avg # of iterations =  2.2

     total cpu time spent up to now is        0.9 secs

     total energy              =    -746.15176797 Ry
     estimated scf accuracy    <       0.72260993 Ry

     iteration #  2     ecut=    77.00 Ry     beta= 0.20
     Davidson diagonalization with overlap
     ethr =  2.26E-03,  avg # of iterations =  2.7

     total cpu time spent up to now is        1.1 secs

     total energy              =    -746.25589843 Ry
     estimated scf accuracy    <       0.03268162 Ry

     iteration #  3     ecut=    77.00 Ry     beta= 0.20
     Davidson diagonalization with overlap
     ethr =  1.02E-04,  avg # of iterations =  4.8

     total cpu time spent up to now is        1.3 secs

     total energy              =    -746.25827738 Ry
     estimated scf accuracy    <       0.02033312 Ry

     iteration #  4     ecut=    77.00 Ry     beta= 0.20
     Davidson diagonalization with overlap
     ethr =  6.35E-05,  avg # of iterations =  3.1

     total cpu time spent up to now is        1.5 secs

     total energy              =    -746.25967474 Ry
     estimated scf accuracy    <       0.01443869 Ry

     iteration #  5     ecut=    77.00 Ry     beta= 0.20
     Davidson diagonalization with overlap
     ethr =  4.51E-05,  avg # of iterations =  3.5

     total cpu time spent up to now is        1.7 secs

     total energy              =    -746.26391588 Ry
     estimated scf accuracy    <       0.00287365 Ry

     iteration #  6     ecut=    77.00 Ry     beta= 0.20
     Davidson diagonalization with overlap
     ethr =  8.98E-06,  avg # of iterations =  4.1

     total cpu time spent up to now is        1.9 secs

     total energy              =    -746.26208189 Ry
     estimated scf accuracy    <       0.01162553 Ry

     iteration #  7     ecut=    77.00 Ry     beta= 0.20
     Davidson diagonalization with overlap
     ethr =  8.98E-06,  avg # of iterations =  3.6

     total cpu time spent up to now is        2.1 secs

     total energy              =    -746.26224455 Ry
     estimated scf accuracy    <       0.00143897 Ry

     iteration #  8     ecut=    77.00 Ry     beta= 0.20
     Davidson diagonalization with overlap
     ethr =  4.50E-06,  avg # of iterations =  4.2

     total cpu time spent up to now is        2.3 secs

     total energy              =    -746.26260122 Ry
     estimated scf accuracy    <       0.00044055 Ry

     iteration #  9     ecut=    77.00 Ry     beta= 0.20
     Davidson diagonalization with overlap
     ethr =  1.38E-06,  avg # of iterations =  3.1

     total cpu time spent up to now is        2.5 secs

     total energy              =    -746.26268330 Ry
     estimated scf accuracy    <       0.00000338 Ry

     iteration # 10     ecut=    77.00 Ry     beta= 0.20
     Davidson diagonalization with overlap
     ethr =  1.06E-08,  avg # of iterations =  5.1

     total cpu time spent up to now is        2.7 secs

     total energy              =    -746.26268567 Ry
     estimated scf accuracy    <       0.00000252 Ry

     iteration # 11     ecut=    77.00 Ry     beta= 0.20
     Davidson diagonalization with overlap
     ethr =  7.87E-09,  avg # of iterations =  4.6

     total cpu time spent up to now is        2.9 secs

     total energy              =    -746.26268602 Ry
     estimated scf accuracy    <       0.00000237 Ry

     iteration # 12     ecut=    77.00 Ry     beta= 0.20
     Davidson diagonalization with overlap
     ethr =  7.40E-09,  avg # of iterations =  2.8

     total cpu time spent up to now is        3.1 secs

     End of self-consistent calculation

          k = 0.0000 0.0000 0.0000 (  3047 PWs)   bands (ev):

   -42.7207 -42.6066 -17.3578 -16.3594 -16.3268 -16.3268 -16.2348 -16.2348
     6.0414  12.3985  14.2888  15.4137  15.4209  15.4209  17.8742  17.8742
    18.2333  18.2333  20.9261  21.1633

          k = 0.0000 0.0000 0.1315 (  3077 PWs)   bands (ev):

   -42.7045 -42.6232 -17.2190 -16.5132 -16.3134 -16.3134 -16.2484 -16.2484
     6.1586  11.9787  14.6951  15.5062  15.5062  15.7645  17.7167  17.7167
    18.5093  18.5093  20.4301  20.5469

          k = 0.0000 0.0000-0.2630 (  3088 PWs)   bands (ev):

   -42.6706 -42.6574 -16.8913 -16.8560 -16.2816 -16.2816 -16.2805 -16.2805
     6.2814  11.6394  15.1511  15.6010  15.6010  16.0123  17.5680  17.5680
    18.9746  18.9746  19.8124  19.8124

          k = 0.0000 0.2887 0.0000 (  3065 PWs)   bands (ev):

   -42.6595 -42.5477 -17.2673 -16.7827 -16.6614 -16.4315 -16.3325 -16.3023
     6.8043  12.9876  13.4040  15.0046  15.4166  15.9042  17.0189  18.7230
    18.8603  19.2536  19.5270  20.8608

          k = 0.0000 0.2887 0.1315 (  3055 PWs)   bands (ev):

   -42.6435 -42.5640 -17.1339 -16.7652 -16.6801 -16.4485 -16.4171 -16.3472
     6.8674  13.0801  13.4764  15.2823  15.5427  15.8790  16.8984  18.4110
    18.8407  18.9756  19.4329  20.2666

          k = 0.0000 0.2887-0.2630 (  3040 PWs)   bands (ev):

   -42.6106 -42.5972 -16.8212 -16.7993 -16.7195 -16.7015 -16.3829 -16.3816
     6.9306  13.0336  13.7971  15.2571  15.6837  16.2600  16.7776  18.0013
    18.2418  19.1351  19.4895  19.5617

          k = 0.0000 0.2887-0.1315 (  3055 PWs)   bands (ev):

   -42.6435 -42.5640 -17.1339 -16.7652 -16.6801 -16.4485 -16.4171 -16.3472
     6.8674  13.0800  13.4764  15.2823  15.5427  15.8790  16.8984  18.4110
    18.8407  18.9756  19.4329  20.2666

          k = 0.0000-0.5774 0.0000 (  3030 PWs)   bands (ev):

   -42.5974 -42.4881 -17.2195 -17.1710 -17.0673 -16.5341 -16.4285 -16.2465
     7.4648  11.7986  13.1991  14.8136  14.9636  16.5896  17.0419  19.0069
    20.5111  21.3600  21.4233  21.9262

          k = 0.0000-0.5774 0.1315 (  3040 PWs)   bands (ev):

   -42.5819 -42.5040 -17.1971 -17.0896 -17.0428 -16.5188 -16.4441 -16.3878
     7.5222  12.0417  12.9982  15.1393  15.1756  15.7687  17.8454  18.7361
    19.5699  21.2487  21.5708  21.8765

          k = 0.0000-0.5774-0.2630 (  3056 PWs)   bands (ev):

   -42.5499 -42.5363 -17.1498 -17.1374 -16.7499 -16.6932 -16.4834 -16.4798
     7.5815  12.3296  12.8094  15.1225  15.3496  15.8638  18.0838  18.4097
    18.9018  20.9298  21.6905  21.7883

          k = 0.2500 0.1443 0.0000 (  3065 PWs)   bands (ev):

   -42.6595 -42.5477 -17.2673 -16.7827 -16.6614 -16.4315 -16.3325 -16.3023
     6.8043  12.9876  13.4040  15.0046  15.4166  15.9042  17.0189  18.7230
    18.8603  19.2536  19.5270  20.8608

          k = 0.2500 0.1443 0.1315 (  3055 PWs)   bands (ev):

   -42.6435 -42.5640 -17.1339 -16.7652 -16.6801 -16.4485 -16.4171 -16.3472
     6.8674  13.0800  13.4764  15.2823  15.5427  15.8790  16.8984  18.4110
    18.8407  18.9756  19.4329  20.2666

          k = 0.2500 0.1443-0.2630 (  3040 PWs)   bands (ev):

   -42.6106 -42.5972 -16.8212 -16.7993 -16.7195 -16.7015 -16.3829 -16.3816
     6.9306  13.0336  13.7971  15.2571  15.6837  16.2600  16.7776  18.0013
    18.2418  19.1351  19.4895  19.5617

          k = 0.2500 0.1443-0.1315 (  3055 PWs)   bands (ev):

   -42.6435 -42.5640 -17.1339 -16.7652 -16.6801 -16.4485 -16.4171 -16.3472
     6.8674  13.0801  13.4764  15.2823  15.5427  15.8790  16.8984  18.4110
    18.8407  18.9756  19.4329  20.2666

          k = 0.2500 0.4330 0.0000 (  3040 PWs)   bands (ev):

   -42.5975 -42.4882 -17.1743 -17.0516 -16.9129 -16.7118 -16.5940 -16.2464
     7.5552  12.5083  13.4977  13.8302  15.8564  16.0972  17.4547  18.7730
    19.1220  19.8158  21.0626  22.6393

          k = 0.2500 0.4330 0.1315 (  3037 PWs)   bands (ev):

   -42.5819 -42.5041 -17.0541 -17.0231 -16.9333 -16.6948 -16.6114 -16.3875
     7.5919  12.6232  13.7313  13.9919  15.9540  16.2220  17.3687  17.7679
    18.8970  19.3260  21.5393  22.3806

          k = 0.2500 0.4330-0.2630 (  3018 PWs)   bands (ev):

   -42.5499 -42.5364 -16.9909 -16.9785 -16.7502 -16.6917 -16.6560 -16.6502
     7.6290  12.7430  13.6704  14.8192  15.5102  16.5374  17.2877  17.8877
    17.9321  18.3724  22.2727  22.6426

          k = 0.2500 0.4330-0.1315 (  3037 PWs)   bands (ev):

   -42.5819 -42.5041 -17.0541 -17.0231 -16.9333 -16.6948 -16.6114 -16.3875
     7.5919  12.6232  13.7313  13.9919  15.9540  16.2220  17.3687  17.7679
    18.8970  19.3260  21.5393  22.3806

          k = 0.2500-0.4330 0.0000 (  3040 PWs)   bands (ev):

   -42.5975 -42.4882 -17.1743 -17.0516 -16.9129 -16.7118 -16.5940 -16.2464
     7.5552  12.5083  13.4977  13.8302  15.8564  16.0972  17.4547  18.7730
    19.1220  19.8158  21.0626  22.6393

          k = 0.2500-0.4330 0.1315 (  3037 PWs)   bands (ev):

   -42.5819 -42.5041 -17.0541 -17.0231 -16.9333 -16.6948 -16.6114 -16.3875
     7.5919  12.6232  13.7313  13.9919  15.9540  16.2220  17.3687  17.7679
    18.8970  19.3260  21.5393  22.3806

          k = 0.2500-0.4330-0.2630 (  3018 PWs)   bands (ev):

   -42.5499 -42.5364 -16.9909 -16.9785 -16.7502 -16.6917 -16.6560 -16.6502
     7.6290  12.7430  13.6704  14.8192  15.5102  16.5374  17.2877  17.8877
    17.9321  18.3724  22.2727  22.6425

          k = 0.2500-0.4330-0.1315 (  3037 PWs)   bands (ev):

   -42.5819 -42.5041 -17.0541 -17.0231 -16.9333 -16.6948 -16.6114 -16.3875
     7.5919  12.6232  13.7313  13.9919  15.9540  16.2220  17.3687  17.7679
    18.8970  19.3260  21.5393  22.3806

          k = 0.2500-0.1443 0.0000 (  3065 PWs)   bands (ev):

   -42.6595 -42.5477 -17.2673 -16.7827 -16.6614 -16.4315 -16.3325 -16.3023
     6.8043  12.9876  13.4040  15.0046  15.4166  15.9042  17.0189  18.7230
    18.8603  19.2536  19.5270  20.8608

          k = 0.2500-0.1443 0.1315 (  3055 PWs)   bands (ev):

   -42.6435 -42.5640 -17.1339 -16.7652 -16.6801 -16.4485 -16.4171 -16.3472
     6.8674  13.0801  13.4764  15.2823  15.5427  15.8790  16.8984  18.4110
    18.8407  18.9756  19.4329  20.2666

          k = 0.2500-0.1443-0.2630 (  3040 PWs)   bands (ev):

   -42.6106 -42.5972 -16.8212 -16.7993 -16.7195 -16.7015 -16.3829 -16.3816
     6.9306  13.0336  13.7971  15.2571  15.6837  16.2600  16.7776  18.0013
    18.2418  19.1351  19.4895  19.5617

          k = 0.2500-0.1443-0.1315 (  3055 PWs)   bands (ev):

   -42.6435 -42.5640 -17.1339 -16.7652 -16.6801 -16.4485 -16.4171 -16.3472
     6.8674  13.0800  13.4764  15.2823  15.5427  15.8790  16.8984  18.4110
    18.8407  18.9756  19.4329  20.2666

          k =-0.5000-0.2887 0.0000 (  3030 PWs)   bands (ev):

   -42.5974 -42.4881 -17.2195 -17.1710 -17.0673 -16.5341 -16.4285 -16.2465
     7.4648  11.7986  13.1991  14.8136  14.9636  16.5896  17.0419  19.0069
    20.5111  21.3600  21.4233  21.9262

          k =-0.5000-0.2887 0.1315 (  3040 PWs)   bands (ev):

   -42.5819 -42.5040 -17.1971 -17.0896 -17.0428 -16.5188 -16.4441 -16.3878
     7.5222  12.0417  12.9982  15.1393  15.1756  15.7687  17.8454  18.7361
    19.5699  21.2487  21.5708  21.8765

          k =-0.5000-0.2887-0.2630 (  3056 PWs)   bands (ev):

   -42.5499 -42.5363 -17.1498 -17.1374 -16.7499 -16.6932 -16.4834 -16.4798
     7.5815  12.3296  12.8094  15.1225  15.3496  15.8638  18.0838  18.4097
    18.9018  20.9298  21.6905  21.7883

          k =-0.5000 0.0000 0.0000 (  3040 PWs)   bands (ev):

   -42.5975 -42.4882 -17.1743 -17.0516 -16.9129 -16.7118 -16.5940 -16.2464
     7.5552  12.5083  13.4977  13.8302  15.8564  16.0972  17.4547  18.7730
    19.1220  19.8158  21.0626  22.6393

          k =-0.5000 0.0000 0.1315 (  3037 PWs)   bands (ev):

   -42.5819 -42.5041 -17.0541 -17.0231 -16.9333 -16.6948 -16.6114 -16.3875
     7.5919  12.6232  13.7313  13.9919  15.9540  16.2220  17.3687  17.7679
    18.8970  19.3260  21.5393  22.3806

          k =-0.5000 0.0000-0.2630 (  3018 PWs)   bands (ev):

   -42.5499 -42.5364 -16.9909 -16.9785 -16.7502 -16.6917 -16.6560 -16.6502
     7.6290  12.7430  13.6704  14.8192  15.5102  16.5374  17.2877  17.8877
    17.9321  18.3724  22.2727  22.6425

          k =-0.5000 0.0000-0.1315 (  3037 PWs)   bands (ev):

   -42.5819 -42.5041 -17.0541 -17.0231 -16.9333 -16.6948 -16.6114 -16.3875
     7.5919  12.6232  13.7313  13.9919  15.9540  16.2220  17.3687  17.7679
    18.8970  19.3260  21.5393  22.3806

          k =-0.5000-0.8660 0.0000 (  3030 PWs)   bands (ev):

   -42.5974 -42.4881 -17.2195 -17.1710 -17.0673 -16.5341 -16.4285 -16.2465
     7.4648  11.7986  13.1991  14.8136  14.9636  16.5896  17.0419  19.0069
    20.5111  21.3600  21.4233  21.9262

          k =-0.5000-0.8660 0.1315 (  3040 PWs)   bands (ev):

   -42.5819 -42.5040 -17.1971 -17.0896 -17.0428 -16.5188 -16.4441 -16.3878
     7.5222  12.0417  12.9982  15.1393  15.1756  15.7687  17.8454  18.7361
    19.5699  21.2487  21.5708  21.8765

          k =-0.5000-0.8660-0.2630 (  3056 PWs)   bands (ev):

   -42.5499 -42.5363 -17.1498 -17.1374 -16.7499 -16.6932 -16.4834 -16.4798
     7.5815  12.3296  12.8094  15.1225  15.3496  15.8638  18.0838  18.4097
    18.9018  20.9298  21.6905  21.7883

     the Fermi energy is    18.5353 ev

!    total energy              =    -746.26268650 Ry
     total all-electron energy =    -16272.282726 Ry
     estimated scf accuracy    <       0.00000002 Ry
     smearing contrib. (-TS)   =      -0.00121731 Ry
     internal energy E=F+TS    =    -746.26146919 Ry

     The total energy is F=E-TS. E is the sum of the following terms:
     one-electron contribution =     -43.95790187 Ry
     hartree contribution      =      43.46347195 Ry
     xc contribution           =     -43.49669718 Ry
     ewald contribution        =    -241.25700086 Ry
     DFT-D3 Dispersion         =      -0.10130509 Ry
     one-center paw contrib.   =    -460.91203614 Ry

     convergence has been achieved in  12 iterations

     Forces acting on atoms (cartesian axes, Ry/au):

     atom    1 type  1   force =     0.00000088    0.00000015   -0.01695523
     atom    2 type  1   force =    -0.00000006   -0.00000117    0.01695650
     atom    3 type  2   force =    -0.00000082    0.00000102   -0.00000126
     The non-local contrib.  to forces
     atom    1 type  1   force =    -0.00000029   -0.00000068   -0.00297297
     atom    2 type  1   force =    -0.00000063    0.00000129    0.00297337
     atom    3 type  2   force =    -0.00000163    0.00000060    0.00000044
     The ionic contribution  to forces
     atom    1 type  1   force =    -0.00000001   -0.00000002    9.84059237
     atom    2 type  1   force =     0.00000001   -0.00000002   -9.84059237
     atom    3 type  2   force =     0.00000000    0.00000004   -0.00000000
     The local contribution  to forces
     atom    1 type  1   force =     0.00000529    0.00000032   -9.85677770
     atom    2 type  1   force =     0.00000397   -0.00000496    9.85680375
     atom    3 type  2   force =     0.00000307    0.00000099    0.00002725
     The core correction contribution to forces
     atom    1 type  1   force =     0.00000006    0.00000003    0.00254106
     atom    2 type  1   force =     0.00000004   -0.00000007   -0.00254081
     atom    3 type  2   force =    -0.00000000   -0.00000006    0.00000004
     The Hubbard contrib.    to forces
     atom    1 type  1   force =     0.00000000    0.00000000    0.00000000
     atom    2 type  1   force =     0.00000000    0.00000000    0.00000000
     atom    3 type  2   force =     0.00000000    0.00000000    0.00000000
     The SCF correction term to forces
     atom    1 type  1   force =    -0.00000322    0.00000009   -0.00054953
     atom    2 type  1   force =    -0.00000249    0.00000217    0.00052946
     atom    3 type  2   force =    -0.00000130   -0.00000096   -0.00002631

     DFT-D3 dispersion contribution to forces:
     atom    1 type  1   force =     0.00000000    0.00000000    0.00021421
     atom    2 type  1   force =    -0.00000000    0.00000000   -0.00021421
     atom    3 type  2   force =     0.00000000   -0.00000000   -0.00000000

     Total force =     0.023979     Total SCF correction =     0.000764


     Computing stress (Cartesian axis) and pressure

          total   stress  (Ry/bohr**3)                   (kbar)     P=      -60.13
  -0.00036561   0.00000000   0.00000000          -53.78        0.00        0.00
   0.00000000  -0.00036563  -0.00000000            0.00      -53.79       -0.00
   0.00000000  -0.00000000  -0.00049501            0.00       -0.00      -72.82


     BFGS Geometry Optimization
     Energy error            =      0.0E+00 Ry
     Gradient error          =      1.7E-02 Ry/Bohr
     Cell gradient error     =      7.3E+01 kbar

     number of scf cycles    =   1
     number of bfgs steps    =   0

     enthalpy           new  =    -746.2626864954 Ry

     new trust radius        =       0.0404274327 bohr
     new conv_thr            =       0.0000010000 Ry

     new unit-cell volume =    258.69872 a.u.^3 (    38.33519 Ang^3 )
     density =      8.83267 g/cm^3

CELL_PARAMETERS (angstrom)
   2.858552430   0.000000299   0.000000100
  -1.429275956   2.475577433  -0.000000260
   0.000000190  -0.000000461   5.417201272

ATOMIC_POSITIONS (angstrom)
Mo            0.0000006669        1.6503850270        1.3644099290
Mo            0.0000002992        1.6503841038        4.0527917236
C            -0.0000004301        0.0000005346       -0.0000006605



     Writing config-only to output data dir ./outdir/pwscf.save/
     NEW-OLD atomic charge density approx. for the potential

     Check: negative core charge=   -0.000001
     extrapolated charge   30.99854, renormalised to   32.00000

     total cpu time spent up to now is        4.1 secs

     Self-consistent Calculation

     iteration #  1     ecut=    77.00 Ry     beta= 0.20
     Davidson diagonalization with overlap
     ethr =  1.00E-06,  avg # of iterations = 10.0

     total cpu time spent up to now is        4.8 secs

     total energy              =    -746.17107594 Ry
     estimated scf accuracy    <       0.11222050 Ry

     iteration #  2     ecut=    77.00 Ry     beta= 0.20
     Davidson diagonalization with overlap
     ethr =  3.51E-04,  avg # of iterations =  3.1

     total cpu time spent up to now is        5.0 secs

     total energy              =    -746.26788240 Ry
     estimated scf accuracy    <       0.02163425 Ry

     iteration #  3     ecut=    77.00 Ry     beta= 0.20
     Davidson diagonalization with overlap
     ethr =  6.76E-05,  avg # of iterations =  1.8

     total cpu time spent up to now is        5.2 secs

     total energy              =    -746.26637861 Ry
     estimated scf accuracy    <       0.01183798 Ry

     iteration #  4     ecut=    77.00 Ry     beta= 0.20
     Davidson diagonalization with overlap
     ethr =  3.70E-05,  avg # of iterations =  1.2

     total cpu time spent up to now is        5.3 secs

     total energy              =    -746.26288275 Ry
     estimated scf accuracy    <       0.00647501 Ry

     iteration #  5     ecut=    77.00 Ry     beta= 0.20
     Davidson diagonalization with overlap
     ethr =  2.02E-05,  avg # of iterations =  2.3

     total cpu time spent up to now is        5.5 secs

     total energy              =    -746.26402599 Ry
     estimated scf accuracy    <       0.00033928 Ry

     iteration #  6     ecut=    77.00 Ry     beta= 0.20
     Davidson diagonalization with overlap
     ethr =  1.06E-06,  avg # of iterations =  3.9

     total cpu time spent up to now is        5.7 secs

     total energy              =    -746.26405338 Ry
     estimated scf accuracy    <       0.00037182 Ry

     iteration #  7     ecut=    77.00 Ry     beta= 0.20
     Davidson diagonalization with overlap
     ethr =  1.06E-06,  avg # of iterations =  1.0

     total cpu time spent up to now is        5.8 secs

     total energy              =    -746.26404267 Ry
     estimated scf accuracy    <       0.00037495 Ry

     iteration #  8     ecut=    77.00 Ry     beta= 0.20
     Davidson diagonalization with overlap
     ethr =  1.06E-06,  avg # of iterations =  1.0

     total cpu time spent up to now is        6.0 secs

     total energy              =    -746.26406263 Ry
     estimated scf accuracy    <       0.00036920 Ry

     iteration #  9     ecut=    77.00 Ry     beta= 0.20
     Davidson diagonalization with overlap
     ethr =  1.06E-06,  avg # of iterations =  1.0

     total cpu time spent up to now is        6.1 secs

     total energy              =    -746.26381779 Ry
     estimated scf accuracy    <       0.00042133 Ry

     iteration # 10     ecut=    77.00 Ry     beta= 0.20
     Davidson diagonalization with overlap
     ethr =  1.06E-06,  avg # of iterations =  3.2

     total cpu time spent up to now is        6.3 secs

     total energy              =    -746.26380753 Ry
     estimated scf accuracy    <       0.00005833 Ry

     iteration # 11     ecut=    77.00 Ry     beta= 0.20
     Davidson diagonalization with overlap
     ethr =  1.82E-07,  avg # of iterations =  4.8

     total cpu time spent up to now is        6.5 secs

     total energy              =    -746.26380786 Ry
     estimated scf accuracy    <       0.00044377 Ry

     iteration # 12     ecut=    77.00 Ry     beta= 0.20
     Davidson diagonalization with overlap
     ethr =  1.82E-07,  avg # of iterations =  2.1

     total cpu time spent up to now is        6.7 secs

     total energy              =    -746.26375649 Ry
     estimated scf accuracy    <       0.00021947 Ry

     iteration # 13     ecut=    77.00 Ry     beta= 0.20
     Davidson diagonalization with overlap
     ethr =  1.82E-07,  avg # of iterations =  4.6

     total cpu time spent up to now is        6.9 secs

     total energy              =    -746.26377307 Ry
     estimated scf accuracy    <       0.00003741 Ry

     iteration # 14     ecut=    77.00 Ry     beta= 0.20
     Davidson diagonalization with overlap
     ethr =  1.17E-07,  avg # of iterations =  4.6

     total cpu time spent up to now is        7.1 secs

     total energy              =    -746.26376325 Ry
     estimated scf accuracy    <       0.00012147 Ry

     iteration # 15     ecut=    77.00 Ry     beta= 0.20
     Davidson diagonalization with overlap
     ethr =  1.17E-07,  avg # of iterations =  3.7

     total cpu time spent up to now is        7.3 secs

     total energy              =    -746.26375712 Ry
     estimated scf accuracy    <       0.00002457 Ry

     iteration # 16     ecut=    77.00 Ry     beta= 0.20
     Davidson diagonalization with overlap
     ethr =  7.68E-08,  avg # of iterations =  3.6

     total cpu time spent up to now is        7.5 secs

     total energy              =    -746.26376384 Ry
     estimated scf accuracy    <       0.00000191 Ry

     iteration # 17     ecut=    77.00 Ry     beta= 0.20
     Davidson diagonalization with overlap
     ethr =  5.95E-09,  avg # of iterations =  3.4

     total cpu time spent up to now is        7.7 secs

     total energy              =    -746.26376301 Ry
     estimated scf accuracy    <       0.00000324 Ry

     iteration # 18     ecut=    77.00 Ry     beta= 0.20
     Davidson diagonalization with overlap
     ethr =  5.95E-09,  avg # of iterations =  3.3

     total cpu time spent up to now is        7.9 secs

     End of self-consistent calculation

          k = 0.0000 0.0000 0.0000 (  3047 PWs)   bands (ev):

   -42.0092 -41.8776 -16.7276 -15.6086 -15.5824 -15.5824 -15.4778 -15.4778
     6.5827  12.9384  14.8561  15.9083  15.9083  16.0542  18.5380  18.5380
    18.8833  18.8833  21.8182  21.9925

          k =-0.0000 0.0000 0.1331 (  3077 PWs)   bands (ev):

   -41.9902 -41.8971 -16.5727 -15.7820 -15.5673 -15.5673 -15.4932 -15.4932
     6.7095  12.5246  15.2625  15.9936  15.9936  16.4144  18.3763  18.3764
    19.1682  19.1682  21.2942  21.3496

          k = 0.0000-0.0000-0.2663 (  3088 PWs)   bands (ev):

   -41.9463 -41.9414 -16.1998 -16.1733 -15.5336 -15.5336 -15.5273 -15.5273
     6.8425  12.1845  15.7437  16.0877  16.0877  16.6533  18.2249  18.2250
    19.6349  19.6349  20.5998  20.5998

          k =-0.0000 0.2913 0.0000 (  3065 PWs)   bands (ev):

   -41.9401 -41.8114 -16.6263 -16.0857 -15.9470 -15.6976 -15.5847 -15.5455
     7.3475  13.4574  13.9563  15.5512  15.9059  16.5079  17.6778  19.4450
    19.5446  19.9991  20.2588  21.6758

          k =-0.0000 0.2913 0.1331 (  3055 PWs)   bands (ev):

   -41.9215 -41.8305 -16.4774 -16.0659 -15.9680 -15.7105 -15.6813 -15.6013
     7.4151  13.6062  13.9807  15.8490  16.0329  16.4900  17.5513  19.1119
    19.5874  19.6733  20.1612  21.0492

          k =-0.0000 0.2913-0.2663 (  3040 PWs)   bands (ev):

   -41.8789 -41.8736 -16.1313 -16.0959 -16.0088 -16.0028 -15.6463 -15.6367
     7.4828  13.5918  14.2704  15.8676  16.1741  16.8694  17.4320  18.7567
    18.8834  19.8665  20.2489  20.2624

          k =-0.0000 0.2913-0.1331 (  3055 PWs)   bands (ev):

   -41.9215 -41.8305 -16.4774 -16.0659 -15.9680 -15.7105 -15.6813 -15.6013
     7.4151  13.6062  13.9807  15.8490  16.0329  16.4900  17.5513  19.1119
    19.5874  19.6733  20.1612  21.0492

          k = 0.0000-0.5827-0.0000 (  3030 PWs)   bands (ev):

   -41.8701 -41.7443 -16.5668 -16.5177 -16.3918 -15.8102 -15.6895 -15.4837
     7.9558  12.2700  13.7079  15.3626  15.4478  17.2731  17.7357  19.7449
    21.3100  22.1604  22.2130  22.7719

          k = 0.0000-0.5827 0.1331 (  3040 PWs)   bands (ev):

   -41.8519 -41.7629 -16.5414 -16.4170 -16.3744 -15.7930 -15.7072 -15.6432
     8.0198  12.5203  13.5029  15.6260  15.7532  16.3882  18.5810  19.5038
    20.3337  22.0369  22.3835  22.7190

          k = 0.0000-0.5827-0.2663 (  3056 PWs)   bands (ev):

   -41.8105 -41.8048 -16.4922 -16.4668 -16.0167 -16.0162 -15.7567 -15.7439
     8.0861  12.8151  13.3093  15.7160  15.8376  16.4754  18.8422  19.1636
    19.6468  21.7260  22.5053  22.6299

          k = 0.2523 0.1457 0.0000 (  3065 PWs)   bands (ev):

   -41.9401 -41.8114 -16.6263 -16.0857 -15.9470 -15.6976 -15.5847 -15.5455
     7.3475  13.4574  13.9563  15.5512  15.9059  16.5079  17.6778  19.4450
    19.5446  19.9991  20.2588  21.6758

          k = 0.2523 0.1457 0.1331 (  3055 PWs)   bands (ev):

   -41.9215 -41.8305 -16.4774 -16.0659 -15.9680 -15.7105 -15.6813 -15.6013
     7.4151  13.6062  13.9807  15.8490  16.0329  16.4900  17.5513  19.1119
    19.5874  19.6733  20.1612  21.0492

          k = 0.2523 0.1457-0.2663 (  3040 PWs)   bands (ev):

   -41.8789 -41.8736 -16.1313 -16.0959 -16.0088 -16.0028 -15.6463 -15.6367
     7.4828  13.5918  14.2704  15.8676  16.1742  16.8694  17.4320  18.7567
    18.8834  19.8665  20.2489  20.2624

          k = 0.2523 0.1457-0.1331 (  3055 PWs)   bands (ev):

   -41.9215 -41.8305 -16.4774 -16.0659 -15.9680 -15.7105 -15.6813 -15.6013
     7.4151  13.6062  13.9807  15.8490  16.0329  16.4900  17.5513  19.1119
    19.5874  19.6733  20.1612  21.0492

          k = 0.2523 0.4370 0.0000 (  3040 PWs)   bands (ev):

   -41.8702 -41.7444 -16.5219 -16.3816 -16.2226 -16.0070 -15.8720 -15.4837
     8.0660  12.9540  14.0193  14.3834  16.4388  16.7062  18.1363  19.4841
    19.8195  20.5841  21.8908  23.5879

          k = 0.2523 0.4370 0.1331 (  3037 PWs)   bands (ev):

   -41.8520 -41.7630 -16.3877 -16.3492 -16.2457 -15.9878 -15.8917 -15.6429
     8.1068  13.0706  14.2781  14.5416  16.5641  16.8348  18.0324  18.4067
    19.6229  20.1117  22.3821  23.2125

          k = 0.2523 0.4370-0.2663 (  3018 PWs)   bands (ev):

   -41.8106 -41.8049 -16.3178 -16.2927 -16.0171 -16.0140 -15.9479 -15.9318
     8.1480  13.1937  14.2167  15.3961  16.1214  17.1848  17.8993  18.5161
    18.6489  19.1396  23.0798  23.5158

          k = 0.2523 0.4370-0.1331 (  3037 PWs)   bands (ev):

   -41.8520 -41.7630 -16.3877 -16.3492 -16.2457 -15.9878 -15.8917 -15.6429
     8.1068  13.0706  14.2781  14.5416  16.5641  16.8348  18.0324  18.4067
    19.6229  20.1117  22.3821  23.2125

          k = 0.2523-0.4370-0.0000 (  3040 PWs)   bands (ev):

   -41.8702 -41.7444 -16.5219 -16.3816 -16.2226 -16.0070 -15.8720 -15.4837
     8.0660  12.9540  14.0193  14.3834  16.4388  16.7062  18.1363  19.4841
    19.8195  20.5841  21.8908  23.5878

          k = 0.2523-0.4370 0.1331 (  3037 PWs)   bands (ev):

   -41.8520 -41.7630 -16.3877 -16.3492 -16.2457 -15.9878 -15.8917 -15.6429
     8.1068  13.0706  14.2781  14.5416  16.5641  16.8348  18.0324  18.4067
    19.6229  20.1117  22.3821  23.2125

          k = 0.2523-0.4370-0.2663 (  3018 PWs)   bands (ev):

   -41.8106 -41.8049 -16.3178 -16.2927 -16.0171 -16.0140 -15.9479 -15.9318
     8.1480  13.1937  14.2167  15.3961  16.1214  17.1848  17.8993  18.5161
    18.6489  19.1396  23.0798  23.5158

          k = 0.2523-0.4370-0.1331 (  3037 PWs)   bands (ev):

   -41.8520 -41.7630 -16.3877 -16.3492 -16.2457 -15.9878 -15.8917 -15.6429
     8.1068  13.0706  14.2781  14.5416  16.5641  16.8348  18.0324  18.4067
    19.6229  20.1117  22.3821  23.2125

          k = 0.2523-0.1457-0.0000 (  3065 PWs)   bands (ev):

   -41.9401 -41.8114 -16.6263 -16.0857 -15.9470 -15.6976 -15.5847 -15.5455
     7.3475  13.4574  13.9563  15.5512  15.9059  16.5079  17.6778  19.4450
    19.5446  19.9991  20.2588  21.6758

          k = 0.2523-0.1457 0.1331 (  3055 PWs)   bands (ev):

   -41.9215 -41.8305 -16.4774 -16.0659 -15.9680 -15.7105 -15.6813 -15.6013
     7.4151  13.6062  13.9807  15.8490  16.0329  16.4900  17.5513  19.1119
    19.5874  19.6733  20.1612  21.0492

          k = 0.2523-0.1457-0.2663 (  3040 PWs)   bands (ev):

   -41.8789 -41.8736 -16.1313 -16.0959 -16.0088 -16.0028 -15.6463 -15.6367
     7.4828  13.5918  14.2704  15.8676  16.1741  16.8694  17.4320  18.7567
    18.8834  19.8665  20.2489  20.2624

          k = 0.2523-0.1457-0.1331 (  3055 PWs)   bands (ev):

   -41.9215 -41.8305 -16.4774 -16.0659 -15.9680 -15.7105 -15.6813 -15.6013
     7.4151  13.6062  13.9807  15.8490  16.0329  16.4900  17.5513  19.1119
    19.5874  19.6733  20.1612  21.0492

          k =-0.5046-0.2913-0.0000 (  3030 PWs)   bands (ev):

   -41.8701 -41.7443 -16.5668 -16.5177 -16.3918 -15.8102 -15.6895 -15.4837
     7.9558  12.2700  13.7079  15.3626  15.4478  17.2731  17.7357  19.7449
    21.3100  22.1604  22.2130  22.7719

          k =-0.5046-0.2913 0.1331 (  3040 PWs)   bands (ev):

   -41.8519 -41.7629 -16.5414 -16.4170 -16.3744 -15.7930 -15.7072 -15.6432
     8.0198  12.5203  13.5029  15.6261  15.7532  16.3882  18.5810  19.5038
    20.3337  22.0369  22.3835  22.7190

          k =-0.5046-0.2913-0.2663 (  3056 PWs)   bands (ev):

   -41.8105 -41.8048 -16.4922 -16.4668 -16.0167 -16.0162 -15.7567 -15.7439
     8.0861  12.8151  13.3093  15.7160  15.8376  16.4753  18.8422  19.1636
    19.6468  21.7260  22.5053  22.6299

          k =-0.5046 0.0000 0.0000 (  3040 PWs)   bands (ev):

   -41.8702 -41.7444 -16.5219 -16.3816 -16.2226 -16.0070 -15.8720 -15.4837
     8.0660  12.9540  14.0193  14.3834  16.4388  16.7062  18.1363  19.4841
    19.8195  20.5841  21.8908  23.5030

          k =-0.5046 0.0000 0.1331 (  3037 PWs)   bands (ev):

   -41.8520 -41.7630 -16.3877 -16.3492 -16.2457 -15.9878 -15.8917 -15.6429
     8.1068  13.0706  14.2781  14.5416  16.5641  16.8348  18.0324  18.4067
    19.6229  20.1117  22.3821  23.2125

          k =-0.5046 0.0000-0.2663 (  3018 PWs)   bands (ev):

   -41.8106 -41.8049 -16.3178 -16.2927 -16.0171 -16.0140 -15.9479 -15.9318
     8.1480  13.1937  14.2167  15.3961  16.1214  17.1848  17.8993  18.5161
    18.6489  19.1396  23.0798  23.5157

          k =-0.5046 0.0000-0.1331 (  3037 PWs)   bands (ev):

   -41.8520 -41.7630 -16.3877 -16.3492 -16.2457 -15.9878 -15.8917 -15.6429
     8.1068  13.0706  14.2781  14.5416  16.5641  16.8348  18.0324  18.4067
    19.6229  20.1117  22.3821  23.2125

          k =-0.5046-0.8740-0.0000 (  3030 PWs)   bands (ev):

   -41.8701 -41.7443 -16.5668 -16.5177 -16.3918 -15.8102 -15.6895 -15.4837
     7.9558  12.2700  13.7079  15.3626  15.4478  17.2731  17.7357  19.7449
    21.3100  22.1604  22.2130  22.7719

          k =-0.5046-0.8740 0.1331 (  3040 PWs)   bands (ev):

   -41.8519 -41.7629 -16.5414 -16.4170 -16.3744 -15.7930 -15.7072 -15.6432
     8.0198  12.5203  13.5029  15.6261  15.7532  16.3882  18.5810  19.5038
    20.3337  22.0369  22.3835  22.7190

          k =-0.5046-0.8740-0.2663 (  3056 PWs)   bands (ev):

   -41.8105 -41.8048 -16.4922 -16.4668 -16.0167 -16.0162 -15.7567 -15.7439
     8.0861  12.8151  13.3093  15.7160  15.8376  16.4754  18.8422  19.1636
    19.6468  21.7260  22.5053  22.6299

     the Fermi energy is    19.2464 ev

!    total energy              =    -746.26376340 Ry
     total all-electron energy =    -16272.283803 Ry
     estimated scf accuracy    <       0.00000006 Ry
     smearing contrib. (-TS)   =      -0.00122950 Ry
     internal energy E=F+TS    =    -746.26253391 Ry

     The total energy is F=E-TS. E is the sum of the following terms:
     one-electron contribution =     -41.09017684 Ry
     hartree contribution      =      42.86489953 Ry
     xc contribution           =     -43.60986521 Ry
     ewald contribution        =    -243.40584289 Ry
     DFT-D3 Dispersion         =      -0.10419026 Ry
     one-center paw contrib.   =    -460.91735822 Ry

     convergence has been achieved in  18 iterations

     Forces acting on atoms (cartesian axes, Ry/au):

     atom    1 type  1   force =    -0.00000050    0.00000049    0.00426237
     atom    2 type  1   force =     0.00000012    0.00000040   -0.00426280
     atom    3 type  2   force =     0.00000038   -0.00000089    0.00000042
     The non-local contrib.  to forces
     atom    1 type  1   force =    -0.00000004    0.00000084   -0.00079167
     atom    2 type  1   force =    -0.00000023    0.00000121    0.00079268
     atom    3 type  2   force =     0.00000017    0.00000560    0.00000111
     The ionic contribution  to forces
     atom    1 type  1   force =    -0.00000124    0.00000663   10.73488893
     atom    2 type  1   force =    -0.00000017    0.00000321  -10.73489876
     atom    3 type  2   force =     0.00000141   -0.00000984    0.00000983
     The local contribution  to forces
     atom    1 type  1   force =     0.00000049   -0.00000422  -10.73175511
     atom    2 type  1   force =     0.00000007   -0.00000163   10.73176986
     atom    3 type  2   force =    -0.00000106    0.00000125   -0.00001147
     The core correction contribution to forces
     atom    1 type  1   force =    -0.00000001   -0.00000001    0.00275417
     atom    2 type  1   force =     0.00000001   -0.00000003   -0.00275417
     atom    3 type  2   force =    -0.00000000   -0.00000016   -0.00000008
     The Hubbard contrib.    to forces
     atom    1 type  1   force =     0.00000000    0.00000000    0.00000000
     atom    2 type  1   force =     0.00000000    0.00000000    0.00000000
     atom    3 type  2   force =     0.00000000    0.00000000    0.00000000
     The SCF correction term to forces
     atom    1 type  1   force =     0.00000024   -0.00000268   -0.00113266
     atom    2 type  1   force =     0.00000038   -0.00000229    0.00112776
     atom    3 type  2   force =    -0.00000019    0.00000233    0.00000177

     DFT-D3 dispersion contribution to forces:
     atom    1 type  1   force =    -0.00000000   -0.00000000    0.00029944
     atom    2 type  1   force =     0.00000000   -0.00000000   -0.00029944
     atom    3 type  2   force =     0.00000000    0.00000000   -0.00000000

     Total force =     0.006028     Total SCF correction =     0.001598
     SCF correction compared to forces is large: reduce conv_thr to get better values


     Computing stress (Cartesian axis) and pressure

          total   stress  (Ry/bohr**3)                   (kbar)     P=       32.74
   0.00020447  -0.00000000  -0.00000000           30.08       -0.00       -0.00
  -0.00000000   0.00020446  -0.00000001           -0.00       30.08       -0.00
  -0.00000000  -0.00000001   0.00025880           -0.00       -0.00       38.07

     Energy error            =      1.1E-03 Ry
     Gradient error          =      4.3E-03 Ry/Bohr
     Cell gradient error     =      3.8E+01 kbar

     number of scf cycles    =   2
     number of bfgs steps    =   1

     enthalpy           old  =    -746.2626864954 Ry
     enthalpy           new  =    -746.2637634042 Ry

     CASE: enthalpy          _new < enthalpy          _old

     new trust radius        =       0.0136997902 bohr
     new conv_thr            =       0.0000000426 Ry

     new unit-cell volume =    261.54171 a.u.^3 (    38.75648 Ang^3 )
     density =      8.73666 g/cm^3

CELL_PARAMETERS (angstrom)
   2.868116027   0.000000125  -0.000000024
  -1.434057906   2.483859456  -0.000000713
  -0.000000047  -0.000001596   5.440272024

ATOMIC_POSITIONS (angstrom)
Mo            0.0000003346        1.6559062024        1.3716624072
Mo            0.0000000637        1.6559046816        4.0686091688
C            -0.0000003010        0.0000002273       -0.0000005189



     Writing config-only to output data dir ./outdir/pwscf.save/
     NEW-OLD atomic charge density approx. for the potential

     Check: negative core charge=   -0.000001
     extrapolated charge   32.34782, renormalised to   32.00000

     total cpu time spent up to now is        8.9 secs

     Self-consistent Calculation

     iteration #  1     ecut=    77.00 Ry     beta= 0.20
     Davidson diagonalization with overlap
     ethr =  1.00E-06,  avg # of iterations =  6.6

     total cpu time spent up to now is        9.4 secs

     total energy              =    -746.25348477 Ry
     estimated scf accuracy    <       0.01238333 Ry

     iteration #  2     ecut=    77.00 Ry     beta= 0.20
     Davidson diagonalization with overlap
     ethr =  3.87E-05,  avg # of iterations =  3.1

     total cpu time spent up to now is        9.6 secs

     total energy              =    -746.26457350 Ry
     estimated scf accuracy    <       0.00263848 Ry

     iteration #  3     ecut=    77.00 Ry     beta= 0.20
     Davidson diagonalization with overlap
     ethr =  8.25E-06,  avg # of iterations =  2.0

     total cpu time spent up to now is        9.8 secs

     total energy              =    -746.26446043 Ry
     estimated scf accuracy    <       0.00144041 Ry

     iteration #  4     ecut=    77.00 Ry     beta= 0.20
     Davidson diagonalization with overlap
     ethr =  4.50E-06,  avg # of iterations =  1.0

     total cpu time spent up to now is        9.9 secs

     total energy              =    -746.26401618 Ry
     estimated scf accuracy    <       0.00091220 Ry

     iteration #  5     ecut=    77.00 Ry     beta= 0.20
     Davidson diagonalization with overlap
     ethr =  2.85E-06,  avg # of iterations =  2.1

     total cpu time spent up to now is       10.1 secs

     total energy              =    -746.26412888 Ry
     estimated scf accuracy    <       0.00009118 Ry

     iteration #  6     ecut=    77.00 Ry     beta= 0.20
     Davidson diagonalization with overlap
     ethr =  2.85E-07,  avg # of iterations =  2.2

     total cpu time spent up to now is       10.3 secs

     total energy              =    -746.26415890 Ry
     estimated scf accuracy    <       0.00007136 Ry

     iteration #  7     ecut=    77.00 Ry     beta= 0.20
     Davidson diagonalization with overlap
     ethr =  2.23E-07,  avg # of iterations =  1.5

     total cpu time spent up to now is       10.4 secs

     total energy              =    -746.26412795 Ry
     estimated scf accuracy    <       0.00012766 Ry

     iteration #  8     ecut=    77.00 Ry     beta= 0.20
     Davidson diagonalization with overlap
     ethr =  2.23E-07,  avg # of iterations =  1.0

     total cpu time spent up to now is       10.6 secs

     total energy              =    -746.26406285 Ry
     estimated scf accuracy    <       0.00008078 Ry

     iteration #  9     ecut=    77.00 Ry     beta= 0.20
     Davidson diagonalization with overlap
     ethr =  2.23E-07,  avg # of iterations =  2.1

     total cpu time spent up to now is       10.8 secs

     total energy              =    -746.26408251 Ry
     estimated scf accuracy    <       0.00000208 Ry

     iteration # 10     ecut=    77.00 Ry     beta= 0.20
     Davidson diagonalization with overlap
     ethr =  6.49E-09,  avg # of iterations =  4.6

     total cpu time spent up to now is       11.0 secs

     total energy              =    -746.26408319 Ry
     estimated scf accuracy    <       0.00000233 Ry

     iteration # 11     ecut=    77.00 Ry     beta= 0.20
     Davidson diagonalization with overlap
     ethr =  6.49E-09,  avg # of iterations =  1.3

     total cpu time spent up to now is       11.1 secs

     total energy              =    -746.26408303 Ry
     estimated scf accuracy    <       0.00000147 Ry

     iteration # 12     ecut=    77.00 Ry     beta= 0.20
     Davidson diagonalization with overlap
     ethr =  4.60E-09,  avg # of iterations =  1.0

     total cpu time spent up to now is       11.3 secs

     total energy              =    -746.26408304 Ry
     estimated scf accuracy    <       0.00000071 Ry

     iteration # 13     ecut=    77.00 Ry     beta= 0.20
     Davidson diagonalization with overlap
     ethr =  2.22E-09,  avg # of iterations =  1.0

     total cpu time spent up to now is       11.4 secs

     total energy              =    -746.26408282 Ry
     estimated scf accuracy    <       0.00000050 Ry

     iteration # 14     ecut=    77.00 Ry     beta= 0.20
     Davidson diagonalization with overlap
     ethr =  1.56E-09,  avg # of iterations =  3.7

     total cpu time spent up to now is       11.6 secs

     End of self-consistent calculation

          k = 0.0000 0.0000 0.0000 (  3047 PWs)   bands (ev):

   -42.2619 -42.1368 -16.9520 -15.8763 -15.8479 -15.8479 -15.7478 -15.7478
     6.3858  12.7405  14.6588  15.7212  15.7212  15.8208  18.3003  18.3003
    18.6489  18.6489  21.5167  21.6960

          k = 0.0000 0.0000 0.1326 (  3077 PWs)   bands (ev):

   -42.2439 -42.1553 -16.8028 -16.0428 -15.8334 -15.8334 -15.7626 -15.7626
     6.5089  12.3269  15.0613  15.8058  15.8058  16.1794  18.1412  18.1412
    18.9295  18.9295  21.0041  21.0653

          k =-0.0000-0.0000-0.2651 (  3088 PWs)   bands (ev):

   -42.2030 -42.1966 -16.4386 -16.4241 -15.8005 -15.8005 -15.7957 -15.7957
     6.6378  11.9884  15.5308  15.8992  15.8992  16.4229  17.9919  17.9919
    19.3912  19.3912  20.3262  20.3262

          k =-0.0000 0.2904 0.0000 (  3065 PWs)   bands (ev):

   -42.1958 -42.0733 -16.8546 -16.3338 -16.2013 -15.9592 -15.8513 -15.8154
     7.1485  13.2824  13.7545  15.3558  15.7178  16.2917  17.4435  19.1867
    19.2992  19.7331  19.9965  21.3846

          k =-0.0000 0.2904 0.1326 (  3055 PWs)   bands (ev):

   -42.1781 -42.0914 -16.7111 -16.3148 -16.2214 -15.9738 -15.9436 -15.8672
     7.2142  13.4144  13.7926  15.6461  15.8434  16.2719  17.3199  18.8605
    19.3233  19.4242  19.9008  20.7710

          k =-0.0000 0.2904-0.2651 (  3040 PWs)   bands (ev):

   -42.1383 -42.1316 -16.3733 -16.3495 -16.2611 -16.2531 -15.9094 -15.9016
     7.2799  13.3900  14.0901  15.6529  15.9831  16.6478  17.2022  18.4986
    18.6465  19.6090  19.9829  20.0068

          k =-0.0000 0.2904-0.1326 (  3055 PWs)   bands (ev):

   -42.1781 -42.0914 -16.7111 -16.3148 -16.2214 -15.9738 -15.9436 -15.8672
     7.2142  13.4144  13.7926  15.6461  15.8434  16.2719  17.3199  18.8605
    19.3233  19.4242  19.9008  20.7710

          k = 0.0000-0.5807-0.0000 (  3030 PWs)   bands (ev):

   -42.1287 -42.0090 -16.7987 -16.7505 -16.6317 -16.0682 -15.9528 -15.7559
     7.7722  12.0971  13.5222  15.1676  15.2631  17.0345  17.4944  19.4832
    21.0248  21.8729  21.9224  22.4684

          k = 0.0000-0.5807 0.1326 (  3040 PWs)   bands (ev):

   -42.1115 -42.0267 -16.7743 -16.6558 -16.6124 -16.0516 -15.9697 -15.9090
     7.8333  12.3439  13.3203  15.4391  15.5488  16.1727  18.3226  19.2350
    20.0660  21.7465  22.0904  22.4168

          k = 0.0000-0.5807-0.2651 (  3056 PWs)   bands (ev):

   -42.0728 -42.0658 -16.7265 -16.7042 -16.2732 -16.2624 -16.0162 -16.0055
     7.8967  12.6347  13.1298  15.5132  15.6482  16.2558  18.5794  18.8981
    19.3891  21.4334  22.2104  22.3289

          k = 0.2515 0.1452 0.0000 (  3065 PWs)   bands (ev):

   -42.1958 -42.0733 -16.8546 -16.3338 -16.2013 -15.9592 -15.8513 -15.8154
     7.1485  13.2824  13.7545  15.3558  15.7178  16.2917  17.4435  19.1867
    19.2992  19.7331  19.9965  21.3846

          k = 0.2515 0.1452 0.1326 (  3055 PWs)   bands (ev):

   -42.1781 -42.0914 -16.7111 -16.3148 -16.2214 -15.9738 -15.9436 -15.8672
     7.2142  13.4144  13.7926  15.6461  15.8434  16.2719  17.3199  18.8605
    19.3233  19.4242  19.9008  20.7710

          k = 0.2515 0.1452-0.2651 (  3040 PWs)   bands (ev):

   -42.1383 -42.1316 -16.3733 -16.3495 -16.2611 -16.2531 -15.9094 -15.9016
     7.2799  13.3900  14.0901  15.6529  15.9831  16.6478  17.2022  18.4986
    18.6465  19.6090  19.9829  20.0068

          k = 0.2515 0.1452-0.1326 (  3055 PWs)   bands (ev):

   -42.1781 -42.0914 -16.7111 -16.3148 -16.2214 -15.9738 -15.9436 -15.8672
     7.2142  13.4144  13.7926  15.6461  15.8434  16.2719  17.3199  18.8605
    19.3233  19.4242  19.9008  20.7710

          k = 0.2515 0.4356 0.0000 (  3040 PWs)   bands (ev):

   -42.1288 -42.0091 -16.7544 -16.6197 -16.4680 -16.2579 -16.1290 -15.7558
     7.8754  12.7862  13.8294  14.1823  16.2328  16.4895  17.8947  19.2285
    19.5669  20.3106  21.5985  23.2634

          k = 0.2515 0.4356 0.1326 (  3037 PWs)   bands (ev):

   -42.1116 -42.0268 -16.6251 -16.5887 -16.4901 -16.2395 -16.1479 -15.9087
     7.9144  12.9013  14.0805  14.3407  16.3501  16.6179  17.7956  18.1745
    19.3663  19.8357  22.0832  22.9095

          k = 0.2515 0.4356-0.2651 (  3018 PWs)   bands (ev):

   -42.0729 -42.0658 -16.5578 -16.5357 -16.2736 -16.2604 -16.2006 -16.1869
     7.9538  13.0223  14.0198  15.1822  15.9090  16.9594  17.6756  18.2844
    18.4015  18.8751  22.7841  23.2007

          k = 0.2515 0.4356-0.1326 (  3037 PWs)   bands (ev):

   -42.1116 -42.0268 -16.6251 -16.5887 -16.4901 -16.2395 -16.1479 -15.9087
     7.9144  12.9013  14.0805  14.3407  16.3501  16.6179  17.7956  18.1745
    19.3663  19.8357  22.0832  22.9095

          k = 0.2515-0.4356-0.0000 (  3040 PWs)   bands (ev):

   -42.1288 -42.0091 -16.7544 -16.6197 -16.4680 -16.2579 -16.1290 -15.7558
     7.8754  12.7862  13.8294  14.1823  16.2328  16.4895  17.8947  19.2285
    19.5669  20.3106  21.5985  23.2633

          k = 0.2515-0.4356 0.1326 (  3037 PWs)   bands (ev):

   -42.1116 -42.0268 -16.6251 -16.5887 -16.4901 -16.2395 -16.1479 -15.9087
     7.9144  12.9013  14.0805  14.3407  16.3501  16.6179  17.7956  18.1745
    19.3663  19.8357  22.0832  22.9095

          k = 0.2515-0.4356-0.2651 (  3018 PWs)   bands (ev):

   -42.0729 -42.0658 -16.5578 -16.5357 -16.2736 -16.2604 -16.2006 -16.1869
     7.9538  13.0223  14.0198  15.1822  15.9090  16.9594  17.6756  18.2844
    18.4015  18.8751  22.7841  23.2007

          k = 0.2515-0.4356-0.1326 (  3037 PWs)   bands (ev):

   -42.1116 -42.0268 -16.6251 -16.5887 -16.4901 -16.2395 -16.1479 -15.9087
     7.9144  12.9013  14.0805  14.3407  16.3501  16.6179  17.7956  18.1745
    19.3663  19.8357  22.0832  22.9095

          k = 0.2515-0.1452-0.0000 (  3065 PWs)   bands (ev):

   -42.1958 -42.0733 -16.8546 -16.3338 -16.2013 -15.9592 -15.8513 -15.8154
     7.1485  13.2824  13.7545  15.3558  15.7178  16.2916  17.4435  19.1867
    19.2992  19.7331  19.9965  21.3846

          k = 0.2515-0.1452 0.1326 (  3055 PWs)   bands (ev):

   -42.1781 -42.0914 -16.7111 -16.3148 -16.2214 -15.9738 -15.9436 -15.8672
     7.2142  13.4144  13.7926  15.6461  15.8434  16.2719  17.3199  18.8605
    19.3233  19.4242  19.9008  20.7710

          k = 0.2515-0.1452-0.2651 (  3040 PWs)   bands (ev):

   -42.1383 -42.1316 -16.3733 -16.3495 -16.2611 -16.2531 -15.9094 -15.9016
     7.2799  13.3900  14.0901  15.6529  15.9831  16.6478  17.2022  18.4986
    18.6465  19.6090  19.9829  20.0068

          k = 0.2515-0.1452-0.1326 (  3055 PWs)   bands (ev):

   -42.1781 -42.0914 -16.7111 -16.3148 -16.2214 -15.9738 -15.9436 -15.8672
     7.2142  13.4144  13.7926  15.6461  15.8434  16.2719  17.3199  18.8605
    19.3233  19.4242  19.9008  20.7710

          k =-0.5029-0.2904-0.0000 (  3030 PWs)   bands (ev):

   -42.1287 -42.0090 -16.7987 -16.7505 -16.6317 -16.0682 -15.9528 -15.7559
     7.7722  12.0971  13.5222  15.1676  15.2631  17.0345  17.4944  19.4832
    21.0248  21.8729  21.9224  22.4684

          k =-0.5029-0.2904 0.1326 (  3040 PWs)   bands (ev):

   -42.1115 -42.0267 -16.7743 -16.6558 -16.6124 -16.0516 -15.9697 -15.9090
     7.8333  12.3439  13.3203  15.4391  15.5488  16.1727  18.3225  19.2350
    20.0660  21.7465  22.0904  22.4168

          k =-0.5029-0.2904-0.2651 (  3056 PWs)   bands (ev):

   -42.0728 -42.0658 -16.7265 -16.7042 -16.2732 -16.2624 -16.0162 -16.0055
     7.8967  12.6347  13.1298  15.5132  15.6482  16.2558  18.5794  18.8981
    19.3891  21.4334  22.2104  22.3289

          k =-0.5029 0.0000-0.0000 (  3040 PWs)   bands (ev):

   -42.1288 -42.0091 -16.7544 -16.6197 -16.4680 -16.2579 -16.1290 -15.7558
     7.8754  12.7862  13.8294  14.1823  16.2328  16.4895  17.8947  19.2285
    19.5669  20.3106  21.5985  23.1812

          k =-0.5029 0.0000 0.1326 (  3037 PWs)   bands (ev):

   -42.1116 -42.0268 -16.6251 -16.5887 -16.4901 -16.2395 -16.1479 -15.9087
     7.9144  12.9013  14.0805  14.3407  16.3501  16.6179  17.7956  18.1745
    19.3663  19.8357  22.0832  22.9095

          k =-0.5029-0.0000-0.2651 (  3018 PWs)   bands (ev):

   -42.0729 -42.0658 -16.5578 -16.5357 -16.2736 -16.2604 -16.2006 -16.1869
     7.9538  13.0223  14.0198  15.1822  15.9090  16.9594  17.6756  18.2844
    18.4015  18.8751  22.7841  23.2007

          k =-0.5029-0.0000-0.1326 (  3037 PWs)   bands (ev):

   -42.1116 -42.0268 -16.6251 -16.5887 -16.4901 -16.2395 -16.1479 -15.9087
     7.9144  12.9013  14.0805  14.3407  16.3501  16.6179  17.7956  18.1745
    19.3663  19.8357  22.0832  22.9095

          k =-0.5029-0.8711-0.0000 (  3030 PWs)   bands (ev):

   -42.1287 -42.0090 -16.7987 -16.7505 -16.6317 -16.0682 -15.9528 -15.7559
     7.7722  12.0971  13.5222  15.1676  15.2631  17.0345  17.4944  19.4832
    21.0248  21.8729  21.9224  22.4684

          k =-0.5029-0.8711 0.1326 (  3040 PWs)   bands (ev):

   -42.1115 -42.0267 -16.7743 -16.6558 -16.6124 -16.0516 -15.9697 -15.9090
     7.8333  12.3439  13.3203  15.4391  15.5488  16.1727  18.3225  19.2350
    20.0660  21.7465  22.0904  22.4168

          k =-0.5029-0.8711-0.2651 (  3056 PWs)   bands (ev):

   -42.0728 -42.0658 -16.7265 -16.7042 -16.2732 -16.2624 -16.0162 -16.0055
     7.8967  12.6347  13.1298  15.5132  15.6482  16.2558  18.5794  18.8981
    19.3891  21.4334  22.2104  22.3289

     the Fermi energy is    18.9923 ev

!    total energy              =    -746.26408292 Ry
     total all-electron energy =    -16272.284123 Ry
     estimated scf accuracy    <          8.9E-09 Ry
     smearing contrib. (-TS)   =      -0.00123921 Ry
     internal energy E=F+TS    =    -746.26284371 Ry

     The total energy is F=E-TS. E is the sum of the following terms:
     one-electron contribution =     -42.23488249 Ry
     hartree contribution      =      43.13842522 Ry
     xc contribution           =     -43.57118126 Ry
     ewald contribution        =    -242.57661608 Ry
     DFT-D3 Dispersion         =      -0.10315644 Ry
     one-center paw contrib.   =    -460.91543266 Ry

     convergence has been achieved in  14 iterations

     Forces acting on atoms (cartesian axes, Ry/au):

     atom    1 type  1   force =    -0.00000007    0.00000039   -0.00208109
     atom    2 type  1   force =    -0.00000004   -0.00000004    0.00208077
     atom    3 type  2   force =     0.00000010   -0.00000035    0.00000032
     The non-local contrib.  to forces
     atom    1 type  1   force =    -0.00000001   -0.00000059   -0.00213395
     atom    2 type  1   force =     0.00000007   -0.00000032    0.00213296
     atom    3 type  2   force =     0.00000027   -0.00000174    0.00000039
     The ionic contribution  to forces
     atom    1 type  1   force =    -0.00000056    0.00000983   10.55167934
     atom    2 type  1   force =    -0.00000098   -0.00000108  -10.55168702
     atom    3 type  2   force =     0.00000153   -0.00000875    0.00000768
     The local contribution  to forces
     atom    1 type  1   force =     0.00000053   -0.00000891  -10.55410704
     atom    2 type  1   force =     0.00000082    0.00000133   10.55411528
     atom    3 type  2   force =    -0.00000168    0.00000974   -0.00001247
     The core correction contribution to forces
     atom    1 type  1   force =    -0.00000000    0.00000003    0.00272104
     atom    2 type  1   force =    -0.00000000    0.00000001   -0.00272102
     atom    3 type  2   force =    -0.00000001    0.00000005   -0.00000002
     The Hubbard contrib.    to forces
     atom    1 type  1   force =     0.00000000    0.00000000    0.00000000
     atom    2 type  1   force =     0.00000000    0.00000000    0.00000000
     atom    3 type  2   force =     0.00000000    0.00000000    0.00000000
     The SCF correction term to forces
     atom    1 type  1   force =    -0.00000002   -0.00000005   -0.00051774
     atom    2 type  1   force =     0.00000006   -0.00000007    0.00051743
     atom    3 type  2   force =     0.00000000    0.00000026    0.00000454

     DFT-D3 dispersion contribution to forces:
     atom    1 type  1   force =    -0.00000000   -0.00000000    0.00027707
     atom    2 type  1   force =     0.00000000   -0.00000000   -0.00027707
     atom    3 type  2   force =     0.00000000    0.00000000   -0.00000000

     Total force =     0.002943     Total SCF correction =     0.000732
     SCF correction compared to forces is large: reduce conv_thr to get better values


     Computing stress (Cartesian axis) and pressure

          total   stress  (Ry/bohr**3)                   (kbar)     P=       -0.34
  -0.00000254   0.00000000  -0.00000000           -0.37        0.00       -0.00
   0.00000000  -0.00000252  -0.00000000            0.00       -0.37       -0.00
  -0.00000000  -0.00000000  -0.00000180           -0.00       -0.00       -0.26

     Energy error            =      3.2E-04 Ry
     Gradient error          =      2.1E-03 Ry/Bohr
     Cell gradient error     =      3.7E-01 kbar

     number of scf cycles    =   3
     number of bfgs steps    =   2

     enthalpy           old  =    -746.2637634042 Ry
     enthalpy           new  =    -746.2640829221 Ry

     CASE: enthalpy          _new < enthalpy          _old

     new trust radius        =       0.0019484237 bohr
     new conv_thr            =       0.0000000208 Ry

     new unit-cell volume =    261.57101 a.u.^3 (    38.76083 Ang^3 )
     density =      8.73568 g/cm^3

CELL_PARAMETERS (angstrom)
   2.868185515   0.000000183  -0.000000049
  -1.434092599   2.483920666  -0.000000884
  -0.000000094  -0.000001999   5.440615535

ATOMIC_POSITIONS (angstrom)
Mo            0.0000003187        1.6559471346        1.3707177686
Mo            0.0000000445        1.6559451888        4.0698969089
C            -0.0000002457        0.0000000381       -0.0000003533



     Writing config-only to output data dir ./outdir/pwscf.save/
     NEW-OLD atomic charge density approx. for the potential

     Check: negative core charge=   -0.000001
     extrapolated charge   32.00358, renormalised to   32.00000

     total cpu time spent up to now is       12.6 secs

     Self-consistent Calculation

     iteration #  1     ecut=    77.00 Ry     beta= 0.20
     Davidson diagonalization with overlap
     ethr =  1.00E-06,  avg # of iterations =  3.0

     Threshold (ethr) on eigenvalues was too large:
     Diagonalizing with lowered threshold

     Davidson diagonalization with overlap
     ethr =  1.69E-08,  avg # of iterations =  2.2

     total cpu time spent up to now is       13.2 secs

     total energy              =    -746.26408762 Ry
     estimated scf accuracy    <       0.00000736 Ry

     iteration #  2     ecut=    77.00 Ry     beta= 0.20
     Davidson diagonalization with overlap
     ethr =  2.30E-08,  avg # of iterations =  2.7

     total cpu time spent up to now is       13.4 secs

     total energy              =    -746.26408953 Ry
     estimated scf accuracy    <       0.00000075 Ry

     iteration #  3     ecut=    77.00 Ry     beta= 0.20
     Davidson diagonalization with overlap
     ethr =  2.35E-09,  avg # of iterations =  2.7

     total cpu time spent up to now is       13.5 secs

     total energy              =    -746.26408962 Ry
     estimated scf accuracy    <       0.00000038 Ry

     iteration #  4     ecut=    77.00 Ry     beta= 0.20
     Davidson diagonalization with overlap
     ethr =  1.18E-09,  avg # of iterations =  2.0

     total cpu time spent up to now is       13.7 secs

     total energy              =    -746.26408975 Ry
     estimated scf accuracy    <       0.00000008 Ry

     iteration #  5     ecut=    77.00 Ry     beta= 0.20
     Davidson diagonalization with overlap
     ethr =  2.37E-10,  avg # of iterations =  3.3

     total cpu time spent up to now is       13.9 secs

     total energy              =    -746.26408979 Ry
     estimated scf accuracy    <       0.00000006 Ry

     iteration #  6     ecut=    77.00 Ry     beta= 0.20
     Davidson diagonalization with overlap
     ethr =  1.75E-10,  avg # of iterations =  2.0

     total cpu time spent up to now is       14.1 secs

     total energy              =    -746.26408978 Ry
     estimated scf accuracy    <       0.00000003 Ry

     iteration #  7     ecut=    77.00 Ry     beta= 0.20
     Davidson diagonalization with overlap
     ethr =  1.03E-10,  avg # of iterations =  4.3

     total cpu time spent up to now is       14.3 secs

     total energy              =    -746.26408979 Ry
     estimated scf accuracy    <       0.00000010 Ry

     iteration #  8     ecut=    77.00 Ry     beta= 0.20
     Davidson diagonalization with overlap
     ethr =  1.03E-10,  avg # of iterations =  2.8

     total cpu time spent up to now is       14.5 secs

     End of self-consistent calculation

          k = 0.0000 0.0000 0.0000 (  3047 PWs)   bands (ev):

   -42.2641 -42.1391 -16.9543 -15.8792 -15.8502 -15.8502 -15.7502 -15.7502
     6.3824  12.7354  14.6592  15.7124  15.7124  15.8162  18.2973  18.2973
    18.6459  18.6460  21.5218  21.6926

          k = 0.0000 0.0000 0.1326 (  3077 PWs)   bands (ev):

   -42.2461 -42.1576 -16.8052 -16.0456 -15.8357 -15.8357 -15.7649 -15.7649
     6.5051  12.3234  15.0594  15.7965  15.7965  16.1751  18.1389  18.1390
    18.9256  18.9256  21.0108  21.0643

          k =-0.0000-0.0000-0.2651 (  3088 PWs)   bands (ev):

   -42.2047 -42.1994 -16.4446 -16.4232 -15.8032 -15.8032 -15.7977 -15.7977
     6.6337  11.9859  15.5269  15.8892  15.8892  16.4193  17.9904  17.9905
    19.3842  19.3842  20.3290  20.3290

          k =-0.0000 0.2904 0.0000 (  3065 PWs)   bands (ev):

   -42.1980 -42.0757 -16.8569 -16.3361 -16.2036 -15.9615 -15.8536 -15.8184
     7.1442  13.2768  13.7498  15.3537  15.7090  16.2897  17.4412  19.1841
    19.2968  19.7293  19.9935  21.3812

          k =-0.0000 0.2904 0.1326 (  3055 PWs)   bands (ev):

   -42.1803 -42.0937 -16.7135 -16.3171 -16.2236 -15.9767 -15.9460 -15.8695
     7.2096  13.4099  13.7868  15.6435  15.8339  16.2702  17.3184  18.8567
    19.3220  19.4224  19.8982  20.7691

          k =-0.0000 0.2904-0.2651 (  3040 PWs)   bands (ev):

   -42.1400 -42.1344 -16.3788 -16.3487 -16.2629 -16.2565 -15.9122 -15.9036
     7.2751  13.3867  14.0818  15.6527  15.9727  16.6427  17.2021  18.5031
    18.6390  19.6091  19.9842  20.0011

          k =-0.0000 0.2904-0.1326 (  3055 PWs)   bands (ev):

   -42.1803 -42.0937 -16.7135 -16.3171 -16.2236 -15.9767 -15.9460 -15.8695
     7.2096  13.4099  13.7868  15.6435  15.8339  16.2702  17.3184  18.8567
    19.3220  19.4224  19.8982  20.7691

          k = 0.0000-0.5807-0.0000 (  3030 PWs)   bands (ev):

   -42.1309 -42.0114 -16.8010 -16.7527 -16.6340 -16.0705 -15.9552 -15.7588
     7.7658  12.0930  13.5175  15.1665  15.2552  17.0364  17.4945  19.4821
    21.0216  21.8702  21.9141  22.4654

          k = 0.0000-0.5807 0.1326 (  3040 PWs)   bands (ev):

   -42.1137 -42.0290 -16.7767 -16.6581 -16.6147 -16.0540 -15.9720 -15.9119
     7.8268  12.3390  13.3167  15.4303  15.5479  16.1737  18.3228  19.2356
    20.0668  21.7378  22.0867  22.4139

          k = 0.0000-0.5807-0.2651 (  3056 PWs)   bands (ev):

   -42.0746 -42.0685 -16.7294 -16.7060 -16.2725 -16.2683 -16.0190 -16.0074
     7.8898  12.6287  13.1272  15.5164  15.6381  16.2523  18.5819  18.8986
    19.3923  21.4248  22.2060  22.3268

          k = 0.2515 0.1452 0.0000 (  3065 PWs)   bands (ev):

   -42.1980 -42.0757 -16.8569 -16.3361 -16.2036 -15.9615 -15.8536 -15.8184
     7.1442  13.2768  13.7498  15.3537  15.7090  16.2897  17.4412  19.1841
    19.2968  19.7293  19.9935  21.3812

          k = 0.2515 0.1452 0.1326 (  3055 PWs)   bands (ev):

   -42.1803 -42.0937 -16.7135 -16.3171 -16.2236 -15.9767 -15.9460 -15.8695
     7.2096  13.4099  13.7868  15.6435  15.8339  16.2702  17.3184  18.8567
    19.3220  19.4224  19.8982  20.7691

          k = 0.2515 0.1452-0.2651 (  3040 PWs)   bands (ev):

   -42.1400 -42.1344 -16.3788 -16.3487 -16.2629 -16.2565 -15.9122 -15.9036
     7.2751  13.3867  14.0818  15.6527  15.9727  16.6427  17.2021  18.5031
    18.6390  19.6091  19.9842  20.0011

          k = 0.2515 0.1452-0.1326 (  3055 PWs)   bands (ev):

   -42.1803 -42.0937 -16.7135 -16.3171 -16.2236 -15.9767 -15.9460 -15.8695
     7.2096  13.4099  13.7868  15.6435  15.8339  16.2702  17.3184  18.8567
    19.3220  19.4224  19.8982  20.7691

          k = 0.2515 0.4355 0.0000 (  3040 PWs)   bands (ev):

   -42.1310 -42.0114 -16.7566 -16.6221 -16.4703 -16.2603 -16.1313 -15.7588
     7.8692  12.7796  13.8263  14.1781  16.2323  16.4885  17.8929  19.2238
    19.5629  20.3074  21.5984  23.2692

          k = 0.2515 0.4355 0.1326 (  3037 PWs)   bands (ev):

   -42.1137 -42.0291 -16.6275 -16.5910 -16.4923 -16.2419 -16.1502 -15.9116
     7.9081  12.8942  14.0772  14.3368  16.3507  16.6173  17.7929  18.1696
    19.3649  19.8356  22.0816  22.9033

          k = 0.2515 0.4355-0.2651 (  3018 PWs)   bands (ev):

   -42.0746 -42.0686 -16.5607 -16.5375 -16.2729 -16.2662 -16.2034 -16.1887
     7.9472  13.0145  14.0167  15.1760  15.9107  16.9609  17.6696  18.2772
    18.4043  18.8785  22.7770  23.1954

          k = 0.2515 0.4355-0.1326 (  3037 PWs)   bands (ev):

   -42.1137 -42.0291 -16.6275 -16.5910 -16.4923 -16.2419 -16.1502 -15.9116
     7.9081  12.8942  14.0772  14.3368  16.3507  16.6173  17.7929  18.1696
    19.3649  19.8356  22.0816  22.9033

          k = 0.2515-0.4355-0.0000 (  3040 PWs)   bands (ev):

   -42.1310 -42.0114 -16.7566 -16.6221 -16.4703 -16.2603 -16.1313 -15.7588
     7.8692  12.7796  13.8263  14.1781  16.2323  16.4885  17.8929  19.2238
    19.5629  20.3074  21.5984  23.2691

          k = 0.2515-0.4355 0.1326 (  3037 PWs)   bands (ev):

   -42.1137 -42.0291 -16.6275 -16.5910 -16.4923 -16.2419 -16.1502 -15.9116
     7.9081  12.8942  14.0772  14.3368  16.3507  16.6173  17.7929  18.1696
    19.3649  19.8356  22.0816  22.9033

          k = 0.2515-0.4355-0.2651 (  3018 PWs)   bands (ev):

   -42.0746 -42.0686 -16.5607 -16.5375 -16.2729 -16.2662 -16.2034 -16.1887
     7.9472  13.0145  14.0167  15.1760  15.9107  16.9609  17.6696  18.2772
    18.4043  18.8785  22.7771  23.1954

          k = 0.2515-0.4355-0.1326 (  3037 PWs)   bands (ev):

   -42.1137 -42.0291 -16.6275 -16.5910 -16.4923 -16.2419 -16.1502 -15.9116
     7.9081  12.8942  14.0772  14.3368  16.3507  16.6173  17.7929  18.1696
    19.3649  19.8356  22.0816  22.9033

          k = 0.2515-0.1452-0.0000 (  3065 PWs)   bands (ev):

   -42.1980 -42.0757 -16.8569 -16.3361 -16.2036 -15.9615 -15.8536 -15.8184
     7.1442  13.2768  13.7498  15.3537  15.7090  16.2897  17.4412  19.1841
    19.2968  19.7293  19.9935  21.3812

          k = 0.2515-0.1452 0.1326 (  3055 PWs)   bands (ev):

   -42.1803 -42.0937 -16.7135 -16.3171 -16.2236 -15.9767 -15.9460 -15.8695
     7.2096  13.4099  13.7868  15.6435  15.8339  16.2702  17.3184  18.8567
    19.3220  19.4224  19.8982  20.7691

          k = 0.2515-0.1452-0.2651 (  3040 PWs)   bands (ev):

   -42.1400 -42.1344 -16.3788 -16.3487 -16.2629 -16.2565 -15.9122 -15.9036
     7.2751  13.3867  14.0818  15.6527  15.9727  16.6427  17.2021  18.5031
    18.6390  19.6091  19.9842  20.0011

          k = 0.2515-0.1452-0.1326 (  3055 PWs)   bands (ev):

   -42.1803 -42.0937 -16.7135 -16.3171 -16.2236 -15.9767 -15.9460 -15.8695
     7.2096  13.4099  13.7868  15.6435  15.8339  16.2702  17.3184  18.8567
    19.3220  19.4224  19.8982  20.7691

          k =-0.5029-0.2904-0.0000 (  3030 PWs)   bands (ev):

   -42.1309 -42.0114 -16.8010 -16.7527 -16.6340 -16.0705 -15.9552 -15.7588
     7.7658  12.0930  13.5175  15.1665  15.2552  17.0364  17.4945  19.4821
    21.0216  21.8702  21.9141  22.4654

          k =-0.5029-0.2904 0.1326 (  3040 PWs)   bands (ev):

   -42.1137 -42.0290 -16.7767 -16.6581 -16.6147 -16.0540 -15.9720 -15.9119
     7.8267  12.3390  13.3167  15.4303  15.5479  16.1737  18.3228  19.2356
    20.0668  21.7378  22.0867  22.4139

          k =-0.5029-0.2904-0.2651 (  3056 PWs)   bands (ev):

   -42.0746 -42.0685 -16.7294 -16.7060 -16.2725 -16.2683 -16.0190 -16.0074
     7.8898  12.6287  13.1272  15.5164  15.6381  16.2523  18.5819  18.8986
    19.3923  21.4248  22.2060  22.3268

          k =-0.5029 0.0000-0.0000 (  3040 PWs)   bands (ev):

   -42.1310 -42.0114 -16.7566 -16.6221 -16.4703 -16.2603 -16.1313 -15.7588
     7.8692  12.7796  13.8263  14.1781  16.2323  16.4884  17.8929  19.2238
    19.5629  20.3074  21.5984  23.1777

          k =-0.5029 0.0000 0.1326 (  3037 PWs)   bands (ev):

   -42.1137 -42.0291 -16.6275 -16.5910 -16.4923 -16.2419 -16.1502 -15.9116
     7.9081  12.8942  14.0772  14.3368  16.3507  16.6173  17.7929  18.1696
    19.3649  19.8356  22.0816  22.9033

          k =-0.5029-0.0000-0.2651 (  3018 PWs)   bands (ev):

   -42.0746 -42.0686 -16.5607 -16.5375 -16.2729 -16.2662 -16.2034 -16.1887
     7.9472  13.0145  14.0167  15.1760  15.9107  16.9609  17.6696  18.2772
    18.4043  18.8785  22.7770  23.1954

          k =-0.5029-0.0000-0.1326 (  3037 PWs)   bands (ev):

   -42.1137 -42.0291 -16.6275 -16.5910 -16.4923 -16.2419 -16.1502 -15.9116
     7.9081  12.8942  14.0772  14.3368  16.3507  16.6173  17.7929  18.1696
    19.3649  19.8356  22.0816  22.9033

          k =-0.5029-0.8711-0.0000 (  3030 PWs)   bands (ev):

   -42.1309 -42.0114 -16.8010 -16.7527 -16.6340 -16.0705 -15.9552 -15.7588
     7.7658  12.0930  13.5175  15.1665  15.2552  17.0364  17.4945  19.4821
    21.0216  21.8702  21.9141  22.4654

          k =-0.5029-0.8711 0.1326 (  3040 PWs)   bands (ev):

   -42.1137 -42.0290 -16.7767 -16.6581 -16.6147 -16.0540 -15.9720 -15.9119
     7.8268  12.3390  13.3167  15.4303  15.5479  16.1737  18.3228  19.2356
    20.0668  21.7378  22.0867  22.4139

          k =-0.5029-0.8711-0.2651 (  3056 PWs)   bands (ev):

   -42.0746 -42.0685 -16.7294 -16.7060 -16.2725 -16.2683 -16.0190 -16.0074
     7.8898  12.6287  13.1272  15.5164  15.6381  16.2523  18.5819  18.8986
    19.3923  21.4248  22.2060  22.3268

     the Fermi energy is    18.9907 ev

!    total energy              =    -746.26408978 Ry
     total all-electron energy =    -16272.284130 Ry
     estimated scf accuracy    <       0.00000002 Ry
     smearing contrib. (-TS)   =      -0.00124376 Ry
     internal energy E=F+TS    =    -746.26284602 Ry

     The total energy is F=E-TS. E is the sum of the following terms:
     one-electron contribution =     -42.32876679 Ry
     hartree contribution      =      43.18288249 Ry
     xc contribution           =     -43.57210365 Ry
     ewald contribution        =    -242.52619814 Ry
     DFT-D3 Dispersion         =      -0.10314485 Ry
     one-center paw contrib.   =    -460.91551508 Ry

     convergence has been achieved in   8 iterations

     Forces acting on atoms (cartesian axes, Ry/au):

     atom    1 type  1   force =    -0.00000004    0.00000036   -0.00124800
     atom    2 type  1   force =    -0.00000001   -0.00000014    0.00124788
     atom    3 type  2   force =     0.00000005   -0.00000022    0.00000012
     The non-local contrib.  to forces
     atom    1 type  1   force =    -0.00000006   -0.00000026   -0.00235966
     atom    2 type  1   force =    -0.00000003    0.00000007    0.00235841
     atom    3 type  2   force =     0.00000020    0.00000024   -0.00000099
     The ionic contribution  to forces
     atom    1 type  1   force =     0.00000001    0.00000845   10.63623955
     atom    2 type  1   force =    -0.00000072   -0.00000527  -10.63624476
     atom    3 type  2   force =     0.00000071   -0.00000319    0.00000522
     The local contribution  to forces
     atom    1 type  1   force =     0.00000004   -0.00000790  -10.63766272
     atom    2 type  1   force =     0.00000076    0.00000505   10.63766796
     atom    3 type  2   force =    -0.00000085    0.00000273   -0.00001096
     The core correction contribution to forces
     atom    1 type  1   force =     0.00000000    0.00000001    0.00274284
     atom    2 type  1   force =     0.00000000   -0.00000001   -0.00274281
     atom    3 type  2   force =    -0.00000001   -0.00000001    0.00000001
     The Hubbard contrib.    to forces
     atom    1 type  1   force =     0.00000000    0.00000000    0.00000000
     atom    2 type  1   force =     0.00000000    0.00000000    0.00000000
     atom    3 type  2   force =     0.00000000    0.00000000    0.00000000
     The SCF correction term to forces
     atom    1 type  1   force =    -0.00000002    0.00000005   -0.00048941
     atom    2 type  1   force =    -0.00000001    0.00000002    0.00049006
     atom    3 type  2   force =     0.00000000    0.00000002    0.00000662

     DFT-D3 dispersion contribution to forces:
     atom    1 type  1   force =    -0.00000000   -0.00000000    0.00028118
     atom    2 type  1   force =    -0.00000000   -0.00000000   -0.00028118
     atom    3 type  2   force =     0.00000000    0.00000000   -0.00000000

     Total force =     0.001765     Total SCF correction =     0.000693
     SCF correction compared to forces is large: reduce conv_thr to get better values


     Computing stress (Cartesian axis) and pressure

          total   stress  (Ry/bohr**3)                   (kbar)     P=        0.55
   0.00000224  -0.00000000  -0.00000000            0.33       -0.00       -0.00
  -0.00000000   0.00000225  -0.00000000           -0.00        0.33       -0.00
  -0.00000000  -0.00000000   0.00000675           -0.00       -0.00        0.99

     Energy error            =      6.9E-06 Ry
     Gradient error          =      1.2E-03 Ry/Bohr
     Cell gradient error     =      9.9E-01 kbar

     number of scf cycles    =   4
     number of bfgs steps    =   3

     enthalpy           old  =    -746.2640829221 Ry
     enthalpy           new  =    -746.2640897832 Ry

[...]
        k(   33) = (  -0.5028462  -0.0000000  -0.1324777), wk =   0.0625000
        k(   34) = (  -0.5028461  -0.8709550  -0.0000005), wk =   0.0312500
        k(   35) = (  -0.5028461  -0.8709549   0.1324771), wk =   0.0625000
        k(   36) = (  -0.5028461  -0.8709552  -0.2649558), wk =   0.0312500

     Dense  grid:    55175 G-vectors     FFT dimensions: (  45,  45,  80)

     Smooth grid:    23853 G-vectors     FFT dimensions: (  32,  32,  60)

     Estimated max dynamical RAM per process >      13.40 MB

     Estimated total dynamical RAM >     629.85 MB

     Check: negative core charge=   -0.000001

     Initial potential from superposition of free atoms

     starting charge      31.9982, renormalised to      32.0000
     Starting wfcs are   24 randomized atomic wfcs
     Checking if some PAW data can be deallocated... 

     total cpu time spent up to now is       21.9 secs

     Self-consistent Calculation

     iteration #  1     ecut=    77.00 Ry     beta= 0.20
     Davidson diagonalization with overlap
     c_bands:  1 eigenvalues not converged
     ethr =  1.00E-06,  avg # of iterations = 14.0

     total cpu time spent up to now is       22.7 secs

     total energy              =    -746.18321605 Ry
     estimated scf accuracy    <       0.76794793 Ry

     iteration #  2     ecut=    77.00 Ry     beta= 0.20
     Davidson diagonalization with overlap
     ethr =  2.40E-03,  avg # of iterations =  2.6

     total cpu time spent up to now is       22.9 secs

     total energy              =    -746.27784834 Ry
     estimated scf accuracy    <       0.03328269 Ry

     iteration #  3     ecut=    77.00 Ry     beta= 0.20
     Davidson diagonalization with overlap
     ethr =  1.04E-04,  avg # of iterations =  4.5

     total cpu time spent up to now is       23.1 secs

     total energy              =    -746.27550962 Ry
     estimated scf accuracy    <       0.02042935 Ry

     iteration #  4     ecut=    77.00 Ry     beta= 0.20
     Davidson diagonalization with overlap
     ethr =  6.38E-05,  avg # of iterations =  2.9

     total cpu time spent up to now is       23.2 secs

     total energy              =    -746.26452864 Ry
     estimated scf accuracy    <       0.01198748 Ry

     iteration #  5     ecut=    77.00 Ry     beta= 0.20
     Davidson diagonalization with overlap
     ethr =  3.75E-05,  avg # of iterations =  3.8

     total cpu time spent up to now is       23.4 secs

     total energy              =    -746.26636331 Ry
     estimated scf accuracy    <       0.01063456 Ry

     iteration #  6     ecut=    77.00 Ry     beta= 0.20
     Davidson diagonalization with overlap
     ethr =  3.32E-05,  avg # of iterations =  1.0

     total cpu time spent up to now is       23.6 secs

     total energy              =    -746.26466962 Ry
     estimated scf accuracy    <       0.00545023 Ry

     iteration #  7     ecut=    77.00 Ry     beta= 0.20
     Davidson diagonalization with overlap
     ethr =  1.70E-05,  avg # of iterations =  2.8

     total cpu time spent up to now is       23.8 secs

     total energy              =    -746.26451199 Ry
     estimated scf accuracy    <       0.00010922 Ry

     iteration #  8     ecut=    77.00 Ry     beta= 0.20
     Davidson diagonalization with overlap
     ethr =  3.41E-07,  avg # of iterations =  4.5

     total cpu time spent up to now is       24.0 secs

     total energy              =    -746.26409557 Ry
     estimated scf accuracy    <       0.00040671 Ry

     iteration #  9     ecut=    77.00 Ry     beta= 0.20
     Davidson diagonalization with overlap
     ethr =  3.41E-07,  avg # of iterations =  4.7

     total cpu time spent up to now is       24.2 secs

     total energy              =    -746.26406850 Ry
     estimated scf accuracy    <       0.00000149 Ry

     iteration # 10     ecut=    77.00 Ry     beta= 0.20
     Davidson diagonalization with overlap
     ethr =  4.65E-09,  avg # of iterations =  5.2

     total cpu time spent up to now is       24.4 secs

     total energy              =    -746.26405685 Ry
     estimated scf accuracy    <       0.00000289 Ry

     iteration # 11     ecut=    77.00 Ry     beta= 0.20
     Davidson diagonalization with overlap
     ethr =  4.65E-09,  avg # of iterations =  4.5

     total cpu time spent up to now is       24.6 secs

     total energy              =    -746.26405355 Ry
     estimated scf accuracy    <       0.00000025 Ry

     iteration # 12     ecut=    77.00 Ry     beta= 0.20
     Davidson diagonalization with overlap
     ethr =  7.85E-10,  avg # of iterations =  2.9

     total cpu time spent up to now is       24.8 secs

     End of self-consistent calculation

          k = 0.0000 0.0000 0.0000 (  2999 PWs)   bands (ev):

   -42.2844 -42.1604 -16.9725 -15.9034 -15.8711 -15.8711 -15.7717 -15.7717
     6.3618  12.7106  14.6474  15.6828  15.6828  15.7906  18.2751  18.2751
    18.6269  18.6269  21.5098  21.6658

          k = 0.0000 0.0000 0.1325 (  2987 PWs)   bands (ev):

   -42.2665 -42.1788 -16.8243 -16.0686 -15.8568 -15.8568 -15.7863 -15.7863
     6.4834  12.3028  15.0415  15.7655  15.7655  16.1496  18.1192  18.1192
    18.9038  18.9038  21.0043  21.0446

          k =-0.0000-0.0000-0.2650 (  2956 PWs)   bands (ev):

   -42.2243 -42.2214 -16.4732 -16.4366 -15.8252 -15.8252 -15.8180 -15.8180
     6.6108  11.9678  15.5026  15.8566  15.8566  16.3951  17.9730  17.9730
    19.3540  19.3540  20.3204  20.3204

          k =-0.0000 0.2903 0.0000 (  2999 PWs)   bands (ev):

   -42.2184 -42.0971 -16.8752 -16.3564 -16.2246 -15.9823 -15.8750 -15.8426
     7.1218  13.2539  13.7259  15.3373  15.6798  16.2729  17.4201  19.1621
    19.2781  19.7014  19.9707  21.3545

          k =-0.0000 0.2903 0.1325 (  3000 PWs)   bands (ev):

   -42.2008 -42.1150 -16.7327 -16.3376 -16.2445 -15.9999 -15.9669 -15.8907
     7.1864  13.3879  13.7618  15.6250  15.8027  16.2532  17.2998  18.8318
    19.3008  19.4046  19.8769  20.7477

          k =-0.0000 0.2903-0.2650 (  2994 PWs)   bands (ev):

   -42.1598 -42.1565 -16.4062 -16.3624 -16.2825 -16.2794 -15.9342 -15.9237
     7.2511  13.3667  14.0522  15.6385  15.9389  16.6159  17.1872  18.4968
    18.6070  19.5948  19.9718  19.9731

          k =-0.0000 0.2903-0.1325 (  3000 PWs)   bands (ev):

   -42.2008 -42.1150 -16.7327 -16.3376 -16.2445 -15.9999 -15.9669 -15.8907
     7.1864  13.3879  13.7618  15.6250  15.8027  16.2532  17.2998  18.8318
    19.3008  19.4046  19.8769  20.7477

          k = 0.0000-0.5806-0.0000 (  2990 PWs)   bands (ev):

   -42.1514 -42.0329 -16.8209 -16.7712 -16.6546 -16.0912 -15.9764 -15.7831
     7.7404  12.0726  13.4941  15.1521  15.2280  17.0272  17.4763  19.4639
    20.9951  21.8491  21.8763  22.4417

          k = 0.0000-0.5806 0.1325 (  2980 PWs)   bands (ev):

   -42.1343 -42.0504 -16.7969 -16.6785 -16.6339 -16.0748 -15.9931 -15.9352
     7.8005  12.3163  13.2963  15.4006  15.5327  16.1619  18.3071  19.2199
    20.0524  21.6992  22.0625  22.3908

          k = 0.0000-0.5806-0.2650 (  2976 PWs)   bands (ev):

   -42.0944 -42.0907 -16.7509 -16.7250 -16.2968 -16.2863 -16.0409 -16.0274
     7.8627  12.6028  13.1093  15.5106  15.6047  16.2286  18.5716  18.8839
    19.3851  21.3858  22.1800  22.7549

          k = 0.2514 0.1452 0.0000 (  2999 PWs)   bands (ev):

   -42.2184 -42.0971 -16.8752 -16.3564 -16.2246 -15.9823 -15.8750 -15.8426
     7.1218  13.2539  13.7259  15.3373  15.6798  16.2729  17.4201  19.1621
    19.2781  19.7014  19.9707  21.3545

          k = 0.2514 0.1452 0.1325 (  3000 PWs)   bands (ev):

   -42.2008 -42.1150 -16.7327 -16.3376 -16.2445 -15.9999 -15.9669 -15.8907
     7.1864  13.3879  13.7618  15.6249  15.8027  16.2532  17.2998  18.8318
    19.3008  19.4046  19.8769  20.7477

          k = 0.2514 0.1452-0.2650 (  2994 PWs)   bands (ev):

   -42.1598 -42.1565 -16.4062 -16.3624 -16.2825 -16.2794 -15.9342 -15.9237
     7.2511  13.3667  14.0522  15.6385  15.9389  16.6159  17.1872  18.4968
    18.6070  19.5948  19.9718  19.9731

          k = 0.2514 0.1452-0.1325 (  3000 PWs)   bands (ev):

   -42.2008 -42.1150 -16.7327 -16.3376 -16.2445 -15.9999 -15.9669 -15.8907
     7.1864  13.3879  13.7618  15.6250  15.8027  16.2532  17.2998  18.8318
    19.3008  19.4046  19.8769  20.7477

          k = 0.2514 0.4355 0.0000 (  2986 PWs)   bands (ev):

   -42.1515 -42.0329 -16.7751 -16.6421 -16.4911 -16.2807 -16.1524 -15.7831
     7.8437  12.7546  13.8085  14.1554  16.2196  16.4740  17.8725  19.1946
    19.5392  20.2809  21.5816  23.1491

          k = 0.2514 0.4355 0.1325 (  2975 PWs)   bands (ev):

   -42.1344 -42.0505 -16.6473 -16.6107 -16.5129 -16.2625 -16.1711 -15.9350
     7.8819  12.8676  14.0567  14.3160  16.3393  16.6032  17.7710  18.1441
    19.3446  19.8172  22.0597  22.8717

          k = 0.2514 0.4355-0.2650 (  2980 PWs)   bands (ev):

   -42.0944 -42.0908 -16.5824 -16.5568 -16.2947 -16.2867 -16.2252 -16.2085
     7.9205  12.9860  13.9970  15.1481  15.9022  16.9504  17.6415  18.2459
    18.3952  18.8699  22.7449  23.1628

          k = 0.2514 0.4355-0.1325 (  2975 PWs)   bands (ev):

   -42.1344 -42.0505 -16.6473 -16.6107 -16.5129 -16.2625 -16.1711 -15.9350
     7.8819  12.8676  14.0567  14.3160  16.3393  16.6032  17.7710  18.1441
    19.3446  19.8172  22.0597  22.8717

          k = 0.2514-0.4355-0.0000 (  2986 PWs)   bands (ev):

   -42.1515 -42.0329 -16.7751 -16.6421 -16.4911 -16.2807 -16.1524 -15.7831
     7.8437  12.7546  13.8085  14.1554  16.2196  16.4740  17.8725  19.1946
    19.5392  20.2809  21.5816  23.1491

          k = 0.2514-0.4355 0.1325 (  2975 PWs)   bands (ev):

   -42.1344 -42.0505 -16.6473 -16.6107 -16.5129 -16.2625 -16.1711 -15.9350
     7.8819  12.8676  14.0567  14.3160  16.3393  16.6032  17.7710  18.1441
    19.3446  19.8172  22.0597  22.8717

          k = 0.2514-0.4355-0.2650 (  2980 PWs)   bands (ev):

   -42.0944 -42.0908 -16.5824 -16.5568 -16.2947 -16.2867 -16.2252 -16.2085
     7.9205  12.9860  13.9970  15.1481  15.9022  16.9504  17.6415  18.2459
    18.3952  18.8699  22.7449  23.1628

          k = 0.2514-0.4355-0.1325 (  2975 PWs)   bands (ev):

   -42.1344 -42.0505 -16.6473 -16.6107 -16.5129 -16.2625 -16.1711 -15.9350
     7.8819  12.8676  14.0567  14.3160  16.3393  16.6032  17.7710  18.1441
    19.3446  19.8172  22.0597  22.8717

          k = 0.2514-0.1452-0.0000 (  2999 PWs)   bands (ev):

   -42.2184 -42.0971 -16.8752 -16.3564 -16.2246 -15.9823 -15.8750 -15.8426
     7.1218  13.2539  13.7259  15.3373  15.6798  16.2729  17.4201  19.1621
    19.2781  19.7014  19.9707  21.3545

          k = 0.2514-0.1452 0.1325 (  3000 PWs)   bands (ev):

   -42.2008 -42.1150 -16.7327 -16.3376 -16.2445 -15.9999 -15.9669 -15.8907
     7.1864  13.3879  13.7618  15.6250  15.8027  16.2532  17.2998  18.8318
    19.3008  19.4046  19.8769  20.7477

          k = 0.2514-0.1452-0.2650 (  2994 PWs)   bands (ev):

   -42.1597 -42.1565 -16.4062 -16.3624 -16.2825 -16.2794 -15.9342 -15.9237
     7.2511  13.3667  14.0522  15.6385  15.9389  16.6159  17.1872  18.4968
    18.6070  19.5948  19.9718  19.9731

          k = 0.2514-0.1452-0.1325 (  3000 PWs)   bands (ev):

   -42.2008 -42.1150 -16.7327 -16.3376 -16.2445 -15.9999 -15.9669 -15.8907
     7.1864  13.3879  13.7618  15.6250  15.8027  16.2532  17.2998  18.8318
    19.3008  19.4046  19.8769  20.7477

          k =-0.5028-0.2903-0.0000 (  2990 PWs)   bands (ev):

   -42.1514 -42.0329 -16.8209 -16.7712 -16.6546 -16.0912 -15.9764 -15.7831
     7.7404  12.0726  13.4941  15.1521  15.2280  17.0272  17.4763  19.4639
    20.9951  21.8491  21.8763  22.4417

          k =-0.5028-0.2903 0.1325 (  2980 PWs)   bands (ev):

   -42.1343 -42.0504 -16.7969 -16.6785 -16.6339 -16.0748 -15.9931 -15.9352
     7.8005  12.3163  13.2963  15.4006  15.5327  16.1619  18.3071  19.2199
    20.0524  21.6992  22.0625  22.3908

          k =-0.5028-0.2903-0.2650 (  2976 PWs)   bands (ev):

   -42.0944 -42.0907 -16.7509 -16.7250 -16.2968 -16.2863 -16.0409 -16.0274
     7.8627  12.6028  13.1093  15.5106  15.6047  16.2286  18.5716  18.8839
    19.3852  21.3858  22.1800  22.7549

          k =-0.5028 0.0000-0.0000 (  2986 PWs)   bands (ev):

   -42.1515 -42.0329 -16.7751 -16.6421 -16.4911 -16.2807 -16.1524 -15.7831
     7.8437  12.7546  13.8085  14.1554  16.2196  16.4740  17.8725  19.1946
    19.5392  20.2809  21.5816  23.1491

          k =-0.5028 0.0000 0.1325 (  2975 PWs)   bands (ev):

   -42.1344 -42.0505 -16.6473 -16.6107 -16.5129 -16.2625 -16.1711 -15.9350
     7.8819  12.8676  14.0567  14.3160  16.3393  16.6032  17.7710  18.1441
    19.3446  19.8172  22.0597  22.8717

          k =-0.5028-0.0000-0.2650 (  2980 PWs)   bands (ev):

   -42.0944 -42.0908 -16.5824 -16.5568 -16.2947 -16.2867 -16.2252 -16.2085
     7.9205  12.9860  13.9970  15.1481  15.9022  16.9504  17.6415  18.2459
    18.3952  18.8699  22.7449  23.1628

          k =-0.5028-0.0000-0.1325 (  2975 PWs)   bands (ev):

   -42.1344 -42.0505 -16.6473 -16.6107 -16.5129 -16.2625 -16.1711 -15.9350
     7.8819  12.8676  14.0567  14.3160  16.3393  16.6032  17.7710  18.1441
    19.3446  19.8172  22.0597  22.8717

          k =-0.5028-0.8710-0.0000 (  2990 PWs)   bands (ev):

   -42.1514 -42.0329 -16.8209 -16.7712 -16.6546 -16.0912 -15.9764 -15.7831
     7.7404  12.0726  13.4941  15.1521  15.2280  17.0272  17.4763  19.4639
    20.9951  21.8491  21.8763  22.4417

          k =-0.5028-0.8710 0.1325 (  2980 PWs)   bands (ev):

   -42.1343 -42.0504 -16.7969 -16.6785 -16.6339 -16.0748 -15.9931 -15.9352
     7.8005  12.3163  13.2963  15.4006  15.5327  16.1619  18.3071  19.2199
    20.0524  21.6992  22.0625  22.3908

          k =-0.5028-0.8710-0.2650 (  2976 PWs)   bands (ev):

   -42.0944 -42.0907 -16.7509 -16.7250 -16.2968 -16.2863 -16.0409 -16.0274
     7.8627  12.6028  13.1093  15.5106  15.6047  16.2286  18.5716  18.8839
    19.3851  21.3858  22.1800  22.7548

     the Fermi energy is    18.9718 ev

!    total energy              =    -746.26406092 Ry
     total all-electron energy =    -16272.284101 Ry
     estimated scf accuracy    <          6.8E-09 Ry
     smearing contrib. (-TS)   =      -0.00125549 Ry
     internal energy E=F+TS    =    -746.26280543 Ry

     The total energy is F=E-TS. E is the sum of the following terms:
     one-electron contribution =     -42.62055247 Ry
     hartree contribution      =      43.30349666 Ry
     xc contribution           =     -43.57151570 Ry
     ewald contribution        =    -242.35574161 Ry
     DFT-D3 Dispersion         =      -0.10305505 Ry
     one-center paw contrib.   =    -460.91543727 Ry

     convergence has been achieved in  12 iterations

     Forces acting on atoms (cartesian axes, Ry/au):

     atom    1 type  1   force =    -0.00000028   -0.00000002    0.00008594
     atom    2 type  1   force =     0.00000003   -0.00000034   -0.00008667
     atom    3 type  2   force =     0.00000025    0.00000036    0.00000072
     The non-local contrib.  to forces
     atom    1 type  1   force =    -0.00000036    0.00000044   -0.00320773
     atom    2 type  1   force =     0.00000041    0.00000043    0.00321244
     atom    3 type  2   force =    -0.00000040    0.00000039    0.00000135
     The ionic contribution  to forces
     atom    1 type  1   force =     0.00000203    0.00000952   10.82672156
     atom    2 type  1   force =    -0.00000128   -0.00001115  -10.82671967
     atom    3 type  2   force =    -0.00000076    0.00000163   -0.00000189
     The local contribution  to forces
     atom    1 type  1   force =    -0.00000273   -0.00001060  -10.82666588
     atom    2 type  1   force =     0.00000126    0.00001001   10.82666460
     atom    3 type  2   force =     0.00000212   -0.00000146    0.00002384
     The core correction contribution to forces
     atom    1 type  1   force =     0.00000001   -0.00000002    0.00280009
     atom    2 type  1   force =    -0.00000001   -0.00000003   -0.00280013
     atom    3 type  2   force =     0.00000003   -0.00000001   -0.00000001
     The Hubbard contrib.    to forces
     atom    1 type  1   force =     0.00000000    0.00000000    0.00000000
     atom    2 type  1   force =     0.00000000    0.00000000    0.00000000
     atom    3 type  2   force =     0.00000000    0.00000000    0.00000000
     The SCF correction term to forces
     atom    1 type  1   force =     0.00000082    0.00000071    0.00014986
     atom    2 type  1   force =    -0.00000029    0.00000046   -0.00015482
     atom    3 type  2   force =    -0.00000068   -0.00000013   -0.00002205

     DFT-D3 dispersion contribution to forces:
     atom    1 type  1   force =    -0.00000000   -0.00000000    0.00028857
     atom    2 type  1   force =    -0.00000000    0.00000000   -0.00028857
     atom    3 type  2   force =     0.00000000   -0.00000000    0.00000000

     Total force =     0.000122     Total SCF correction =     0.000217
     SCF correction compared to forces is large: reduce conv_thr to get better values


     Computing stress (Cartesian axis) and pressure

          total   stress  (Ry/bohr**3)                   (kbar)     P=       -0.19
  -0.00000169   0.00000000   0.00000001           -0.25        0.00        0.00
   0.00000000  -0.00000169   0.00000000            0.00       -0.25        0.00
   0.00000001   0.00000000  -0.00000040            0.00        0.00       -0.06


     Writing all to output data dir ./outdir/pwscf.save/
 
     init_run     :      0.35s CPU      0.40s WALL (       2 calls)
     electrons    :     15.69s CPU     18.47s WALL (       7 calls)
     update_pot   :      0.48s CPU      0.49s WALL (       5 calls)
     forces       :      1.57s CPU      2.47s WALL (       7 calls)
     force_dftd3  :      1.22s CPU      2.11s WALL (       7 calls)
     stress       :      2.19s CPU      3.34s WALL (       7 calls)
     stres_dftd3  :      1.32s CPU      2.45s WALL (       7 calls)

     Called by init_run:
     wfcinit      :      0.09s CPU      0.10s WALL (       2 calls)
     potinit      :      0.09s CPU      0.11s WALL (       2 calls)
     hinit0       :      0.14s CPU      0.15s WALL (       2 calls)

     Called by electrons:
     c_bands      :      9.75s CPU     11.10s WALL (      87 calls)
     sum_band     :      1.71s CPU      1.95s WALL (      87 calls)
     v_of_rho     :      0.25s CPU      0.26s WALL (      91 calls)
     newd         :      0.37s CPU      0.40s WALL (      91 calls)
     PAW_pot      :      2.79s CPU      3.03s WALL (      96 calls)
     mix_rho      :      0.05s CPU      0.05s WALL (      87 calls)
     energy_dftd3 :      1.07s CPU      1.91s WALL (       7 calls)

     Called by c_bands:
     init_us_2    :      0.12s CPU      0.14s WALL (    3510 calls)
     init_us_2:cp :      0.11s CPU      0.13s WALL (    3510 calls)
     cegterg      :      8.99s CPU     10.14s WALL (    1566 calls)

     Called by *egterg:
     cdiaghg      :      2.58s CPU      2.77s WALL (    6406 calls)
     h_psi        :      5.47s CPU      6.33s WALL (    6586 calls)
     s_psi        :      0.11s CPU      0.12s WALL (    6586 calls)
     g_psi        :      0.02s CPU      0.03s WALL (    4984 calls)

     Called by h_psi:
     h_psi:calbec :      0.26s CPU      0.31s WALL (    6586 calls)
     vloc_psi     :      5.04s CPU      5.82s WALL (    6586 calls)
     add_vuspsi   :      0.12s CPU      0.14s WALL (    6586 calls)

     General routines
     calbec       :      0.36s CPU      0.42s WALL (    8872 calls)
     fft          :      0.19s CPU      0.21s WALL (    1352 calls)
     ffts         :      0.01s CPU      0.01s WALL (     178 calls)
     fftw         :      5.25s CPU      6.09s WALL (  197096 calls)
     interpolate  :      0.03s CPU      0.03s WALL (      91 calls)
 
     Parallel routines
 
     PWSCF        :     20.71s CPU     25.82s WALL

 
   This run was terminated on:  14:31:12  15Dec2023            

=------------------------------------------------------------------------------=
   JOB DONE.
=------------------------------------------------------------------------------=
