lammps.data (written by ASE) 

1620 	 atoms 
2  atom types
0.0                 28.6587  xlo xhi
0.0             27.57684695  ylo yhi
0.0      55.514800000000001  zlo zhi
                      0                       0                       0  xy xz yz


Atoms 

     1   1                       0                       0      24.516445975999996
     2   1      1.5921500000000002             2.757684695      24.516445975999996
     3   1      1.5921659215000001     0.91921903938435001      11.552074731999998
     4   1   1.592150000000002e-05      3.6769037343843496      11.552074731999998
     5   1      3.1842840785000002      1.8384656556156502      18.033982780000002
     6   1            1.5921340785        4.59615035061565      18.033982780000002
     7   2                       0                       0      9.9998809240000011
     8   2      1.5921500000000002             2.757684695      9.9998809240000011
     9   2      1.5921659215000001     0.91921903938435001             16.48234412
    10   2   1.592150000000002e-05      3.6769037343843496             16.48234412
    11   2      3.1842840785000002      1.8384656556156502      22.964252167999998
    12   2            1.5921340785        4.59615035061565      22.964252167999998
    13   2                       0                       0      13.104268540000001
    14   2      1.5921500000000002             2.757684695      13.104268540000001
    15   2      1.5921659215000001     0.91921903938435001      19.586176588000001
    16   2   1.592150000000002e-05      3.6769037343843496      19.586176588000001
    17   2      3.1842840785000002      1.8384656556156502      26.068639784000002
    18   2            1.5921340785        4.59615035061565      26.068639784000002
    19   1                       0                       0      43.962725267999993
    20   1      1.5921500000000002             2.757684695      43.962725267999993
    21   1      1.5921659215000001     0.91921903938435001      30.998354024000001
    22   1   1.592150000000002e-05      3.6769037343843496      30.998354024000001
    23   1      3.1842840785000002      1.8384656556156502      37.480262072000002
    24   1            1.5921340785        4.59615035061565      37.480262072000002
    25   2                       0                       0      29.446160215999996
    26   2      1.5921500000000002             2.757684695      29.446160215999996
    27   2      1.5921659215000001     0.91921903938435001            35.928623412
    28   2   1.592150000000002e-05      3.6769037343843496            35.928623412
    29   2      3.1842840785000002      1.8384656556156502      42.410531460000001
    30   2            1.5921340785        4.59615035061565      42.410531460000001
    31   2                       0                       0      32.550547831999999
    32   2      1.5921500000000002             2.757684695      32.550547831999999
    33   2      1.5921659215000001     0.91921903938435001      39.032455880000001
    34   2   1.592150000000002e-05      3.6769037343843496      39.032455880000001
    35   2      3.1842840785000002      1.8384656556156502      45.514919075999991
    36   2            1.5921340785        4.59615035061565      45.514919075999991
    37   1                       0              5.51536939      24.516445975999996
    38   1      1.5921500000000002      8.2730540850000001      24.516445975999996
    39   1      1.5921659215000001      6.4345884293843501      11.552074731999998
    40   1   1.592150000000002e-05      9.1922731243843501      11.552074731999998
    41   1      3.1842840785000002        7.35383504561565      18.033982780000002
    42   1            1.5921340785       10.11151974061565      18.033982780000002
    43   2                       0              5.51536939      9.9998809240000011
    44   2      1.5921500000000002      8.2730540850000001      9.9998809240000011
    45   2      1.5921659215000001      6.4345884293843501             16.48234412
    46   2   1.592150000000002e-05      9.1922731243843501             16.48234412
    47   2      3.1842840785000002        7.35383504561565      22.964252167999998
    48   2            1.5921340785       10.11151974061565      22.964252167999998
    49   2                       0              5.51536939      13.104268540000001
    50   2      1.5921500000000002      8.2730540850000001      13.104268540000001
    51   2      1.5921659215000001      6.4345884293843501      19.586176588000001
    52   2   1.592150000000002e-05      9.1922731243843501      19.586176588000001
    53   2      3.1842840785000002        7.35383504561565      26.068639784000002
    54   2            1.5921340785       10.11151974061565      26.068639784000002
    55   1                       0              5.51536939      43.962725267999993
    56   1      1.5921500000000002      8.2730540850000001      43.962725267999993
    57   1      1.5921659215000001      6.4345884293843501      30.998354024000001
    58   1   1.592150000000002e-05      9.1922731243843501      30.998354024000001
    59   1      3.1842840785000002        7.35383504561565      37.480262072000002
    60   1            1.5921340785       10.11151974061565      37.480262072000002
    61   2                       0              5.51536939      29.446160215999996
    62   2      1.5921500000000002      8.2730540850000001      29.446160215999996
    63   2      1.5921659215000001      6.4345884293843501            35.928623412
    64   2   1.592150000000002e-05      9.1922731243843501            35.928623412
    65   2      3.1842840785000002        7.35383504561565      42.410531460000001
    66   2            1.5921340785       10.11151974061565      42.410531460000001
    67   2                       0              5.51536939      32.550547831999999
    68   2      1.5921500000000002      8.2730540850000001      32.550547831999999
    69   2      1.5921659215000001      6.4345884293843501      39.032455880000001
    70   2   1.592150000000002e-05      9.1922731243843501      39.032455880000001
    71   2      3.1842840785000002        7.35383504561565      45.514919075999991
    72   2            1.5921340785       10.11151974061565      45.514919075999991
    73   1                       0             11.03073878      24.516445975999996
    74   1      1.5921500000000002      13.788423474999998      24.516445975999996
    75   1      1.5921659215000001       11.94995781938435      11.552074731999998
    76   1   1.592150000000002e-05      14.707642514384348      11.552074731999998
    77   1      3.1842840785000002       12.86920443561565      18.033982780000002
    78   1            1.5921340785       15.62688913061565      18.033982780000002
    79   2                       0             11.03073878      9.9998809240000011
    80   2      1.5921500000000002      13.788423474999998      9.9998809240000011
    81   2      1.5921659215000001       11.94995781938435             16.48234412
    82   2   1.592150000000002e-05      14.707642514384348             16.48234412
    83   2      3.1842840785000002       12.86920443561565      22.964252167999998
    84   2            1.5921340785       15.62688913061565      22.964252167999998
    85   2                       0             11.03073878      13.104268540000001
    86   2      1.5921500000000002      13.788423474999998      13.104268540000001
    87   2      1.5921659215000001       11.94995781938435      19.586176588000001
    88   2   1.592150000000002e-05      14.707642514384348      19.586176588000001
    89   2      3.1842840785000002       12.86920443561565      26.068639784000002
    90   2            1.5921340785       15.62688913061565      26.068639784000002
    91   1                       0             11.03073878      43.962725267999993
    92   1      1.5921500000000002      13.788423474999998      43.962725267999993
    93   1      1.5921659215000001       11.94995781938435      30.998354024000001
    94   1   1.592150000000002e-05      14.707642514384348      30.998354024000001
    95   1      3.1842840785000002       12.86920443561565      37.480262072000002
    96   1            1.5921340785       15.62688913061565      37.480262072000002
    97   2                       0             11.03073878      29.446160215999996
    98   2      1.5921500000000002      13.788423474999998      29.446160215999996
    99   2      1.5921659215000001       11.94995781938435            35.928623412
   100   2   1.592150000000002e-05      14.707642514384348            35.928623412
   101   2      3.1842840785000002       12.86920443561565      42.410531460000001
   102   2            1.5921340785       15.62688913061565      42.410531460000001
   103   2                       0             11.03073878      32.550547831999999
   104   2      1.5921500000000002      13.788423474999998      32.550547831999999
   105   2      1.5921659215000001       11.94995781938435      39.032455880000001
   106   2   1.592150000000002e-05      14.707642514384348      39.032455880000001
   107   2      3.1842840785000002       12.86920443561565      45.514919075999991
   108   2            1.5921340785       15.62688913061565      45.514919075999991
   109   1                       0      16.546108170000004      24.516445975999996
   110   1      1.5921500000000002      19.303792865000005      24.516445975999996
   111   1      1.5921659215000001      17.465327209384355      11.552074731999998
   112   1   1.592150000000002e-05      20.223011904384354      11.552074731999998
   113   1      3.1842840785000002      18.384573825615654      18.033982780000002
   114   1            1.5921340785      21.142258520615655      18.033982780000002
   115   2                       0      16.546108170000004      9.9998809240000011
   116   2      1.5921500000000002      19.303792865000005      9.9998809240000011
   117   2      1.5921659215000001      17.465327209384355             16.48234412
   118   2   1.592150000000002e-05      20.223011904384354             16.48234412
   119   2      3.1842840785000002      18.384573825615654      22.964252167999998
   120   2            1.5921340785      21.142258520615655      22.964252167999998
   121   2                       0      16.546108170000004      13.104268540000001
   122   2      1.5921500000000002      19.303792865000005      13.104268540000001
   123   2      1.5921659215000001      17.465327209384355      19.586176588000001
   124   2   1.592150000000002e-05      20.223011904384354      19.586176588000001
   125   2      3.1842840785000002      18.384573825615654      26.068639784000002
   126   2            1.5921340785      21.142258520615655      26.068639784000002
   127   1                       0      16.546108170000004      43.962725267999993
   128   1      1.5921500000000002      19.303792865000005      43.962725267999993
   129   1      1.5921659215000001      17.465327209384355      30.998354024000001
   130   1   1.592150000000002e-05      20.223011904384354      30.998354024000001
   131   1      3.1842840785000002      18.384573825615654      37.480262072000002
   132   1            1.5921340785      21.142258520615655      37.480262072000002
   133   2                       0      16.546108170000004      29.446160215999996
   134   2      1.5921500000000002      19.303792865000005      29.446160215999996
   135   2      1.5921659215000001      17.465327209384355            35.928623412
   136   2   1.592150000000002e-05      20.223011904384354            35.928623412
   137   2      3.1842840785000002      18.384573825615654      42.410531460000001
   138   2            1.5921340785      21.142258520615655      42.410531460000001
   139   2                       0      16.546108170000004      32.550547831999999
   140   2      1.5921500000000002      19.303792865000005      32.550547831999999
   141   2      1.5921659215000001      17.465327209384355      39.032455880000001
   142   2   1.592150000000002e-05      20.223011904384354      39.032455880000001
   143   2      3.1842840785000002      18.384573825615654      45.514919075999991
   144   2            1.5921340785      21.142258520615655      45.514919075999991
   145   1                       0             22.06147756      24.516445975999996
   146   1      1.5921500000000002      24.819162255000002      24.516445975999996
   147   1      1.5921659215000001      22.980696599384352      11.552074731999998
   148   1   1.592150000000002e-05       25.73838129438435      11.552074731999998
   149   1      3.1842840785000002       23.89994321561565      18.033982780000002
   150   1            1.5921340785      26.657627910615652      18.033982780000002
   151   2                       0             22.06147756      9.9998809240000011
   152   2      1.5921500000000002      24.819162255000002      9.9998809240000011
   153   2      1.5921659215000001      22.980696599384352             16.48234412
   154   2   1.592150000000002e-05       25.73838129438435             16.48234412
   155   2      3.1842840785000002       23.89994321561565      22.964252167999998
   156   2            1.5921340785      26.657627910615652      22.964252167999998
   157   2                       0             22.06147756      13.104268540000001
   158   2      1.5921500000000002      24.819162255000002      13.104268540000001
   159   2      1.5921659215000001      22.980696599384352      19.586176588000001
   160   2   1.592150000000002e-05       25.73838129438435      19.586176588000001
   161   2      3.1842840785000002       23.89994321561565      26.068639784000002
   162   2            1.5921340785      26.657627910615652      26.068639784000002
   163   1                       0             22.06147756      43.962725267999993
   164   1      1.5921500000000002      24.819162255000002      43.962725267999993
   165   1      1.5921659215000001      22.980696599384352      30.998354024000001
   166   1   1.592150000000002e-05       25.73838129438435      30.998354024000001
   167   1      3.1842840785000002       23.89994321561565      37.480262072000002
   168   1            1.5921340785      26.657627910615652      37.480262072000002
   169   2                       0             22.06147756      29.446160215999996
   170   2      1.5921500000000002      24.819162255000002      29.446160215999996
   171   2      1.5921659215000001      22.980696599384352            35.928623412
   172   2   1.592150000000002e-05       25.73838129438435            35.928623412
   173   2      3.1842840785000002       23.89994321561565      42.410531460000001
   174   2            1.5921340785      26.657627910615652      42.410531460000001
   175   2                       0             22.06147756      32.550547831999999
   176   2      1.5921500000000002      24.819162255000002      32.550547831999999
   177   2      1.5921659215000001      22.980696599384352      39.032455880000001
   178   2   1.592150000000002e-05       25.73838129438435      39.032455880000001
   179   2      3.1842840785000002       23.89994321561565      45.514919075999991
   180   2            1.5921340785      26.657627910615652      45.514919075999991
   181   1      3.1843000000000004                       0      24.516445975999996
   182   1      4.7764499999999996             2.757684695      24.516445975999996
   183   1      4.7764659214999998     0.91921903938435001      11.552074731999998
   184   1      3.1843159215000001      3.6769037343843496      11.552074731999998
   185   1      6.3685840785000005      1.8384656556156502      18.033982780000002
   186   1      4.7764340784999995        4.59615035061565      18.033982780000002
   187   2      3.1843000000000004                       0      9.9998809240000011
   188   2      4.7764499999999996             2.757684695      9.9998809240000011
   189   2      4.7764659214999998     0.91921903938435001             16.48234412
   190   2      3.1843159215000001      3.6769037343843496             16.48234412
   191   2      6.3685840785000005      1.8384656556156502      22.964252167999998
   192   2      4.7764340784999995        4.59615035061565      22.964252167999998
   193   2      3.1843000000000004                       0      13.104268540000001
   194   2      4.7764499999999996             2.757684695      13.104268540000001
   195   2      4.7764659214999998     0.91921903938435001      19.586176588000001
   196   2      3.1843159215000001      3.6769037343843496      19.586176588000001
   197   2      6.3685840785000005      1.8384656556156502      26.068639784000002
   198   2      4.7764340784999995        4.59615035061565      26.068639784000002
   199   1      3.1843000000000004                       0      43.962725267999993
   200   1      4.7764499999999996             2.757684695      43.962725267999993
   201   1      4.7764659214999998     0.91921903938435001      30.998354024000001
   202   1      3.1843159215000001      3.6769037343843496      30.998354024000001
   203   1      6.3685840785000005      1.8384656556156502      37.480262072000002
   204   1      4.7764340784999995        4.59615035061565      37.480262072000002
   205   2      3.1843000000000004                       0      29.446160215999996
   206   2      4.7764499999999996             2.757684695      29.446160215999996
   207   2      4.7764659214999998     0.91921903938435001            35.928623412
   208   2      3.1843159215000001      3.6769037343843496            35.928623412
   209   2      6.3685840785000005      1.8384656556156502      42.410531460000001
   210   2      4.7764340784999995        4.59615035061565      42.410531460000001
   211   2      3.1843000000000004                       0      32.550547831999999
   212   2      4.7764499999999996             2.757684695      32.550547831999999
   213   2      4.7764659214999998     0.91921903938435001      39.032455880000001
   214   2      3.1843159215000001      3.6769037343843496      39.032455880000001
   215   2      6.3685840785000005      1.8384656556156502      45.514919075999991
   216   2      4.7764340784999995        4.59615035061565      45.514919075999991
   217   1      3.1843000000000004              5.51536939      24.516445975999996
   218   1      4.7764499999999996      8.2730540850000001      24.516445975999996
   219   1      4.7764659214999998      6.4345884293843501      11.552074731999998
   220   1      3.1843159215000001      9.1922731243843501      11.552074731999998
   221   1      6.3685840785000005        7.35383504561565      18.033982780000002
   222   1      4.7764340784999995       10.11151974061565      18.033982780000002
   223   2      3.1843000000000004              5.51536939      9.9998809240000011
   224   2      4.7764499999999996      8.2730540850000001      9.9998809240000011
   225   2      4.7764659214999998      6.4345884293843501             16.48234412
   226   2      3.1843159215000001      9.1922731243843501             16.48234412
   227   2      6.3685840785000005        7.35383504561565      22.964252167999998
   228   2      4.7764340784999995       10.11151974061565      22.964252167999998
   229   2      3.1843000000000004              5.51536939      13.104268540000001
   230   2      4.7764499999999996      8.2730540850000001      13.104268540000001
   231   2      4.7764659214999998      6.4345884293843501      19.586176588000001
   232   2      3.1843159215000001      9.1922731243843501      19.586176588000001
   233   2      6.3685840785000005        7.35383504561565      26.068639784000002
   234   2      4.7764340784999995       10.11151974061565      26.068639784000002
   235   1      3.1843000000000004              5.51536939      43.962725267999993
   236   1      4.7764499999999996      8.2730540850000001      43.962725267999993
   237   1      4.7764659214999998      6.4345884293843501      30.998354024000001
   238   1      3.1843159215000001      9.1922731243843501      30.998354024000001
   239   1      6.3685840785000005        7.35383504561565      37.480262072000002
   240   1      4.7764340784999995       10.11151974061565      37.480262072000002
   241   2      3.1843000000000004              5.51536939      29.446160215999996
   242   2      4.7764499999999996      8.2730540850000001      29.446160215999996
   243   2      4.7764659214999998      6.4345884293843501            35.928623412
   244   2      3.1843159215000001      9.1922731243843501            35.928623412
   245   2      6.3685840785000005        7.35383504561565      42.410531460000001
   246   2      4.7764340784999995       10.11151974061565      42.410531460000001
   247   2      3.1843000000000004              5.51536939      32.550547831999999
   248   2      4.7764499999999996      8.2730540850000001      32.550547831999999
   249   2      4.7764659214999998      6.4345884293843501      39.032455880000001
   250   2      3.1843159215000001      9.1922731243843501      39.032455880000001
   251   2      6.3685840785000005        7.35383504561565      45.514919075999991
   252   2      4.7764340784999995       10.11151974061565      45.514919075999991
   253   1      3.1843000000000004             11.03073878      24.516445975999996
   254   1      4.7764499999999996      13.788423474999998      24.516445975999996
   255   1      4.7764659214999998       11.94995781938435      11.552074731999998
   256   1      3.1843159215000001      14.707642514384348      11.552074731999998
   257   1      6.3685840785000005       12.86920443561565      18.033982780000002
   258   1      4.7764340784999995       15.62688913061565      18.033982780000002
   259   2      3.1843000000000004             11.03073878      9.9998809240000011
   260   2      4.7764499999999996      13.788423474999998      9.9998809240000011
   261   2      4.7764659214999998       11.94995781938435             16.48234412
   262   2      3.1843159215000001      14.707642514384348             16.48234412
   263   2      6.3685840785000005       12.86920443561565      22.964252167999998
   264   2      4.7764340784999995       15.62688913061565      22.964252167999998
   265   2      3.1843000000000004             11.03073878      13.104268540000001
   266   2      4.7764499999999996      13.788423474999998      13.104268540000001
   267   2      4.7764659214999998       11.94995781938435      19.586176588000001
   268   2      3.1843159215000001      14.707642514384348      19.586176588000001
   269   2      6.3685840785000005       12.86920443561565      26.068639784000002
   270   2      4.7764340784999995       15.62688913061565      26.068639784000002
   271   1      3.1843000000000004             11.03073878      43.962725267999993
   272   1      4.7764499999999996      13.788423474999998      43.962725267999993
   273   1      4.7764659214999998       11.94995781938435      30.998354024000001
   274   1      3.1843159215000001      14.707642514384348      30.998354024000001
   275   1      6.3685840785000005       12.86920443561565      37.480262072000002
   276   1      4.7764340784999995       15.62688913061565      37.480262072000002
   277   2      3.1843000000000004             11.03073878      29.446160215999996
   278   2      4.7764499999999996      13.788423474999998      29.446160215999996
   279   2      4.7764659214999998       11.94995781938435            35.928623412
   280   2      3.1843159215000001      14.707642514384348            35.928623412
   281   2      6.3685840785000005       12.86920443561565      42.410531460000001
   282   2      4.7764340784999995       15.62688913061565      42.410531460000001
   283   2      3.1843000000000004             11.03073878      32.550547831999999
   284   2      4.7764499999999996      13.788423474999998      32.550547831999999
   285   2      4.7764659214999998       11.94995781938435      39.032455880000001
   286   2      3.1843159215000001      14.707642514384348      39.032455880000001
   287   2      6.3685840785000005       12.86920443561565      45.514919075999991
   288   2      4.7764340784999995       15.62688913061565      45.514919075999991
   289   1      3.1843000000000004      16.546108170000004      24.516445975999996
   290   1      4.7764499999999996      19.303792865000005      24.516445975999996
   291   1      4.7764659214999998      17.465327209384355      11.552074731999998
   292   1      3.1843159215000001      20.223011904384354      11.552074731999998
   293   1      6.3685840785000005      18.384573825615654      18.033982780000002
   294   1      4.7764340784999995      21.142258520615655      18.033982780000002
   295   2      3.1843000000000004      16.546108170000004      9.9998809240000011
   296   2      4.7764499999999996      19.303792865000005      9.9998809240000011
   297   2      4.7764659214999998      17.465327209384355             16.48234412
   298   2      3.1843159215000001      20.223011904384354             16.48234412
   299   2      6.3685840785000005      18.384573825615654      22.964252167999998
   300   2      4.7764340784999995      21.142258520615655      22.964252167999998
   301   2      3.1843000000000004      16.546108170000004      13.104268540000001
   302   2      4.7764499999999996      19.303792865000005      13.104268540000001
   303   2      4.7764659214999998      17.465327209384355      19.586176588000001
   304   2      3.1843159215000001      20.223011904384354      19.586176588000001
   305   2      6.3685840785000005      18.384573825615654      26.068639784000002
   306   2      4.7764340784999995      21.142258520615655      26.068639784000002
   307   1      3.1843000000000004      16.546108170000004      43.962725267999993
   308   1      4.7764499999999996      19.303792865000005      43.962725267999993
   309   1      4.7764659214999998      17.465327209384355      30.998354024000001
   310   1      3.1843159215000001      20.223011904384354      30.998354024000001
   311   1      6.3685840785000005      18.384573825615654      37.480262072000002
   312   1      4.7764340784999995      21.142258520615655      37.480262072000002
   313   2      3.1843000000000004      16.546108170000004      29.446160215999996
   314   2      4.7764499999999996      19.303792865000005      29.446160215999996
   315   2      4.7764659214999998      17.465327209384355            35.928623412
   316   2      3.1843159215000001      20.223011904384354            35.928623412
   317   2      6.3685840785000005      18.384573825615654      42.410531460000001
   318   2      4.7764340784999995      21.142258520615655      42.410531460000001
   319   2      3.1843000000000004      16.546108170000004      32.550547831999999
   320   2      4.7764499999999996      19.303792865000005      32.550547831999999
   321   2      4.7764659214999998      17.465327209384355      39.032455880000001
   322   2      3.1843159215000001      20.223011904384354      39.032455880000001
   323   2      6.3685840785000005      18.384573825615654      45.514919075999991
   324   2      4.7764340784999995      21.142258520615655      45.514919075999991
   325   1      3.1843000000000004             22.06147756      24.516445975999996
   326   1      4.7764499999999996      24.819162255000002      24.516445975999996
   327   1      4.7764659214999998      22.980696599384352      11.552074731999998
   328   1      3.1843159215000001       25.73838129438435      11.552074731999998
   329   1      6.3685840785000005       23.89994321561565      18.033982780000002
   330   1      4.7764340784999995      26.657627910615652      18.033982780000002
   331   2      3.1843000000000004             22.06147756      9.9998809240000011
   332   2      4.7764499999999996      24.819162255000002      9.9998809240000011
   333   2      4.7764659214999998      22.980696599384352             16.48234412
   334   2      3.1843159215000001       25.73838129438435             16.48234412
   335   2      6.3685840785000005       23.89994321561565      22.964252167999998
   336   2      4.7764340784999995      26.657627910615652      22.964252167999998
   337   2      3.1843000000000004             22.06147756      13.104268540000001
   338   2      4.7764499999999996      24.819162255000002      13.104268540000001
   339   2      4.7764659214999998      22.980696599384352      19.586176588000001
   340   2      3.1843159215000001       25.73838129438435      19.586176588000001
   341   2      6.3685840785000005       23.89994321561565      26.068639784000002
   342   2      4.7764340784999995      26.657627910615652      26.068639784000002
   343   1      3.1843000000000004             22.06147756      43.962725267999993
   344   1      4.7764499999999996      24.819162255000002      43.962725267999993
   345   1      4.7764659214999998      22.980696599384352      30.998354024000001
   346   1      3.1843159215000001       25.73838129438435      30.998354024000001
   347   1      6.3685840785000005       23.89994321561565      37.480262072000002
   348   1      4.7764340784999995      26.657627910615652      37.480262072000002
   349   2      3.1843000000000004             22.06147756      29.446160215999996
   350   2      4.7764499999999996      24.819162255000002      29.446160215999996
   351   2      4.7764659214999998      22.980696599384352            35.928623412
   352   2      3.1843159215000001       25.73838129438435            35.928623412
   353   2      6.3685840785000005       23.89994321561565      42.410531460000001
   354   2      4.7764340784999995      26.657627910615652      42.410531460000001
   355   2      3.1843000000000004             22.06147756      32.550547831999999
   356   2      4.7764499999999996      24.819162255000002      32.550547831999999
   357   2      4.7764659214999998      22.980696599384352      39.032455880000001
   358   2      3.1843159215000001       25.73838129438435      39.032455880000001